AutoDock-GPU version: pre-gridboxing-2025-09-02-2-g7a158b4220ccb7fae2f1ef28c415f546fce74080-dirty

**********************************************************
**    AutoDock-GPU AUTODOCKTOOLS-COMPATIBLE DLG FILE    **
**********************************************************


    DOCKING PARAMETERS
    ________________________


Ligand file:                               /home/taka/development/ultidock-gmx/docking/LIGANDS_DIR/escitalopram-e.pdbqt
Grid fld file:                             5i6x-edited.maps.fld

Random seed:                               1757959493, 58923
Number of runs:                            512
Number of energy evaluations:              139774
Number of generations:                     42000
Size of population:                        150
Rate of crossover:                         80.000000%
Tournament selection probability limit:    60.000000%
Rate of mutation:                          2.000000%
Maximal allowed delta movement:            +/- 6.000000A
Maximal allowed delta angle:               +/- 90.000000

Rate of local search:                      50.000000%
Maximal number of local search iterations: 300
Rho lower bound:                           0.010000
Spread of local search delta movement:     2.000000A
Spread of local search delta angle:        74.999999
Limit of consecutive successes/failures:   4

Handle symmetry during clustering:         YES
RMSD tolerance:                            2.000000A

Program call in command line was:          /home/taka/development/ultidock-gmx/docking/AUTODOCK_GPU_DIR/bin/autodock_gpu_cuda_64wi --lfile /home/taka/development/ultidock-gmx/docking/LIGANDS_DIR/escitalopram-e.pdbqt --ffile 5i6x-edited.maps.fld --nrun 512 --nev 5000000 --gbest 5 --xmloutput 1 --resnam /home/taka/development/ultidock-gmx/docking/DOCKING_DIR/S4__escitalopram-e_a4993939 --devnum 1 --lsrat 50.0 --lsmet sw --initswgens 200 --stopstd 0.02 


    GRID PARAMETERS
    ________________________


Receptor name:                             /home/taka/development/ultidock-gmx/docking/MACRO_MOL_DIR/5i6x-edited
Number of grid points (x, y, z):           97, 97, 97
Grid center (x, y, z):                     -26.035000, -3.260000, 8.344000A
Grid size (x, y, z):                       36.000000, 36.000000, 36.000000A
Grid spacing:                              0.375000A


    LIGAND PARAMETERS
    ________________________


Ligand name:                               /home/taka/development/ultidock-gmx/docking/LIGANDS_DIR/escitalopram-e
Number of atoms:                           24
Number of rotatable bonds:                 5
Number of atom types:                      6


    DUMMY DATA (only for ADT-compatibility)
    ________________________


DPF> outlev 1
DPF> ga_run 512
DPF> fld 5i6x-edited.maps.fld
DPF> move /home/taka/development/ultidock-gmx/docking/LIGANDS_DIR/escitalopram-e.pdbqt


    COUNTER STATES
    ________________________


Number of energy evaluations performed:    153094
Number of generations used:                8


    INPUT LIGAND PDBQT FILE:
    ________________________


INPUT-LIGAND-PDBQT: REMARK  5 active torsions:
INPUT-LIGAND-PDBQT: REMARK  status: ('A' for Active; 'I' for Inactive)
INPUT-LIGAND-PDBQT: REMARK    1  A    between atoms: C_2  and  C_19 
INPUT-LIGAND-PDBQT: REMARK    2  A    between atoms: C_2  and  C_11 
INPUT-LIGAND-PDBQT: REMARK    3  A    between atoms: C_19  and  C_20 
INPUT-LIGAND-PDBQT: REMARK    4  A    between atoms: C_20  and  C_21 
INPUT-LIGAND-PDBQT: REMARK    5  A    between atoms: C_21  and  N_22 
INPUT-LIGAND-PDBQT: ROOT
INPUT-LIGAND-PDBQT: ATOM      1  O   UNL     1      -0.114  -0.606   1.632  0.00  0.00    -0.346 OA
INPUT-LIGAND-PDBQT: ATOM      2  C   UNL     1      -0.069  -0.235   0.217  0.00  0.00     0.130 C 
INPUT-LIGAND-PDBQT: ATOM      3  C   UNL     1       1.387  -0.336  -0.135  0.00  0.00     0.004 A 
INPUT-LIGAND-PDBQT: ATOM      4  C   UNL     1       2.097  -0.828   0.951  0.00  0.00     0.006 A 
INPUT-LIGAND-PDBQT: ATOM      5  C   UNL     1       1.173  -1.095   2.076  0.00  0.00     0.169 C 
INPUT-LIGAND-PDBQT: ATOM      6  C   UNL     1       2.030  -0.028  -1.325  0.00  0.00    -0.001 A 
INPUT-LIGAND-PDBQT: ATOM      7  C   UNL     1       3.466  -1.024   0.888  0.00  0.00     0.008 A 
INPUT-LIGAND-PDBQT: ATOM      8  C   UNL     1       3.411  -0.216  -1.403  0.00  0.00     0.010 A 
INPUT-LIGAND-PDBQT: ATOM      9  C   UNL     1       4.125  -0.712  -0.302  0.00  0.00     0.068 A 
INPUT-LIGAND-PDBQT: ATOM     10  N   UNL     1       6.687  -1.054  -0.482  0.00  0.00    -0.191 NA
INPUT-LIGAND-PDBQT: ATOM     11  C   UNL     1       5.538  -0.900  -0.401  0.00  0.00     0.101 C 
INPUT-LIGAND-PDBQT: ENDROOT
INPUT-LIGAND-PDBQT: BRANCH   2  12
INPUT-LIGAND-PDBQT: ATOM     12  C   UNL     1      -0.938  -1.212  -0.566  0.00  0.00     0.038 C 
INPUT-LIGAND-PDBQT: BRANCH  12  13
INPUT-LIGAND-PDBQT: ATOM     13  C   UNL     1      -2.364  -1.250  -0.020  0.00  0.00     0.038 C 
INPUT-LIGAND-PDBQT: BRANCH  13  14
INPUT-LIGAND-PDBQT: ATOM     14  C   UNL     1      -3.238  -2.204  -0.832  0.00  0.00     0.251 C 
INPUT-LIGAND-PDBQT: BRANCH  14  15
INPUT-LIGAND-PDBQT: ATOM     15  N   UNL     1      -4.589  -2.244  -0.285  0.00  0.00     0.141 N 
INPUT-LIGAND-PDBQT: ATOM     16  C   UNL     1      -5.439  -3.137  -1.074  0.00  0.00     0.285 C 
INPUT-LIGAND-PDBQT: ATOM     17  C   UNL     1      -4.566  -2.671   1.115  0.00  0.00     0.285 C 
INPUT-LIGAND-PDBQT: ENDBRANCH  14  15
INPUT-LIGAND-PDBQT: ENDBRANCH  13  14
INPUT-LIGAND-PDBQT: ENDBRANCH  12  13
INPUT-LIGAND-PDBQT: ENDBRANCH   2  12
INPUT-LIGAND-PDBQT: BRANCH   2  18
INPUT-LIGAND-PDBQT: ATOM     18  C   UNL     1      -0.597   1.157   0.114  0.00  0.00     0.006 A 
INPUT-LIGAND-PDBQT: ATOM     19  C   UNL     1      -1.137   1.610  -1.089  0.00  0.00     0.001 A 
INPUT-LIGAND-PDBQT: ATOM     20  C   UNL     1      -1.630   2.912  -1.184  0.00  0.00     0.029 A 
INPUT-LIGAND-PDBQT: ATOM     21  C   UNL     1      -1.583   3.758  -0.077  0.00  0.00     0.140 A 
INPUT-LIGAND-PDBQT: ATOM     22  C   UNL     1      -1.043   3.304   1.126  0.00  0.00     0.029 A 
INPUT-LIGAND-PDBQT: ATOM     23  F   UNL     1      -2.058   5.007  -0.168  0.00  0.00    -0.204 F 
INPUT-LIGAND-PDBQT: ATOM     24  C   UNL     1      -0.549   2.002   1.222  0.00  0.00     0.001 A 
INPUT-LIGAND-PDBQT: ENDBRANCH   2  18
INPUT-LIGAND-PDBQT: TORSDOF 5


    FINAL DOCKED STATE:
    ________________________


Run:   1 / 512
Time taken for this run:   0.002s

DOCKED: MODEL        1
DOCKED: USER    Run = 1
DOCKED: USER
DOCKED: USER    Estimated Free Energy of Binding    =  -5.33 kcal/mol  [=(1)+(2)+(3)-(4)]
DOCKED: USER
DOCKED: USER    (1) Final Intermolecular Energy     =  -6.82 kcal/mol
DOCKED: USER        vdW + Hbond + desolv Energy     =  -6.82 kcal/mol
DOCKED: USER        Electrostatic Energy            =  +0.00 kcal/mol
DOCKED: USER        Moving Ligand-Fixed Receptor    =  -6.82 kcal/mol
DOCKED: USER        Moving Ligand-Moving Receptor   =  +0.00 kcal/mol
DOCKED: USER    (2) Final Total Internal Energy     =  -1.04 kcal/mol
DOCKED: USER    (3) Torsional Free Energy           =  +1.49 kcal/mol
DOCKED: USER    (4) Unbound System's Energy         =  -1.04 kcal/mol
DOCKED: USER
DOCKED: USER
DOCKED: REMARK  5 active torsions:
DOCKED: REMARK  status: ('A' for Active; 'I' for Inactive)
DOCKED: REMARK    1  A    between atoms: C_2  and  C_19 
DOCKED: REMARK    2  A    between atoms: C_2  and  C_11 
DOCKED: REMARK    3  A    between atoms: C_19  and  C_20 
DOCKED: REMARK    4  A    between atoms: C_20  and  C_21 
DOCKED: REMARK    5  A    between atoms: C_21  and  N_22 
DOCKED: USER                              x       y       z     vdW  Elec       q    Type
DOCKED: USER                           _______ _______ _______ _____ _____    ______ ____
DOCKED: ROOT
DOCKED: ATOM      1  O   UNL     1     -40.488 -18.970  12.133 -0.09 -0.00    -0.346 OA 
DOCKED: ATOM      2  C   UNL     1     -39.941 -17.708  11.632 -0.13 +0.00    +0.130 C  
DOCKED: ATOM      3  C   UNL     1     -40.077 -17.823  10.141 -0.27 +0.00    +0.004 A  
DOCKED: ATOM      4  C   UNL     1     -40.743 -18.998   9.823 -0.30 +0.00    +0.006 A  
DOCKED: ATOM      5  C   UNL     1     -41.101 -19.725  11.062 -0.12 +0.00    +0.169 C  
DOCKED: ATOM      6  C   UNL     1     -39.655 -16.953   9.147 -0.34 -0.00    -0.001 A  
DOCKED: ATOM      7  C   UNL     1     -41.006 -19.344   8.508 -0.42 +0.00    +0.008 A  
DOCKED: ATOM      8  C   UNL     1     -39.908 -17.290   7.816 -0.05 +0.00    +0.010 A  
DOCKED: ATOM      9  C   UNL     1     -40.580 -18.479   7.499 -0.41 +0.00    +0.068 A  
DOCKED: ATOM     10  N   UNL     1     -41.038 -19.072   5.018 -2.86 -0.00    -0.191 NA 
DOCKED: ATOM     11  C   UNL     1     -40.832 -18.806   6.131 -0.37 +0.00    +0.101 C  
DOCKED: ENDROOT
DOCKED: BRANCH   2  12
DOCKED: ATOM     12  C   UNL     1     -40.759 -16.562  12.215 -0.09 +0.00    +0.038 C  
DOCKED: BRANCH  12  13
DOCKED: ATOM     13  C   UNL     1     -40.064 -15.218  12.006 -0.09 +0.00    +0.038 C  
DOCKED: BRANCH  13  14
DOCKED: ATOM     14  C   UNL     1     -41.011 -14.202  11.370 -0.08 +0.00    +0.251 C  
DOCKED: BRANCH  14  15
DOCKED: ATOM     15  N   UNL     1     -40.272 -13.023  10.935 -0.09 +0.00    +0.141 N  
DOCKED: ATOM     16  C   UNL     1     -38.973 -13.405  10.378 -0.11 +0.00    +0.285 C  
DOCKED: ATOM     17  C   UNL     1     -41.044 -12.266   9.949 -0.14 +0.00    +0.285 C  
DOCKED: ENDBRANCH  14  15
DOCKED: ENDBRANCH  13  14
DOCKED: ENDBRANCH  12  13
DOCKED: ENDBRANCH   2  12
DOCKED: BRANCH   2  18
DOCKED: ATOM     18  C   UNL     1     -38.520 -17.639  12.083 -0.17 +0.00    +0.006 A  
DOCKED: ATOM     19  C   UNL     1     -38.195 -17.931  13.407 -0.14 +0.00    +0.001 A  
DOCKED: ATOM     20  C   UNL     1     -36.866 -17.866  13.827 -0.10 +0.00    +0.029 A  
DOCKED: ATOM     21  C   UNL     1     -35.865 -17.510  12.924 -0.10 +0.00    +0.140 A  
DOCKED: ATOM     22  C   UNL     1     -36.192 -17.218  11.600 -0.12 +0.00    +0.029 A  
DOCKED: ATOM     23  F   UNL     1     -34.589 -17.449  13.327 -0.02 -0.00    -0.204 F  
DOCKED: ATOM     24  C   UNL     1     -37.521 -17.282  11.179 -0.21 +0.00    +0.001 A  
DOCKED: ENDBRANCH   2  18
DOCKED: TORSDOF 5
DOCKED: TER
DOCKED: ENDMDL
________________________________________________________________________________


    FINAL DOCKED STATE:
    ________________________


Run:   2 / 512
Time taken for this run:   0.002s

DOCKED: MODEL        2
DOCKED: USER    Run = 2
DOCKED: USER
DOCKED: USER    Estimated Free Energy of Binding    =  -4.40 kcal/mol  [=(1)+(2)+(3)-(4)]
DOCKED: USER
DOCKED: USER    (1) Final Intermolecular Energy     =  -5.89 kcal/mol
DOCKED: USER        vdW + Hbond + desolv Energy     =  -5.89 kcal/mol
DOCKED: USER        Electrostatic Energy            =  +0.00 kcal/mol
DOCKED: USER        Moving Ligand-Fixed Receptor    =  -5.89 kcal/mol
DOCKED: USER        Moving Ligand-Moving Receptor   =  +0.00 kcal/mol
DOCKED: USER    (2) Final Total Internal Energy     =  -1.37 kcal/mol
DOCKED: USER    (3) Torsional Free Energy           =  +1.49 kcal/mol
DOCKED: USER    (4) Unbound System's Energy         =  -1.37 kcal/mol
DOCKED: USER
DOCKED: USER
DOCKED: REMARK  5 active torsions:
DOCKED: REMARK  status: ('A' for Active; 'I' for Inactive)
DOCKED: REMARK    1  A    between atoms: C_2  and  C_19 
DOCKED: REMARK    2  A    between atoms: C_2  and  C_11 
DOCKED: REMARK    3  A    between atoms: C_19  and  C_20 
DOCKED: REMARK    4  A    between atoms: C_20  and  C_21 
DOCKED: REMARK    5  A    between atoms: C_21  and  N_22 
DOCKED: USER                              x       y       z     vdW  Elec       q    Type
DOCKED: USER                           _______ _______ _______ _____ _____    ______ ____
DOCKED: ROOT
DOCKED: ATOM      1  O   UNL     1     -35.911 -16.469  11.930 -0.09 -0.00    -0.346 OA 
DOCKED: ATOM      2  C   UNL     1     -36.917 -15.513  11.466 -0.13 +0.00    +0.130 C  
DOCKED: ATOM      3  C   UNL     1     -37.947 -16.372  10.792 -0.20 +0.00    +0.004 A  
DOCKED: ATOM      4  C   UNL     1     -37.616 -17.710  10.952 -0.23 +0.00    +0.006 A  
DOCKED: ATOM      5  C   UNL     1     -36.370 -17.829  11.743 -0.11 +0.00    +0.169 C  
DOCKED: ATOM      6  C   UNL     1     -39.092 -16.000  10.102 -0.27 -0.00    -0.001 A  
DOCKED: ATOM      7  C   UNL     1     -38.410 -18.717  10.429 -0.36 +0.00    +0.008 A  
DOCKED: ATOM      8  C   UNL     1     -39.900 -17.003   9.564 -0.32 +0.00    +0.010 A  
DOCKED: ATOM      9  C   UNL     1     -39.560 -18.354   9.727 -0.31 +0.00    +0.068 A  
DOCKED: ATOM     10  N   UNL     1     -41.085 -20.191   8.720 -2.53 -0.00    -0.191 NA 
DOCKED: ATOM     11  C   UNL     1     -40.401 -19.367   9.171 -0.36 +0.00    +0.101 C  
DOCKED: ENDROOT
DOCKED: BRANCH   2  12
DOCKED: ATOM     12  C   UNL     1     -37.467 -14.766  12.676 -0.05 +0.00    +0.038 C  
DOCKED: BRANCH  12  13
DOCKED: ATOM     13  C   UNL     1     -38.640 -15.515  13.307 -0.04 +0.00    +0.038 C  
DOCKED: BRANCH  13  14
DOCKED: ATOM     14  C   UNL     1     -38.148 -16.630  14.227 -0.03 +0.00    +0.251 C  
DOCKED: BRANCH  14  15
DOCKED: ATOM     15  N   UNL     1     -38.820 -17.884  13.908 -0.08 +0.00    +0.141 N  
DOCKED: ATOM     16  C   UNL     1     -38.772 -18.801  15.049 -0.09 +0.00    +0.285 C  
DOCKED: ATOM     17  C   UNL     1     -40.208 -17.640  13.512 -0.03 +0.00    +0.285 C  
DOCKED: ENDBRANCH  14  15
DOCKED: ENDBRANCH  13  14
DOCKED: ENDBRANCH  12  13
DOCKED: ENDBRANCH   2  12
DOCKED: BRANCH   2  18
DOCKED: ATOM     18  C   UNL     1     -36.231 -14.580  10.525 -0.12 +0.00    +0.006 A  
DOCKED: ATOM     19  C   UNL     1     -34.840 -14.586  10.428 -0.10 +0.00    +0.001 A  
DOCKED: ATOM     20  C   UNL     1     -34.200 -13.714   9.547 -0.09 +0.00    +0.029 A  
DOCKED: ATOM     21  C   UNL     1     -34.951 -12.837   8.765 -0.07 +0.00    +0.140 A  
DOCKED: ATOM     22  C   UNL     1     -36.342 -12.832   8.862 -0.12 +0.00    +0.029 A  
DOCKED: ATOM     23  F   UNL     1     -34.336 -12.001   7.918 -0.00 -0.00    -0.204 F  
DOCKED: ATOM     24  C   UNL     1     -36.984 -13.704   9.743 -0.16 +0.00    +0.001 A  
DOCKED: ENDBRANCH   2  18
DOCKED: TORSDOF 5
DOCKED: TER
DOCKED: ENDMDL
________________________________________________________________________________


    FINAL DOCKED STATE:
    ________________________


Run:   3 / 512
Time taken for this run:   0.002s

DOCKED: MODEL        3
DOCKED: USER    Run = 3
DOCKED: USER
DOCKED: USER    Estimated Free Energy of Binding    =  -4.41 kcal/mol  [=(1)+(2)+(3)-(4)]
DOCKED: USER
DOCKED: USER    (1) Final Intermolecular Energy     =  -5.90 kcal/mol
DOCKED: USER        vdW + Hbond + desolv Energy     =  -5.90 kcal/mol
DOCKED: USER        Electrostatic Energy            =  +0.00 kcal/mol
DOCKED: USER        Moving Ligand-Fixed Receptor    =  -5.90 kcal/mol
DOCKED: USER        Moving Ligand-Moving Receptor   =  +0.00 kcal/mol
DOCKED: USER    (2) Final Total Internal Energy     =  -0.92 kcal/mol
DOCKED: USER    (3) Torsional Free Energy           =  +1.49 kcal/mol
DOCKED: USER    (4) Unbound System's Energy         =  -0.92 kcal/mol
DOCKED: USER
DOCKED: USER
DOCKED: REMARK  5 active torsions:
DOCKED: REMARK  status: ('A' for Active; 'I' for Inactive)
DOCKED: REMARK    1  A    between atoms: C_2  and  C_19 
DOCKED: REMARK    2  A    between atoms: C_2  and  C_11 
DOCKED: REMARK    3  A    between atoms: C_19  and  C_20 
DOCKED: REMARK    4  A    between atoms: C_20  and  C_21 
DOCKED: REMARK    5  A    between atoms: C_21  and  N_22 
DOCKED: USER                              x       y       z     vdW  Elec       q    Type
DOCKED: USER                           _______ _______ _______ _____ _____    ______ ____
DOCKED: ROOT
DOCKED: ATOM      1  O   UNL     1     -30.857 -15.210   3.838 +0.01 -0.00    -0.346 OA 
DOCKED: ATOM      2  C   UNL     1     -32.305 -15.022   3.933 -0.07 +0.00    +0.130 C  
DOCKED: ATOM      3  C   UNL     1     -32.783 -16.259   4.636 -0.15 +0.00    +0.004 A  
DOCKED: ATOM      4  C   UNL     1     -31.694 -17.035   5.008 -0.09 +0.00    +0.006 A  
DOCKED: ATOM      5  C   UNL     1     -30.438 -16.369   4.595 -0.02 +0.00    +0.169 C  
DOCKED: ATOM      6  C   UNL     1     -34.077 -16.661   4.932 -0.31 -0.00    -0.001 A  
DOCKED: ATOM      7  C   UNL     1     -31.860 -18.234   5.681 -0.16 +0.00    +0.008 A  
DOCKED: ATOM      8  C   UNL     1     -34.261 -17.869   5.606 -0.26 +0.00    +0.010 A  
DOCKED: ATOM      9  C   UNL     1     -33.158 -18.651   5.979 -0.30 +0.00    +0.068 A  
DOCKED: ATOM     10  N   UNL     1     -33.534 -20.886   7.234 -2.56 -0.00    -0.191 NA 
DOCKED: ATOM     11  C   UNL     1     -33.365 -19.884   6.671 -0.34 +0.00    +0.101 C  
DOCKED: ENDROOT
DOCKED: BRANCH   2  12
DOCKED: ATOM     12  C   UNL     1     -32.574 -13.748   4.726 -0.04 +0.00    +0.038 C  
DOCKED: BRANCH  12  13
DOCKED: ATOM     13  C   UNL     1     -33.849 -13.869   5.558 -0.11 +0.00    +0.038 C  
DOCKED: BRANCH  13  14
DOCKED: ATOM     14  C   UNL     1     -33.533 -13.861   7.052 -0.07 +0.00    +0.251 C  
DOCKED: BRANCH  14  15
DOCKED: ATOM     15  N   UNL     1     -34.735 -14.146   7.826 -0.12 +0.00    +0.141 N  
DOCKED: ATOM     16  C   UNL     1     -34.510 -13.877   9.247 -0.07 +0.00    +0.285 C  
DOCKED: ATOM     17  C   UNL     1     -35.865 -13.356   7.334 -0.10 +0.00    +0.285 C  
DOCKED: ENDBRANCH  14  15
DOCKED: ENDBRANCH  13  14
DOCKED: ENDBRANCH  12  13
DOCKED: ENDBRANCH   2  12
DOCKED: BRANCH   2  18
DOCKED: ATOM     18  C   UNL     1     -32.823 -14.908   2.538 -0.13 +0.00    +0.006 A  
DOCKED: ATOM     19  C   UNL     1     -33.809 -13.970   2.236 -0.17 +0.00    +0.001 A  
DOCKED: ATOM     20  C   UNL     1     -34.293 -13.865   0.932 -0.22 +0.00    +0.029 A  
DOCKED: ATOM     21  C   UNL     1     -33.790 -14.696  -0.068 -0.21 +0.00    +0.140 A  
DOCKED: ATOM     22  C   UNL     1     -32.803 -15.634   0.235 -0.18 +0.00    +0.029 A  
DOCKED: ATOM     23  F   UNL     1     -34.254 -14.594  -1.320 -0.11 -0.00    -0.204 F  
DOCKED: ATOM     24  C   UNL     1     -32.319 -15.740   1.540 -0.13 +0.00    +0.001 A  
DOCKED: ENDBRANCH   2  18
DOCKED: TORSDOF 5
DOCKED: TER
DOCKED: ENDMDL
________________________________________________________________________________


    FINAL DOCKED STATE:
    ________________________


Run:   4 / 512
Time taken for this run:   0.002s

DOCKED: MODEL        4
DOCKED: USER    Run = 4
DOCKED: USER
DOCKED: USER    Estimated Free Energy of Binding    =  -3.86 kcal/mol  [=(1)+(2)+(3)-(4)]
DOCKED: USER
DOCKED: USER    (1) Final Intermolecular Energy     =  -5.35 kcal/mol
DOCKED: USER        vdW + Hbond + desolv Energy     =  -5.35 kcal/mol
DOCKED: USER        Electrostatic Energy            =  +0.00 kcal/mol
DOCKED: USER        Moving Ligand-Fixed Receptor    =  -5.35 kcal/mol
DOCKED: USER        Moving Ligand-Moving Receptor   =  +0.00 kcal/mol
DOCKED: USER    (2) Final Total Internal Energy     =  -1.41 kcal/mol
DOCKED: USER    (3) Torsional Free Energy           =  +1.49 kcal/mol
DOCKED: USER    (4) Unbound System's Energy         =  -1.41 kcal/mol
DOCKED: USER
DOCKED: USER
DOCKED: REMARK  5 active torsions:
DOCKED: REMARK  status: ('A' for Active; 'I' for Inactive)
DOCKED: REMARK    1  A    between atoms: C_2  and  C_19 
DOCKED: REMARK    2  A    between atoms: C_2  and  C_11 
DOCKED: REMARK    3  A    between atoms: C_19  and  C_20 
DOCKED: REMARK    4  A    between atoms: C_20  and  C_21 
DOCKED: REMARK    5  A    between atoms: C_21  and  N_22 
DOCKED: USER                              x       y       z     vdW  Elec       q    Type
DOCKED: USER                           _______ _______ _______ _____ _____    ______ ____
DOCKED: ROOT
DOCKED: ATOM      1  O   UNL     1     -36.262 -15.805  11.672 -0.07 -0.00    -0.346 OA 
DOCKED: ATOM      2  C   UNL     1     -37.489 -15.038  11.456 -0.11 +0.00    +0.130 C  
DOCKED: ATOM      3  C   UNL     1     -38.423 -16.026  10.820 -0.21 +0.00    +0.004 A  
DOCKED: ATOM      4  C   UNL     1     -37.822 -17.276  10.777 -0.20 +0.00    +0.006 A  
DOCKED: ATOM      5  C   UNL     1     -36.474 -17.207  11.384 -0.06 +0.00    +0.169 C  
DOCKED: ATOM      6  C   UNL     1     -39.706 -15.836  10.328 -0.24 -0.00    -0.001 A  
DOCKED: ATOM      7  C   UNL     1     -38.476 -18.372  10.241 -0.34 +0.00    +0.008 A  
DOCKED: ATOM      8  C   UNL     1     -40.378 -16.931   9.781 -0.28 +0.00    +0.010 A  
DOCKED: ATOM      9  C   UNL     1     -39.766 -18.192   9.738 -0.29 +0.00    +0.068 A  
DOCKED: ATOM     10  N   UNL     1     -41.042 -20.204   8.719 -2.56 -0.00    -0.191 NA 
DOCKED: ATOM     11  C   UNL     1     -40.469 -19.302   9.176 -0.36 +0.00    +0.101 C  
DOCKED: ENDROOT
DOCKED: BRANCH   2  12
DOCKED: ATOM     12  C   UNL     1     -37.987 -14.535  12.806 -0.04 +0.00    +0.038 C  
DOCKED: BRANCH  12  13
DOCKED: ATOM     13  C   UNL     1     -37.122 -15.059  13.950 -0.02 +0.00    +0.038 C  
DOCKED: BRANCH  13  14
DOCKED: ATOM     14  C   UNL     1     -35.853 -14.223  14.107 -0.01 +0.00    +0.251 C  
DOCKED: BRANCH  14  15
DOCKED: ATOM     15  N   UNL     1     -34.671 -15.060  13.944 -0.01 +0.00    +0.141 N  
DOCKED: ATOM     16  C   UNL     1     -33.717 -14.433  13.028 -0.01 +0.00    +0.285 C  
DOCKED: ATOM     17  C   UNL     1     -34.038 -15.316  15.238 -0.00 +0.00    +0.285 C  
DOCKED: ENDBRANCH  14  15
DOCKED: ENDBRANCH  13  14
DOCKED: ENDBRANCH  12  13
DOCKED: ENDBRANCH   2  12
DOCKED: BRANCH   2  18
DOCKED: ATOM     18  C   UNL     1     -37.140 -13.902  10.553 -0.13 +0.00    +0.006 A  
DOCKED: ATOM     19  C   UNL     1     -36.795 -14.149   9.225 -0.12 +0.00    +0.001 A  
DOCKED: ATOM     20  C   UNL     1     -36.468 -13.086   8.382 -0.12 +0.00    +0.029 A  
DOCKED: ATOM     21  C   UNL     1     -36.489 -11.779   8.867 -0.06 +0.00    +0.140 A  
DOCKED: ATOM     22  C   UNL     1     -36.835 -11.533  10.196 -0.04 +0.00    +0.029 A  
DOCKED: ATOM     23  F   UNL     1     -36.178 -10.759   8.057 -0.01 -0.00    -0.204 F  
DOCKED: ATOM     24  C   UNL     1     -37.161 -12.596  11.040 -0.05 +0.00    +0.001 A  
DOCKED: ENDBRANCH   2  18
DOCKED: TORSDOF 5
DOCKED: TER
DOCKED: ENDMDL
________________________________________________________________________________


    FINAL DOCKED STATE:
    ________________________


Run:   5 / 512
Time taken for this run:   0.002s

DOCKED: MODEL        5
DOCKED: USER    Run = 5
DOCKED: USER
DOCKED: USER    Estimated Free Energy of Binding    =  -4.17 kcal/mol  [=(1)+(2)+(3)-(4)]
DOCKED: USER
DOCKED: USER    (1) Final Intermolecular Energy     =  -5.66 kcal/mol
DOCKED: USER        vdW + Hbond + desolv Energy     =  -5.66 kcal/mol
DOCKED: USER        Electrostatic Energy            =  +0.00 kcal/mol
DOCKED: USER        Moving Ligand-Fixed Receptor    =  -5.66 kcal/mol
DOCKED: USER        Moving Ligand-Moving Receptor   =  +0.00 kcal/mol
DOCKED: USER    (2) Final Total Internal Energy     =  -0.98 kcal/mol
DOCKED: USER    (3) Torsional Free Energy           =  +1.49 kcal/mol
DOCKED: USER    (4) Unbound System's Energy         =  -0.98 kcal/mol
DOCKED: USER
DOCKED: USER
DOCKED: REMARK  5 active torsions:
DOCKED: REMARK  status: ('A' for Active; 'I' for Inactive)
DOCKED: REMARK    1  A    between atoms: C_2  and  C_19 
DOCKED: REMARK    2  A    between atoms: C_2  and  C_11 
DOCKED: REMARK    3  A    between atoms: C_19  and  C_20 
DOCKED: REMARK    4  A    between atoms: C_20  and  C_21 
DOCKED: REMARK    5  A    between atoms: C_21  and  N_22 
DOCKED: USER                              x       y       z     vdW  Elec       q    Type
DOCKED: USER                           _______ _______ _______ _____ _____    ______ ____
DOCKED: ROOT
DOCKED: ATOM      1  O   UNL     1     -35.983 -16.350  11.942 -0.08 -0.00    -0.346 OA 
DOCKED: ATOM      2  C   UNL     1     -37.034 -15.423  11.519 -0.12 +0.00    +0.130 C  
DOCKED: ATOM      3  C   UNL     1     -38.039 -16.306  10.837 -0.21 +0.00    +0.004 A  
DOCKED: ATOM      4  C   UNL     1     -37.652 -17.633  10.957 -0.24 +0.00    +0.006 A  
DOCKED: ATOM      5  C   UNL     1     -36.391 -17.721  11.726 -0.13 +0.00    +0.169 C  
DOCKED: ATOM      6  C   UNL     1     -39.208 -15.962  10.174 -0.26 -0.00    -0.001 A  
DOCKED: ATOM      7  C   UNL     1     -38.413 -18.657  10.419 -0.35 +0.00    +0.008 A  
DOCKED: ATOM      8  C   UNL     1     -39.984 -16.983   9.622 -0.31 +0.00    +0.010 A  
DOCKED: ATOM      9  C   UNL     1     -39.588 -18.323   9.744 -0.31 +0.00    +0.068 A  
DOCKED: ATOM     10  N   UNL     1     -41.054 -20.193   8.711 -2.54 -0.00    -0.191 NA 
DOCKED: ATOM     11  C   UNL     1     -40.396 -19.354   9.173 -0.36 +0.00    +0.101 C  
DOCKED: ENDROOT
DOCKED: BRANCH   2  12
DOCKED: ATOM     12  C   UNL     1     -37.594 -14.731  12.756 -0.05 +0.00    +0.038 C  
DOCKED: BRANCH  12  13
DOCKED: ATOM     13  C   UNL     1     -38.802 -15.481  13.315 -0.04 +0.00    +0.038 C  
DOCKED: BRANCH  13  14
DOCKED: ATOM     14  C   UNL     1     -39.418 -14.729  14.493 -0.00 +0.00    +0.251 C  
DOCKED: BRANCH  14  15
DOCKED: ATOM     15  N   UNL     1     -40.547 -13.922  14.044 -0.01 +0.00    +0.141 N  
DOCKED: ATOM     16  C   UNL     1     -40.112 -12.562  13.719 -0.00 +0.00    +0.285 C  
DOCKED: ATOM     17  C   UNL     1     -41.194 -14.539  12.885 -0.01 +0.00    +0.285 C  
DOCKED: ENDBRANCH  14  15
DOCKED: ENDBRANCH  13  14
DOCKED: ENDBRANCH  12  13
DOCKED: ENDBRANCH   2  12
DOCKED: BRANCH   2  18
DOCKED: ATOM     18  C   UNL     1     -36.400 -14.440  10.592 -0.13 +0.00    +0.006 A  
DOCKED: ATOM     19  C   UNL     1     -37.063 -14.052   9.429 -0.16 +0.00    +0.001 A  
DOCKED: ATOM     20  C   UNL     1     -36.470 -13.133   8.563 -0.13 +0.00    +0.029 A  
DOCKED: ATOM     21  C   UNL     1     -35.215 -12.603   8.862 -0.07 +0.00    +0.140 A  
DOCKED: ATOM     22  C   UNL     1     -34.553 -12.991  10.026 -0.05 +0.00    +0.029 A  
DOCKED: ATOM     23  F   UNL     1     -34.647 -11.719   8.032 -0.00 -0.00    -0.204 F  
DOCKED: ATOM     24  C   UNL     1     -35.146 -13.911  10.893 -0.08 +0.00    +0.001 A  
DOCKED: ENDBRANCH   2  18
DOCKED: TORSDOF 5
DOCKED: TER
DOCKED: ENDMDL
________________________________________________________________________________


    FINAL DOCKED STATE:
    ________________________


Run:   6 / 512
Time taken for this run:   0.002s

DOCKED: MODEL        6
DOCKED: USER    Run = 6
DOCKED: USER
DOCKED: USER    Estimated Free Energy of Binding    =  -4.52 kcal/mol  [=(1)+(2)+(3)-(4)]
DOCKED: USER
DOCKED: USER    (1) Final Intermolecular Energy     =  -6.01 kcal/mol
DOCKED: USER        vdW + Hbond + desolv Energy     =  -6.01 kcal/mol
DOCKED: USER        Electrostatic Energy            =  +0.00 kcal/mol
DOCKED: USER        Moving Ligand-Fixed Receptor    =  -6.01 kcal/mol
DOCKED: USER        Moving Ligand-Moving Receptor   =  +0.00 kcal/mol
DOCKED: USER    (2) Final Total Internal Energy     =  -1.38 kcal/mol
DOCKED: USER    (3) Torsional Free Energy           =  +1.49 kcal/mol
DOCKED: USER    (4) Unbound System's Energy         =  -1.38 kcal/mol
DOCKED: USER
DOCKED: USER
DOCKED: REMARK  5 active torsions:
DOCKED: REMARK  status: ('A' for Active; 'I' for Inactive)
DOCKED: REMARK    1  A    between atoms: C_2  and  C_19 
DOCKED: REMARK    2  A    between atoms: C_2  and  C_11 
DOCKED: REMARK    3  A    between atoms: C_19  and  C_20 
DOCKED: REMARK    4  A    between atoms: C_20  and  C_21 
DOCKED: REMARK    5  A    between atoms: C_21  and  N_22 
DOCKED: USER                              x       y       z     vdW  Elec       q    Type
DOCKED: USER                           _______ _______ _______ _____ _____    ______ ____
DOCKED: ROOT
DOCKED: ATOM      1  O   UNL     1     -41.868 -18.719  12.136 -0.04 -0.00    -0.346 OA 
DOCKED: ATOM      2  C   UNL     1     -40.999 -17.606  11.751 -0.10 +0.00    +0.130 C  
DOCKED: ATOM      3  C   UNL     1     -40.861 -17.756  10.263 -0.23 +0.00    +0.004 A  
DOCKED: ATOM      4  C   UNL     1     -41.668 -18.795   9.822 -0.27 +0.00    +0.006 A  
DOCKED: ATOM      5  C   UNL     1     -42.395 -19.388  10.967 -0.10 +0.00    +0.169 C  
DOCKED: ATOM      6  C   UNL     1     -40.092 -17.024   9.371 -0.32 -0.00    -0.001 A  
DOCKED: ATOM      7  C   UNL     1     -41.732 -19.140   8.483 -0.37 +0.00    +0.008 A  
DOCKED: ATOM      8  C   UNL     1     -40.142 -17.362   8.017 -0.08 +0.00    +0.010 A  
DOCKED: ATOM      9  C   UNL     1     -40.958 -18.414   7.576 -0.36 +0.00    +0.068 A  
DOCKED: ATOM     10  N   UNL     1     -41.030 -19.012   5.056 -2.86 -0.00    -0.191 NA 
DOCKED: ATOM     11  C   UNL     1     -40.997 -18.745   6.186 -0.29 +0.00    +0.101 C  
DOCKED: ENDROOT
DOCKED: BRANCH   2  12
DOCKED: ATOM     12  C   UNL     1     -41.676 -16.303  12.156 -0.09 +0.00    +0.038 C  
DOCKED: BRANCH  12  13
DOCKED: ATOM     13  C   UNL     1     -43.043 -16.558  12.787 -0.08 +0.00    +0.038 C  
DOCKED: BRANCH  13  14
DOCKED: ATOM     14  C   UNL     1     -43.018 -16.272  14.287 -0.00 +0.00    +0.251 C  
DOCKED: BRANCH  14  15
DOCKED: ATOM     15  N   UNL     1     -41.681 -16.494  14.823 -0.01 +0.00    +0.141 N  
DOCKED: ATOM     16  C   UNL     1     -41.001 -15.220  15.057 -0.00 +0.00    +0.285 C  
DOCKED: ATOM     17  C   UNL     1     -41.744 -17.271  16.063 -0.00 +0.00    +0.285 C  
DOCKED: ENDBRANCH  14  15
DOCKED: ENDBRANCH  13  14
DOCKED: ENDBRANCH  12  13
DOCKED: ENDBRANCH   2  12
DOCKED: BRANCH   2  18
DOCKED: ATOM     18  C   UNL     1     -39.707 -17.790  12.476 -0.13 +0.00    +0.006 A  
DOCKED: ATOM     19  C   UNL     1     -38.643 -16.923  12.233 -0.13 +0.00    +0.001 A  
DOCKED: ATOM     20  C   UNL     1     -37.436 -17.096  12.911 -0.12 +0.00    +0.029 A  
DOCKED: ATOM     21  C   UNL     1     -37.295 -18.134  13.831 -0.05 +0.00    +0.140 A  
DOCKED: ATOM     22  C   UNL     1     -38.360 -19.001  14.073 -0.17 +0.00    +0.029 A  
DOCKED: ATOM     23  F   UNL     1     -36.137 -18.299  14.483 -0.03 -0.00    -0.204 F  
DOCKED: ATOM     24  C   UNL     1     -39.568 -18.829  13.395 -0.19 +0.00    +0.001 A  
DOCKED: ENDBRANCH   2  18
DOCKED: TORSDOF 5
DOCKED: TER
DOCKED: ENDMDL
________________________________________________________________________________


    FINAL DOCKED STATE:
    ________________________


Run:   7 / 512
Time taken for this run:   0.002s

DOCKED: MODEL        7
DOCKED: USER    Run = 7
DOCKED: USER
DOCKED: USER    Estimated Free Energy of Binding    =  -3.51 kcal/mol  [=(1)+(2)+(3)-(4)]
DOCKED: USER
DOCKED: USER    (1) Final Intermolecular Energy     =  -5.00 kcal/mol
DOCKED: USER        vdW + Hbond + desolv Energy     =  -5.00 kcal/mol
DOCKED: USER        Electrostatic Energy            =  +0.00 kcal/mol
DOCKED: USER        Moving Ligand-Fixed Receptor    =  -5.00 kcal/mol
DOCKED: USER        Moving Ligand-Moving Receptor   =  +0.00 kcal/mol
DOCKED: USER    (2) Final Total Internal Energy     =  -1.37 kcal/mol
DOCKED: USER    (3) Torsional Free Energy           =  +1.49 kcal/mol
DOCKED: USER    (4) Unbound System's Energy         =  -1.37 kcal/mol
DOCKED: USER
DOCKED: USER
DOCKED: REMARK  5 active torsions:
DOCKED: REMARK  status: ('A' for Active; 'I' for Inactive)
DOCKED: REMARK    1  A    between atoms: C_2  and  C_19 
DOCKED: REMARK    2  A    between atoms: C_2  and  C_11 
DOCKED: REMARK    3  A    between atoms: C_19  and  C_20 
DOCKED: REMARK    4  A    between atoms: C_20  and  C_21 
DOCKED: REMARK    5  A    between atoms: C_21  and  N_22 
DOCKED: USER                              x       y       z     vdW  Elec       q    Type
DOCKED: USER                           _______ _______ _______ _____ _____    ______ ____
DOCKED: ROOT
DOCKED: ATOM      1  O   UNL     1     -32.501 -15.381   3.141 +0.00 -0.00    -0.346 OA 
DOCKED: ATOM      2  C   UNL     1     -31.807 -16.538   2.574 -0.10 +0.00    +0.130 C  
DOCKED: ATOM      3  C   UNL     1     -32.058 -17.632   3.571 -0.13 +0.00    +0.004 A  
DOCKED: ATOM      4  C   UNL     1     -32.913 -17.173   4.563 -0.20 +0.00    +0.006 A  
DOCKED: ATOM      5  C   UNL     1     -33.291 -15.768   4.290 -0.15 +0.00    +0.169 C  
DOCKED: ATOM      6  C   UNL     1     -31.579 -18.934   3.591 -0.14 -0.00    -0.001 A  
DOCKED: ATOM      7  C   UNL     1     -33.312 -17.991   5.606 -0.30 +0.00    +0.008 A  
DOCKED: ATOM      8  C   UNL     1     -31.968 -19.770   4.639 -0.24 +0.00    +0.010 A  
DOCKED: ATOM      9  C   UNL     1     -32.831 -19.301   5.641 -0.31 +0.00    +0.068 A  
DOCKED: ATOM     10  N   UNL     1     -33.538 -20.881   7.569 -2.67 -0.00    -0.191 NA 
DOCKED: ATOM     11  C   UNL     1     -33.220 -20.172   6.705 -0.40 +0.00    +0.101 C  
DOCKED: ENDROOT
DOCKED: BRANCH   2  12
DOCKED: ATOM     12  C   UNL     1     -32.404 -16.835   1.204 +0.05 +0.00    +0.038 C  
DOCKED: BRANCH  12  13
DOCKED: ATOM     13  C   UNL     1     -33.034 -15.587   0.588 -0.17 +0.00    +0.038 C  
DOCKED: BRANCH  13  14
DOCKED: ATOM     14  C   UNL     1     -32.232 -15.105  -0.619 -0.09 +0.00    +0.251 C  
DOCKED: BRANCH  14  15
DOCKED: ATOM     15  N   UNL     1     -32.001 -13.668  -0.533 -0.03 +0.00    +0.141 N  
DOCKED: ATOM     16  C   UNL     1     -33.118 -12.929  -1.122 -0.07 +0.00    +0.285 C  
DOCKED: ATOM     17  C   UNL     1     -31.800 -13.260   0.859 -0.01 +0.00    +0.285 C  
DOCKED: ENDBRANCH  14  15
DOCKED: ENDBRANCH  13  14
DOCKED: ENDBRANCH  12  13
DOCKED: ENDBRANCH   2  12
DOCKED: BRANCH   2  18
DOCKED: ATOM     18  C   UNL     1     -30.365 -16.171   2.465 -0.03 +0.00    +0.006 A  
DOCKED: ATOM     19  C   UNL     1     -29.554 -16.803   1.524 -0.02 +0.00    +0.001 A  
DOCKED: ATOM     20  C   UNL     1     -28.205 -16.459   1.424 -0.00 +0.00    +0.029 A  
DOCKED: ATOM     21  C   UNL     1     -27.670 -15.484   2.263 +0.00 +0.00    +0.140 A  
DOCKED: ATOM     22  C   UNL     1     -28.482 -14.851   3.204 -0.00 +0.00    +0.029 A  
DOCKED: ATOM     23  F   UNL     1     -26.376 -15.152   2.165 +0.00 -0.00    -0.204 F  
DOCKED: ATOM     24  C   UNL     1     -29.831 -15.195   3.306 -0.01 +0.00    +0.001 A  
DOCKED: ENDBRANCH   2  18
DOCKED: TORSDOF 5
DOCKED: TER
DOCKED: ENDMDL
________________________________________________________________________________


    FINAL DOCKED STATE:
    ________________________


Run:   8 / 512
Time taken for this run:   0.002s

DOCKED: MODEL        8
DOCKED: USER    Run = 8
DOCKED: USER
DOCKED: USER    Estimated Free Energy of Binding    =  -5.16 kcal/mol  [=(1)+(2)+(3)-(4)]
DOCKED: USER
DOCKED: USER    (1) Final Intermolecular Energy     =  -6.65 kcal/mol
DOCKED: USER        vdW + Hbond + desolv Energy     =  -6.65 kcal/mol
DOCKED: USER        Electrostatic Energy            =  +0.00 kcal/mol
DOCKED: USER        Moving Ligand-Fixed Receptor    =  -6.65 kcal/mol
DOCKED: USER        Moving Ligand-Moving Receptor   =  +0.00 kcal/mol
DOCKED: USER    (2) Final Total Internal Energy     =  -1.04 kcal/mol
DOCKED: USER    (3) Torsional Free Energy           =  +1.49 kcal/mol
DOCKED: USER    (4) Unbound System's Energy         =  -1.04 kcal/mol
DOCKED: USER
DOCKED: USER
DOCKED: REMARK  5 active torsions:
DOCKED: REMARK  status: ('A' for Active; 'I' for Inactive)
DOCKED: REMARK    1  A    between atoms: C_2  and  C_19 
DOCKED: REMARK    2  A    between atoms: C_2  and  C_11 
DOCKED: REMARK    3  A    between atoms: C_19  and  C_20 
DOCKED: REMARK    4  A    between atoms: C_20  and  C_21 
DOCKED: REMARK    5  A    between atoms: C_21  and  N_22 
DOCKED: USER                              x       y       z     vdW  Elec       q    Type
DOCKED: USER                           _______ _______ _______ _____ _____    ______ ____
DOCKED: ROOT
DOCKED: ATOM      1  O   UNL     1     -38.474 -16.059  11.270 -0.06 -0.00    -0.346 OA 
DOCKED: ATOM      2  C   UNL     1     -38.153 -17.487  11.309 -0.22 +0.00    +0.130 C  
DOCKED: ATOM      3  C   UNL     1     -38.766 -18.027  10.050 -0.33 +0.00    +0.004 A  
DOCKED: ATOM      4  C   UNL     1     -39.294 -16.984   9.302 -0.32 +0.00    +0.006 A  
DOCKED: ATOM      5  C   UNL     1     -39.059 -15.699   9.997 -0.23 +0.00    +0.169 C  
DOCKED: ATOM      6  C   UNL     1     -38.841 -19.336   9.596 -0.42 -0.00    -0.001 A  
DOCKED: ATOM      7  C   UNL     1     -39.915 -17.211   8.086 -0.14 +0.00    +0.008 A  
DOCKED: ATOM      8  C   UNL     1     -39.467 -19.582   8.373 -0.43 +0.00    +0.010 A  
DOCKED: ATOM      9  C   UNL     1     -40.001 -18.525   7.622 -0.40 +0.00    +0.068 A  
DOCKED: ATOM     10  N   UNL     1     -41.153 -19.015   5.354 -2.54 -0.00    -0.191 NA 
DOCKED: ATOM     11  C   UNL     1     -40.637 -18.795   6.371 -0.49 +0.00    +0.101 C  
DOCKED: ENDROOT
DOCKED: BRANCH   2  12
DOCKED: ATOM     12  C   UNL     1     -36.637 -17.640  11.344 -0.15 +0.00    +0.038 C  
DOCKED: BRANCH  12  13
DOCKED: ATOM     13  C   UNL     1     -35.942 -16.284  11.451 -0.11 +0.00    +0.038 C  
DOCKED: BRANCH  13  14
DOCKED: ATOM     14  C   UNL     1     -34.542 -16.430  12.043 -0.09 +0.00    +0.251 C  
DOCKED: BRANCH  14  15
DOCKED: ATOM     15  N   UNL     1     -34.612 -16.527  13.496 -0.05 +0.00    +0.141 N  
DOCKED: ATOM     16  C   UNL     1     -33.488 -15.824  14.115 -0.01 +0.00    +0.285 C  
DOCKED: ATOM     17  C   UNL     1     -35.881 -15.988  13.988 -0.02 +0.00    +0.285 C  
DOCKED: ENDBRANCH  14  15
DOCKED: ENDBRANCH  13  14
DOCKED: ENDBRANCH  12  13
DOCKED: ENDBRANCH   2  12
DOCKED: BRANCH   2  18
DOCKED: ATOM     18  C   UNL     1     -38.779 -18.041  12.545 -0.16 +0.00    +0.006 A  
DOCKED: ATOM     19  C   UNL     1     -39.128 -17.188  13.592 -0.07 +0.00    +0.001 A  
DOCKED: ATOM     20  C   UNL     1     -39.713 -17.708  14.747 -0.06 +0.00    +0.029 A  
DOCKED: ATOM     21  C   UNL     1     -39.949 -19.078  14.854 -0.11 +0.00    +0.140 A  
DOCKED: ATOM     22  C   UNL     1     -39.601 -19.930  13.806 +0.02 +0.00    +0.029 A  
DOCKED: ATOM     23  F   UNL     1     -40.512 -19.576  15.962 -0.02 -0.00    -0.204 F  
DOCKED: ATOM     24  C   UNL     1     -39.015 -19.411  12.650 -0.25 +0.00    +0.001 A  
DOCKED: ENDBRANCH   2  18
DOCKED: TORSDOF 5
DOCKED: TER
DOCKED: ENDMDL
________________________________________________________________________________


    FINAL DOCKED STATE:
    ________________________


Run:   9 / 512
Time taken for this run:   0.002s

DOCKED: MODEL        9
DOCKED: USER    Run = 9
DOCKED: USER
DOCKED: USER    Estimated Free Energy of Binding    =  -4.06 kcal/mol  [=(1)+(2)+(3)-(4)]
DOCKED: USER
DOCKED: USER    (1) Final Intermolecular Energy     =  -5.55 kcal/mol
DOCKED: USER        vdW + Hbond + desolv Energy     =  -5.55 kcal/mol
DOCKED: USER        Electrostatic Energy            =  +0.00 kcal/mol
DOCKED: USER        Moving Ligand-Fixed Receptor    =  -5.55 kcal/mol
DOCKED: USER        Moving Ligand-Moving Receptor   =  +0.00 kcal/mol
DOCKED: USER    (2) Final Total Internal Energy     =  -1.40 kcal/mol
DOCKED: USER    (3) Torsional Free Energy           =  +1.49 kcal/mol
DOCKED: USER    (4) Unbound System's Energy         =  -1.40 kcal/mol
DOCKED: USER
DOCKED: USER
DOCKED: REMARK  5 active torsions:
DOCKED: REMARK  status: ('A' for Active; 'I' for Inactive)
DOCKED: REMARK    1  A    between atoms: C_2  and  C_19 
DOCKED: REMARK    2  A    between atoms: C_2  and  C_11 
DOCKED: REMARK    3  A    between atoms: C_19  and  C_20 
DOCKED: REMARK    4  A    between atoms: C_20  and  C_21 
DOCKED: REMARK    5  A    between atoms: C_21  and  N_22 
DOCKED: USER                              x       y       z     vdW  Elec       q    Type
DOCKED: USER                           _______ _______ _______ _____ _____    ______ ____
DOCKED: ROOT
DOCKED: ATOM      1  O   UNL     1     -30.774 -15.615   3.272 +0.01 -0.00    -0.346 OA 
DOCKED: ATOM      2  C   UNL     1     -32.130 -15.215   3.651 -0.07 +0.00    +0.130 C  
DOCKED: ATOM      3  C   UNL     1     -32.637 -16.379   4.452 -0.14 +0.00    +0.004 A  
DOCKED: ATOM      4  C   UNL     1     -31.624 -17.313   4.611 -0.10 +0.00    +0.006 A  
DOCKED: ATOM      5  C   UNL     1     -30.391 -16.835   3.948 -0.02 +0.00    +0.169 C  
DOCKED: ATOM      6  C   UNL     1     -33.892 -16.588   5.006 -0.30 -0.00    -0.001 A  
DOCKED: ATOM      7  C   UNL     1     -31.829 -18.485   5.320 -0.16 +0.00    +0.008 A  
DOCKED: ATOM      8  C   UNL     1     -34.116 -17.767   5.720 -0.27 +0.00    +0.010 A  
DOCKED: ATOM      9  C   UNL     1     -33.089 -18.710   5.876 -0.30 +0.00    +0.068 A  
DOCKED: ATOM     10  N   UNL     1     -33.536 -20.884   7.212 -2.54 -0.00    -0.191 NA 
DOCKED: ATOM     11  C   UNL     1     -33.336 -19.909   6.612 -0.37 +0.00    +0.101 C  
DOCKED: ENDROOT
DOCKED: BRANCH   2  12
DOCKED: ATOM     12  C   UNL     1     -32.044 -13.928   4.464 -0.03 +0.00    +0.038 C  
DOCKED: BRANCH  12  13
DOCKED: ATOM     13  C   UNL     1     -30.726 -13.841   5.231 -0.01 +0.00    +0.038 C  
DOCKED: BRANCH  13  14
DOCKED: ATOM     14  C   UNL     1     -30.880 -14.383   6.651 -0.01 +0.00    +0.251 C  
DOCKED: BRANCH  14  15
DOCKED: ATOM     15  N   UNL     1     -32.291 -14.464   7.013 -0.04 +0.00    +0.141 N  
DOCKED: ATOM     16  C   UNL     1     -32.502 -15.481   8.044 -0.07 +0.00    +0.285 C  
DOCKED: ATOM     17  C   UNL     1     -32.779 -13.163   7.475 -0.02 +0.00    +0.285 C  
DOCKED: ENDBRANCH  14  15
DOCKED: ENDBRANCH  13  14
DOCKED: ENDBRANCH  12  13
DOCKED: ENDBRANCH   2  12
DOCKED: BRANCH   2  18
DOCKED: ATOM     18  C   UNL     1     -32.892 -15.003   2.386 -0.14 +0.00    +0.006 A  
DOCKED: ATOM     19  C   UNL     1     -32.592 -15.763   1.256 -0.13 +0.00    +0.001 A  
DOCKED: ATOM     20  C   UNL     1     -33.306 -15.563   0.074 -0.17 +0.00    +0.029 A  
DOCKED: ATOM     21  C   UNL     1     -34.317 -14.605   0.023 -0.17 +0.00    +0.140 A  
DOCKED: ATOM     22  C   UNL     1     -34.617 -13.845   1.153 -0.18 +0.00    +0.029 A  
DOCKED: ATOM     23  F   UNL     1     -35.003 -14.415  -1.112 -0.15 -0.00    -0.204 F  
DOCKED: ATOM     24  C   UNL     1     -33.903 -14.044   2.337 -0.18 +0.00    +0.001 A  
DOCKED: ENDBRANCH   2  18
DOCKED: TORSDOF 5
DOCKED: TER
DOCKED: ENDMDL
________________________________________________________________________________


    FINAL DOCKED STATE:
    ________________________


Run:   10 / 512
Time taken for this run:   0.002s

DOCKED: MODEL        10
DOCKED: USER    Run = 10
DOCKED: USER
DOCKED: USER    Estimated Free Energy of Binding    =  -5.35 kcal/mol  [=(1)+(2)+(3)-(4)]
DOCKED: USER
DOCKED: USER    (1) Final Intermolecular Energy     =  -6.84 kcal/mol
DOCKED: USER        vdW + Hbond + desolv Energy     =  -6.84 kcal/mol
DOCKED: USER        Electrostatic Energy            =  +0.00 kcal/mol
DOCKED: USER        Moving Ligand-Fixed Receptor    =  -6.84 kcal/mol
DOCKED: USER        Moving Ligand-Moving Receptor   =  +0.00 kcal/mol
DOCKED: USER    (2) Final Total Internal Energy     =  -1.28 kcal/mol
DOCKED: USER    (3) Torsional Free Energy           =  +1.49 kcal/mol
DOCKED: USER    (4) Unbound System's Energy         =  -1.28 kcal/mol
DOCKED: USER
DOCKED: USER
DOCKED: REMARK  5 active torsions:
DOCKED: REMARK  status: ('A' for Active; 'I' for Inactive)
DOCKED: REMARK    1  A    between atoms: C_2  and  C_19 
DOCKED: REMARK    2  A    between atoms: C_2  and  C_11 
DOCKED: REMARK    3  A    between atoms: C_19  and  C_20 
DOCKED: REMARK    4  A    between atoms: C_20  and  C_21 
DOCKED: REMARK    5  A    between atoms: C_21  and  N_22 
DOCKED: USER                              x       y       z     vdW  Elec       q    Type
DOCKED: USER                           _______ _______ _______ _____ _____    ______ ____
DOCKED: ROOT
DOCKED: ATOM      1  O   UNL     1     -40.435 -19.027  12.178 -0.09 -0.00    -0.346 OA 
DOCKED: ATOM      2  C   UNL     1     -39.911 -17.745  11.704 -0.13 +0.00    +0.130 C  
DOCKED: ATOM      3  C   UNL     1     -40.056 -17.827  10.212 -0.27 +0.00    +0.004 A  
DOCKED: ATOM      4  C   UNL     1     -40.707 -19.004   9.870 -0.30 +0.00    +0.006 A  
DOCKED: ATOM      5  C   UNL     1     -41.044 -19.765  11.093 -0.11 +0.00    +0.169 C  
DOCKED: ATOM      6  C   UNL     1     -39.655 -16.926   9.236 -0.33 -0.00    -0.001 A  
DOCKED: ATOM      7  C   UNL     1     -40.974 -19.322   8.549 -0.42 +0.00    +0.008 A  
DOCKED: ATOM      8  C   UNL     1     -39.913 -17.234   7.899 -0.05 +0.00    +0.010 A  
DOCKED: ATOM      9  C   UNL     1     -40.569 -18.426   7.558 -0.40 +0.00    +0.068 A  
DOCKED: ATOM     10  N   UNL     1     -41.036 -18.966   5.067 -2.88 -0.00    -0.191 NA 
DOCKED: ATOM     11  C   UNL     1     -40.826 -18.724   6.184 -0.38 +0.00    +0.101 C  
DOCKED: ENDROOT
DOCKED: BRANCH   2  12
DOCKED: ATOM     12  C   UNL     1     -40.743 -16.626  12.321 -0.09 +0.00    +0.038 C  
DOCKED: BRANCH  12  13
DOCKED: ATOM     13  C   UNL     1     -42.225 -16.991  12.360 -0.10 +0.00    +0.038 C  
DOCKED: BRANCH  13  14
DOCKED: ATOM     14  C   UNL     1     -43.095 -15.802  11.958 -0.04 +0.00    +0.251 C  
DOCKED: BRANCH  14  15
DOCKED: ATOM     15  N   UNL     1     -43.055 -15.611  10.513 -0.17 +0.00    +0.141 N  
DOCKED: ATOM     16  C   UNL     1     -44.008 -16.500   9.848 -0.15 +0.00    +0.285 C  
DOCKED: ATOM     17  C   UNL     1     -43.337 -14.216  10.169 -0.13 +0.00    +0.285 C  
DOCKED: ENDBRANCH  14  15
DOCKED: ENDBRANCH  13  14
DOCKED: ENDBRANCH  12  13
DOCKED: ENDBRANCH   2  12
DOCKED: BRANCH   2  18
DOCKED: ATOM     18  C   UNL     1     -38.488 -17.665  12.146 -0.17 +0.00    +0.006 A  
DOCKED: ATOM     19  C   UNL     1     -37.462 -17.949  11.247 -0.25 +0.00    +0.001 A  
DOCKED: ATOM     20  C   UNL     1     -36.132 -17.874  11.662 -0.08 +0.00    +0.029 A  
DOCKED: ATOM     21  C   UNL     1     -35.830 -17.515  12.974 -0.09 +0.00    +0.140 A  
DOCKED: ATOM     22  C   UNL     1     -36.857 -17.230  13.874 -0.09 +0.00    +0.029 A  
DOCKED: ATOM     23  F   UNL     1     -34.553 -17.441  13.372 -0.02 -0.00    -0.204 F  
DOCKED: ATOM     24  C   UNL     1     -38.188 -17.306  13.460 -0.10 +0.00    +0.001 A  
DOCKED: ENDBRANCH   2  18
DOCKED: TORSDOF 5
DOCKED: TER
DOCKED: ENDMDL
________________________________________________________________________________


    FINAL DOCKED STATE:
    ________________________


Run:   11 / 512
Time taken for this run:   0.002s

DOCKED: MODEL        11
DOCKED: USER    Run = 11
DOCKED: USER
DOCKED: USER    Estimated Free Energy of Binding    =  -3.96 kcal/mol  [=(1)+(2)+(3)-(4)]
DOCKED: USER
DOCKED: USER    (1) Final Intermolecular Energy     =  -5.46 kcal/mol
DOCKED: USER        vdW + Hbond + desolv Energy     =  -5.46 kcal/mol
DOCKED: USER        Electrostatic Energy            =  +0.00 kcal/mol
DOCKED: USER        Moving Ligand-Fixed Receptor    =  -5.46 kcal/mol
DOCKED: USER        Moving Ligand-Moving Receptor   =  +0.00 kcal/mol
DOCKED: USER    (2) Final Total Internal Energy     =  -1.44 kcal/mol
DOCKED: USER    (3) Torsional Free Energy           =  +1.49 kcal/mol
DOCKED: USER    (4) Unbound System's Energy         =  -1.44 kcal/mol
DOCKED: USER
DOCKED: USER
DOCKED: REMARK  5 active torsions:
DOCKED: REMARK  status: ('A' for Active; 'I' for Inactive)
DOCKED: REMARK    1  A    between atoms: C_2  and  C_19 
DOCKED: REMARK    2  A    between atoms: C_2  and  C_11 
DOCKED: REMARK    3  A    between atoms: C_19  and  C_20 
DOCKED: REMARK    4  A    between atoms: C_20  and  C_21 
DOCKED: REMARK    5  A    between atoms: C_21  and  N_22 
DOCKED: USER                              x       y       z     vdW  Elec       q    Type
DOCKED: USER                           _______ _______ _______ _____ _____    ______ ____
DOCKED: ROOT
DOCKED: ATOM      1  O   UNL     1     -36.036 -16.418  12.147 -0.08 -0.00    -0.346 OA 
DOCKED: ATOM      2  C   UNL     1     -37.278 -15.646  12.195 -0.09 +0.00    +0.130 C  
DOCKED: ATOM      3  C   UNL     1     -38.259 -16.495  11.439 -0.18 +0.00    +0.004 A  
DOCKED: ATOM      4  C   UNL     1     -37.662 -17.696  11.085 -0.25 +0.00    +0.006 A  
DOCKED: ATOM      5  C   UNL     1     -36.269 -17.731  11.586 -0.06 +0.00    +0.169 C  
DOCKED: ATOM      6  C   UNL     1     -39.578 -16.230  11.101 -0.17 -0.00    -0.001 A  
DOCKED: ATOM      7  C   UNL     1     -38.355 -18.666  10.382 -0.35 +0.00    +0.008 A  
DOCKED: ATOM      8  C   UNL     1     -40.290 -17.196  10.389 -0.23 +0.00    +0.010 A  
DOCKED: ATOM      9  C   UNL     1     -39.681 -18.409  10.031 -0.28 +0.00    +0.068 A  
DOCKED: ATOM     10  N   UNL     1     -41.032 -20.184   8.713 -2.56 -0.00    -0.191 NA 
DOCKED: ATOM     11  C   UNL     1     -40.426 -19.387   9.304 -0.33 +0.00    +0.101 C  
DOCKED: ENDROOT
DOCKED: BRANCH   2  12
DOCKED: ATOM     12  C   UNL     1     -37.667 -15.448  13.656 -0.04 +0.00    +0.038 C  
DOCKED: BRANCH  12  13
DOCKED: ATOM     13  C   UNL     1     -37.650 -16.770  14.420 -0.06 +0.00    +0.038 C  
DOCKED: BRANCH  13  14
DOCKED: ATOM     14  C   UNL     1     -39.069 -17.271  14.683 -0.03 +0.00    +0.251 C  
DOCKED: BRANCH  14  15
DOCKED: ATOM     15  N   UNL     1     -39.251 -18.602  14.117 -0.11 +0.00    +0.141 N  
DOCKED: ATOM     16  C   UNL     1     -39.094 -19.628  15.149 -0.14 +0.00    +0.285 C  
DOCKED: ATOM     17  C   UNL     1     -40.565 -18.717  13.482 -0.08 +0.00    +0.285 C  
DOCKED: ENDBRANCH  14  15
DOCKED: ENDBRANCH  13  14
DOCKED: ENDBRANCH  12  13
DOCKED: ENDBRANCH   2  12
DOCKED: BRANCH   2  18
DOCKED: ATOM     18  C   UNL     1     -37.006 -14.339  11.529 -0.09 +0.00    +0.006 A  
DOCKED: ATOM     19  C   UNL     1     -37.337 -13.147  12.172 -0.03 +0.00    +0.001 A  
DOCKED: ATOM     20  C   UNL     1     -37.081 -11.925  11.547 -0.02 +0.00    +0.029 A  
DOCKED: ATOM     21  C   UNL     1     -36.495 -11.897  10.283 -0.03 +0.00    +0.140 A  
DOCKED: ATOM     22  C   UNL     1     -36.164 -13.090   9.641 -0.11 +0.00    +0.029 A  
DOCKED: ATOM     23  F   UNL     1     -36.249 -10.725   9.685 +0.00 -0.00    -0.204 F  
DOCKED: ATOM     24  C   UNL     1     -36.420 -14.313  10.264 -0.14 +0.00    +0.001 A  
DOCKED: ENDBRANCH   2  18
DOCKED: TORSDOF 5
DOCKED: TER
DOCKED: ENDMDL
________________________________________________________________________________


    FINAL DOCKED STATE:
    ________________________


Run:   12 / 512
Time taken for this run:   0.002s

DOCKED: MODEL        12
DOCKED: USER    Run = 12
DOCKED: USER
DOCKED: USER    Estimated Free Energy of Binding    =  -3.90 kcal/mol  [=(1)+(2)+(3)-(4)]
DOCKED: USER
DOCKED: USER    (1) Final Intermolecular Energy     =  -5.39 kcal/mol
DOCKED: USER        vdW + Hbond + desolv Energy     =  -5.39 kcal/mol
DOCKED: USER        Electrostatic Energy            =  +0.00 kcal/mol
DOCKED: USER        Moving Ligand-Fixed Receptor    =  -5.39 kcal/mol
DOCKED: USER        Moving Ligand-Moving Receptor   =  +0.00 kcal/mol
DOCKED: USER    (2) Final Total Internal Energy     =  -0.93 kcal/mol
DOCKED: USER    (3) Torsional Free Energy           =  +1.49 kcal/mol
DOCKED: USER    (4) Unbound System's Energy         =  -0.93 kcal/mol
DOCKED: USER
DOCKED: USER
DOCKED: REMARK  5 active torsions:
DOCKED: REMARK  status: ('A' for Active; 'I' for Inactive)
DOCKED: REMARK    1  A    between atoms: C_2  and  C_19 
DOCKED: REMARK    2  A    between atoms: C_2  and  C_11 
DOCKED: REMARK    3  A    between atoms: C_19  and  C_20 
DOCKED: REMARK    4  A    between atoms: C_20  and  C_21 
DOCKED: REMARK    5  A    between atoms: C_21  and  N_22 
DOCKED: USER                              x       y       z     vdW  Elec       q    Type
DOCKED: USER                           _______ _______ _______ _____ _____    ______ ____
DOCKED: ROOT
DOCKED: ATOM      1  O   UNL     1     -31.109 -19.756   1.265 -0.02 -0.00    -0.346 OA 
DOCKED: ATOM      2  C   UNL     1     -30.829 -18.557   2.056 -0.08 +0.00    +0.130 C  
DOCKED: ATOM      3  C   UNL     1     -31.411 -18.870   3.404 -0.13 +0.00    +0.004 A  
DOCKED: ATOM      4  C   UNL     1     -31.883 -20.175   3.416 -0.20 +0.00    +0.006 A  
DOCKED: ATOM      5  C   UNL     1     -31.639 -20.811   2.102 -0.11 +0.00    +0.169 C  
DOCKED: ATOM      6  C   UNL     1     -31.504 -18.069   4.532 -0.11 -0.00    -0.001 A  
DOCKED: ATOM      7  C   UNL     1     -32.465 -20.720   4.548 -0.30 +0.00    +0.008 A  
DOCKED: ATOM      8  C   UNL     1     -32.093 -18.602   5.680 -0.21 +0.00    +0.010 A  
DOCKED: ATOM      9  C   UNL     1     -32.571 -19.921   5.688 -0.31 +0.00    +0.068 A  
DOCKED: ATOM     10  N   UNL     1     -33.654 -20.881   7.837 -2.57 -0.00    -0.191 NA 
DOCKED: ATOM     11  C   UNL     1     -33.169 -20.450   6.872 -0.38 +0.00    +0.101 C  
DOCKED: ENDROOT
DOCKED: BRANCH   2  12
DOCKED: ATOM     12  C   UNL     1     -29.320 -18.346   2.095 -0.03 +0.00    +0.038 C  
DOCKED: BRANCH  12  13
DOCKED: ATOM     13  C   UNL     1     -28.705 -18.958   3.352 -0.04 +0.00    +0.038 C  
DOCKED: BRANCH  13  14
DOCKED: ATOM     14  C   UNL     1     -27.179 -18.894   3.305 -0.01 +0.00    +0.251 C  
DOCKED: BRANCH  14  15
DOCKED: ATOM     15  N   UNL     1     -26.604 -19.734   4.349 -0.04 +0.00    +0.141 N  
DOCKED: ATOM     16  C   UNL     1     -25.276 -19.248   4.728 -0.01 +0.00    +0.285 C  
DOCKED: ATOM     17  C   UNL     1     -27.482 -19.776   5.519 -0.04 +0.00    +0.285 C  
DOCKED: ENDBRANCH  14  15
DOCKED: ENDBRANCH  13  14
DOCKED: ENDBRANCH  12  13
DOCKED: ENDBRANCH   2  12
DOCKED: BRANCH   2  18
DOCKED: ATOM     18  C   UNL     1     -31.513 -17.418   1.377 -0.11 +0.00    +0.006 A  
DOCKED: ATOM     19  C   UNL     1     -31.800 -17.489   0.015 -0.08 +0.00    +0.001 A  
DOCKED: ATOM     20  C   UNL     1     -32.441 -16.423  -0.619 -0.16 +0.00    +0.029 A  
DOCKED: ATOM     21  C   UNL     1     -32.793 -15.289   0.111 -0.15 +0.00    +0.140 A  
DOCKED: ATOM     22  C   UNL     1     -32.506 -15.218   1.474 -0.13 +0.00    +0.029 A  
DOCKED: ATOM     23  F   UNL     1     -33.409 -14.266  -0.497 -0.05 -0.00    -0.204 F  
DOCKED: ATOM     24  C   UNL     1     -31.865 -16.284   2.108 -0.11 +0.00    +0.001 A  
DOCKED: ENDBRANCH   2  18
DOCKED: TORSDOF 5
DOCKED: TER
DOCKED: ENDMDL
________________________________________________________________________________


    FINAL DOCKED STATE:
    ________________________


Run:   13 / 512
Time taken for this run:   0.002s

DOCKED: MODEL        13
DOCKED: USER    Run = 13
DOCKED: USER
DOCKED: USER    Estimated Free Energy of Binding    =  -5.13 kcal/mol  [=(1)+(2)+(3)-(4)]
DOCKED: USER
DOCKED: USER    (1) Final Intermolecular Energy     =  -6.62 kcal/mol
DOCKED: USER        vdW + Hbond + desolv Energy     =  -6.62 kcal/mol
DOCKED: USER        Electrostatic Energy            =  +0.00 kcal/mol
DOCKED: USER        Moving Ligand-Fixed Receptor    =  -6.62 kcal/mol
DOCKED: USER        Moving Ligand-Moving Receptor   =  +0.00 kcal/mol
DOCKED: USER    (2) Final Total Internal Energy     =  -1.25 kcal/mol
DOCKED: USER    (3) Torsional Free Energy           =  +1.49 kcal/mol
DOCKED: USER    (4) Unbound System's Energy         =  -1.25 kcal/mol
DOCKED: USER
DOCKED: USER
DOCKED: REMARK  5 active torsions:
DOCKED: REMARK  status: ('A' for Active; 'I' for Inactive)
DOCKED: REMARK    1  A    between atoms: C_2  and  C_19 
DOCKED: REMARK    2  A    between atoms: C_2  and  C_11 
DOCKED: REMARK    3  A    between atoms: C_19  and  C_20 
DOCKED: REMARK    4  A    between atoms: C_20  and  C_21 
DOCKED: REMARK    5  A    between atoms: C_21  and  N_22 
DOCKED: USER                              x       y       z     vdW  Elec       q    Type
DOCKED: USER                           _______ _______ _______ _____ _____    ______ ____
DOCKED: ROOT
DOCKED: ATOM      1  O   UNL     1     -41.878 -16.680  11.799 -0.00 -0.00    -0.346 OA 
DOCKED: ATOM      2  C   UNL     1     -40.464 -17.003  11.606 -0.10 +0.00    +0.130 C  
DOCKED: ATOM      3  C   UNL     1     -40.412 -17.576  10.219 -0.25 +0.00    +0.004 A  
DOCKED: ATOM      4  C   UNL     1     -41.665 -17.486   9.630 -0.25 +0.00    +0.006 A  
DOCKED: ATOM      5  C   UNL     1     -42.616 -16.846  10.566 -0.16 +0.00    +0.169 C  
DOCKED: ATOM      6  C   UNL     1     -39.339 -18.123   9.530 -0.36 -0.00    -0.001 A  
DOCKED: ATOM      7  C   UNL     1     -41.890 -17.940   8.342 -0.14 +0.00    +0.008 A  
DOCKED: ATOM      8  C   UNL     1     -39.551 -18.589   8.232 -0.36 +0.00    +0.010 A  
DOCKED: ATOM      9  C   UNL     1     -40.819 -18.497   7.640 -0.38 +0.00    +0.068 A  
DOCKED: ATOM     10  N   UNL     1     -41.177 -19.368   5.226 -2.49 -0.00    -0.191 NA 
DOCKED: ATOM     11  C   UNL     1     -41.017 -18.978   6.309 -0.32 +0.00    +0.101 C  
DOCKED: ENDROOT
DOCKED: BRANCH   2  12
DOCKED: ATOM     12  C   UNL     1     -39.651 -15.722  11.749 -0.11 +0.00    +0.038 C  
DOCKED: BRANCH  12  13
DOCKED: ATOM     13  C   UNL     1     -39.940 -14.749  10.607 -0.21 +0.00    +0.038 C  
DOCKED: BRANCH  13  14
DOCKED: ATOM     14  C   UNL     1     -40.988 -13.717  11.016 -0.11 +0.00    +0.251 C  
DOCKED: BRANCH  14  15
DOCKED: ATOM     15  N   UNL     1     -41.822 -13.360   9.874 -0.22 +0.00    +0.141 N  
DOCKED: ATOM     16  C   UNL     1     -43.238 -13.561  10.185 -0.14 +0.00    +0.285 C  
DOCKED: ATOM     17  C   UNL     1     -41.582 -11.973   9.474 -0.12 +0.00    +0.285 C  
DOCKED: ENDBRANCH  14  15
DOCKED: ENDBRANCH  13  14
DOCKED: ENDBRANCH  12  13
DOCKED: ENDBRANCH   2  12
DOCKED: BRANCH   2  18
DOCKED: ATOM     18  C   UNL     1     -40.095 -17.995  12.659 -0.12 +0.00    +0.006 A  
DOCKED: ATOM     19  C   UNL     1     -41.092 -18.631  13.397 -0.14 +0.00    +0.001 A  
DOCKED: ATOM     20  C   UNL     1     -40.746 -19.557  14.381 -0.09 +0.00    +0.029 A  
DOCKED: ATOM     21  C   UNL     1     -39.405 -19.847  14.626 -0.13 +0.00    +0.140 A  
DOCKED: ATOM     22  C   UNL     1     -38.407 -19.210  13.887 -0.16 +0.00    +0.029 A  
DOCKED: ATOM     23  F   UNL     1     -39.073 -20.737  15.569 -0.08 -0.00    -0.204 F  
DOCKED: ATOM     24  C   UNL     1     -38.753 -18.283  12.902 -0.17 +0.00    +0.001 A  
DOCKED: ENDBRANCH   2  18
DOCKED: TORSDOF 5
DOCKED: TER
DOCKED: ENDMDL
________________________________________________________________________________


    FINAL DOCKED STATE:
    ________________________


Run:   14 / 512
Time taken for this run:   0.002s

DOCKED: MODEL        14
DOCKED: USER    Run = 14
DOCKED: USER
DOCKED: USER    Estimated Free Energy of Binding    =  -5.40 kcal/mol  [=(1)+(2)+(3)-(4)]
DOCKED: USER
DOCKED: USER    (1) Final Intermolecular Energy     =  -6.89 kcal/mol
DOCKED: USER        vdW + Hbond + desolv Energy     =  -6.89 kcal/mol
DOCKED: USER        Electrostatic Energy            =  +0.00 kcal/mol
DOCKED: USER        Moving Ligand-Fixed Receptor    =  -6.89 kcal/mol
DOCKED: USER        Moving Ligand-Moving Receptor   =  +0.00 kcal/mol
DOCKED: USER    (2) Final Total Internal Energy     =  -1.24 kcal/mol
DOCKED: USER    (3) Torsional Free Energy           =  +1.49 kcal/mol
DOCKED: USER    (4) Unbound System's Energy         =  -1.24 kcal/mol
DOCKED: USER
DOCKED: USER
DOCKED: REMARK  5 active torsions:
DOCKED: REMARK  status: ('A' for Active; 'I' for Inactive)
DOCKED: REMARK    1  A    between atoms: C_2  and  C_19 
DOCKED: REMARK    2  A    between atoms: C_2  and  C_11 
DOCKED: REMARK    3  A    between atoms: C_19  and  C_20 
DOCKED: REMARK    4  A    between atoms: C_20  and  C_21 
DOCKED: REMARK    5  A    between atoms: C_21  and  N_22 
DOCKED: USER                              x       y       z     vdW  Elec       q    Type
DOCKED: USER                           _______ _______ _______ _____ _____    ______ ____
DOCKED: ROOT
DOCKED: ATOM      1  O   UNL     1     -38.018 -19.502  11.667 -0.11 -0.00    -0.346 OA 
DOCKED: ATOM      2  C   UNL     1     -38.691 -18.204  11.593 -0.22 +0.00    +0.130 C  
DOCKED: ATOM      3  C   UNL     1     -39.274 -18.181  10.209 -0.32 +0.00    +0.004 A  
DOCKED: ATOM      4  C   UNL     1     -39.050 -19.401   9.588 -0.40 +0.00    +0.006 A  
DOCKED: ATOM      5  C   UNL     1     -38.326 -20.308  10.506 -0.04 +0.00    +0.169 C  
DOCKED: ATOM      6  C   UNL     1     -39.959 -17.165   9.558 -0.32 -0.00    -0.001 A  
DOCKED: ATOM      7  C   UNL     1     -39.495 -19.646   8.300 -0.44 +0.00    +0.008 A  
DOCKED: ATOM      8  C   UNL     1     -40.410 -17.395   8.257 -0.04 +0.00    +0.010 A  
DOCKED: ATOM      9  C   UNL     1     -40.180 -18.630   7.632 -0.42 +0.00    +0.068 A  
DOCKED: ATOM     10  N   UNL     1     -41.035 -19.025   5.218 -2.69 -0.00    -0.191 NA 
DOCKED: ATOM     11  C   UNL     1     -40.651 -18.848   6.300 -0.48 +0.00    +0.101 C  
DOCKED: ENDROOT
DOCKED: BRANCH   2  12
DOCKED: ATOM     12  C   UNL     1     -39.752 -18.147  12.685 -0.16 +0.00    +0.038 C  
DOCKED: BRANCH  12  13
DOCKED: ATOM     13  C   UNL     1     -39.366 -19.013  13.882 -0.21 +0.00    +0.038 C  
DOCKED: BRANCH  13  14
DOCKED: ATOM     14  C   UNL     1     -38.913 -18.152  15.060 -0.06 +0.00    +0.251 C  
DOCKED: BRANCH  14  15
DOCKED: ATOM     15  N   UNL     1     -38.195 -18.964  16.035 -0.09 +0.00    +0.141 N  
DOCKED: ATOM     16  C   UNL     1     -36.950 -19.480  15.462 -0.09 +0.00    +0.285 C  
DOCKED: ATOM     17  C   UNL     1     -37.913 -18.189  17.244 -0.01 +0.00    +0.285 C  
DOCKED: ENDBRANCH  14  15
DOCKED: ENDBRANCH  13  14
DOCKED: ENDBRANCH  12  13
DOCKED: ENDBRANCH   2  12
DOCKED: BRANCH   2  18
DOCKED: ATOM     18  C   UNL     1     -37.647 -17.159  11.801 -0.20 +0.00    +0.006 A  
DOCKED: ATOM     19  C   UNL     1     -38.022 -15.842  12.067 -0.11 +0.00    +0.001 A  
DOCKED: ATOM     20  C   UNL     1     -37.045 -14.866  12.261 -0.06 +0.00    +0.029 A  
DOCKED: ATOM     21  C   UNL     1     -35.695 -15.206  12.190 -0.06 +0.00    +0.140 A  
DOCKED: ATOM     22  C   UNL     1     -35.320 -16.523  11.925 -0.14 +0.00    +0.029 A  
DOCKED: ATOM     23  F   UNL     1     -34.757 -14.269  12.379 -0.00 -0.00    -0.204 F  
DOCKED: ATOM     24  C   UNL     1     -36.297 -17.501  11.730 -0.20 +0.00    +0.001 A  
DOCKED: ENDBRANCH   2  18
DOCKED: TORSDOF 5
DOCKED: TER
DOCKED: ENDMDL
________________________________________________________________________________


    FINAL DOCKED STATE:
    ________________________


Run:   15 / 512
Time taken for this run:   0.002s

DOCKED: MODEL        15
DOCKED: USER    Run = 15
DOCKED: USER
DOCKED: USER    Estimated Free Energy of Binding    =  -4.90 kcal/mol  [=(1)+(2)+(3)-(4)]
DOCKED: USER
DOCKED: USER    (1) Final Intermolecular Energy     =  -6.39 kcal/mol
DOCKED: USER        vdW + Hbond + desolv Energy     =  -6.39 kcal/mol
DOCKED: USER        Electrostatic Energy            =  +0.00 kcal/mol
DOCKED: USER        Moving Ligand-Fixed Receptor    =  -6.39 kcal/mol
DOCKED: USER        Moving Ligand-Moving Receptor   =  +0.00 kcal/mol
DOCKED: USER    (2) Final Total Internal Energy     =  -1.11 kcal/mol
DOCKED: USER    (3) Torsional Free Energy           =  +1.49 kcal/mol
DOCKED: USER    (4) Unbound System's Energy         =  -1.11 kcal/mol
DOCKED: USER
DOCKED: USER
DOCKED: REMARK  5 active torsions:
DOCKED: REMARK  status: ('A' for Active; 'I' for Inactive)
DOCKED: REMARK    1  A    between atoms: C_2  and  C_19 
DOCKED: REMARK    2  A    between atoms: C_2  and  C_11 
DOCKED: REMARK    3  A    between atoms: C_19  and  C_20 
DOCKED: REMARK    4  A    between atoms: C_20  and  C_21 
DOCKED: REMARK    5  A    between atoms: C_21  and  N_22 
DOCKED: USER                              x       y       z     vdW  Elec       q    Type
DOCKED: USER                           _______ _______ _______ _____ _____    ______ ____
DOCKED: ROOT
DOCKED: ATOM      1  O   UNL     1     -40.168 -16.132  11.872 -0.01 -0.00    -0.346 OA 
DOCKED: ATOM      2  C   UNL     1     -39.177 -17.208  11.800 -0.13 +0.00    +0.130 C  
DOCKED: ATOM      3  C   UNL     1     -39.438 -17.847  10.467 -0.28 +0.00    +0.004 A  
DOCKED: ATOM      4  C   UNL     1     -40.416 -17.132   9.789 -0.28 +0.00    +0.006 A  
DOCKED: ATOM      5  C   UNL     1     -40.854 -15.980  10.608 -0.17 +0.00    +0.169 C  
DOCKED: ATOM      6  C   UNL     1     -38.849 -18.965   9.895 -0.40 -0.00    -0.001 A  
DOCKED: ATOM      7  C   UNL     1     -40.839 -17.510   8.526 -0.10 +0.00    +0.008 A  
DOCKED: ATOM      8  C   UNL     1     -39.268 -19.361   8.624 -0.39 +0.00    +0.010 A  
DOCKED: ATOM      9  C   UNL     1     -40.258 -18.636   7.943 -0.42 +0.00    +0.068 A  
DOCKED: ATOM     10  N   UNL     1     -41.010 -19.396   5.582 -2.11 -0.00    -0.191 NA 
DOCKED: ATOM     11  C   UNL     1     -40.673 -19.056   6.641 -0.51 +0.00    +0.101 C  
DOCKED: ENDROOT
DOCKED: BRANCH   2  12
DOCKED: ATOM     12  C   UNL     1     -37.787 -16.591  11.901 -0.17 +0.00    +0.038 C  
DOCKED: BRANCH  12  13
DOCKED: ATOM     13  C   UNL     1     -37.422 -15.830  10.628 -0.14 +0.00    +0.038 C  
DOCKED: BRANCH  13  14
DOCKED: ATOM     14  C   UNL     1     -36.992 -14.399  10.948 -0.10 +0.00    +0.251 C  
DOCKED: BRANCH  14  15
DOCKED: ATOM     15  N   UNL     1     -37.373 -13.501   9.865 -0.13 +0.00    +0.141 N  
DOCKED: ATOM     16  C   UNL     1     -37.765 -12.193  10.393 -0.05 +0.00    +0.285 C  
DOCKED: ATOM     17  C   UNL     1     -36.276 -13.353   8.907 -0.11 +0.00    +0.285 C  
DOCKED: ENDBRANCH  14  15
DOCKED: ENDBRANCH  13  14
DOCKED: ENDBRANCH  12  13
DOCKED: ENDBRANCH   2  12
DOCKED: BRANCH   2  18
DOCKED: ATOM     18  C   UNL     1     -39.444 -18.124  12.947 -0.14 +0.00    +0.006 A  
DOCKED: ATOM     19  C   UNL     1     -40.674 -18.080  13.603 -0.10 +0.00    +0.001 A  
DOCKED: ATOM     20  C   UNL     1     -40.922 -18.937  14.675 -0.12 +0.00    +0.029 A  
DOCKED: ATOM     21  C   UNL     1     -39.942 -19.838  15.089 -0.10 +0.00    +0.140 A  
DOCKED: ATOM     22  C   UNL     1     -38.712 -19.882  14.433 -0.23 +0.00    +0.029 A  
DOCKED: ATOM     23  F   UNL     1     -40.181 -20.662  16.118 -0.04 -0.00    -0.204 F  
DOCKED: ATOM     24  C   UNL     1     -38.463 -19.024  13.360 -0.16 +0.00    +0.001 A  
DOCKED: ENDBRANCH   2  18
DOCKED: TORSDOF 5
DOCKED: TER
DOCKED: ENDMDL
________________________________________________________________________________


    FINAL DOCKED STATE:
    ________________________


Run:   16 / 512
Time taken for this run:   0.002s

DOCKED: MODEL        16
DOCKED: USER    Run = 16
DOCKED: USER
DOCKED: USER    Estimated Free Energy of Binding    =  -3.70 kcal/mol  [=(1)+(2)+(3)-(4)]
DOCKED: USER
DOCKED: USER    (1) Final Intermolecular Energy     =  -5.20 kcal/mol
DOCKED: USER        vdW + Hbond + desolv Energy     =  -5.20 kcal/mol
DOCKED: USER        Electrostatic Energy            =  +0.00 kcal/mol
DOCKED: USER        Moving Ligand-Fixed Receptor    =  -5.20 kcal/mol
DOCKED: USER        Moving Ligand-Moving Receptor   =  +0.00 kcal/mol
DOCKED: USER    (2) Final Total Internal Energy     =  -1.34 kcal/mol
DOCKED: USER    (3) Torsional Free Energy           =  +1.49 kcal/mol
DOCKED: USER    (4) Unbound System's Energy         =  -1.34 kcal/mol
DOCKED: USER
DOCKED: USER
DOCKED: REMARK  5 active torsions:
DOCKED: REMARK  status: ('A' for Active; 'I' for Inactive)
DOCKED: REMARK    1  A    between atoms: C_2  and  C_19 
DOCKED: REMARK    2  A    between atoms: C_2  and  C_11 
DOCKED: REMARK    3  A    between atoms: C_19  and  C_20 
DOCKED: REMARK    4  A    between atoms: C_20  and  C_21 
DOCKED: REMARK    5  A    between atoms: C_21  and  N_22 
DOCKED: USER                              x       y       z     vdW  Elec       q    Type
DOCKED: USER                           _______ _______ _______ _____ _____    ______ ____
DOCKED: ROOT
DOCKED: ATOM      1  O   UNL     1     -32.941  -5.619   2.601 -0.08 -0.00    -0.346 OA 
DOCKED: ATOM      2  C   UNL     1     -32.547  -6.806   1.840 -0.10 +0.00    +0.130 C  
DOCKED: ATOM      3  C   UNL     1     -33.701  -7.035   0.908 -0.15 +0.00    +0.004 A  
DOCKED: ATOM      4  C   UNL     1     -34.624  -6.008   1.046 -0.25 +0.00    +0.006 A  
DOCKED: ATOM      5  C   UNL     1     -34.146  -5.035   2.054 -0.18 +0.00    +0.169 C  
DOCKED: ATOM      6  C   UNL     1     -33.913  -8.064   0.003 -0.11 -0.00    -0.001 A  
DOCKED: ATOM      7  C   UNL     1     -35.785  -5.976   0.292 -0.19 +0.00    +0.008 A  
DOCKED: ATOM      8  C   UNL     1     -35.081  -8.049  -0.762 -0.23 +0.00    +0.010 A  
DOCKED: ATOM      9  C   UNL     1     -36.012  -7.009  -0.618 -0.35 +0.00    +0.068 A  
DOCKED: ATOM     10  N   UNL     1     -38.167  -7.007  -2.056 -2.55 -0.00    -0.191 NA 
DOCKED: ATOM     11  C   UNL     1     -37.201  -7.008  -1.410 -0.44 +0.00    +0.101 C  
DOCKED: ENDROOT
DOCKED: BRANCH   2  12
DOCKED: ATOM     12  C   UNL     1     -31.245  -6.499   1.108 -0.04 +0.00    +0.038 C  
DOCKED: BRANCH  12  13
DOCKED: ATOM     13  C   UNL     1     -31.086  -5.001   0.859 -0.05 +0.00    +0.038 C  
DOCKED: BRANCH  13  14
DOCKED: ATOM     14  C   UNL     1     -31.054  -4.693  -0.637 -0.03 +0.00    +0.251 C  
DOCKED: BRANCH  14  15
DOCKED: ATOM     15  N   UNL     1     -31.208  -5.919  -1.411 -0.04 +0.00    +0.141 N  
DOCKED: ATOM     16  C   UNL     1     -32.145  -5.717  -2.517 -0.03 +0.00    +0.285 C  
DOCKED: ATOM     17  C   UNL     1     -29.913  -6.374  -1.919 +0.00 +0.00    +0.285 C  
DOCKED: ENDBRANCH  14  15
DOCKED: ENDBRANCH  13  14
DOCKED: ENDBRANCH  12  13
DOCKED: ENDBRANCH   2  12
DOCKED: BRANCH   2  18
DOCKED: ATOM     18  C   UNL     1     -32.363  -7.914   2.823 -0.10 +0.00    +0.006 A  
DOCKED: ATOM     19  C   UNL     1     -33.467  -8.441   3.491 -0.14 +0.00    +0.001 A  
DOCKED: ATOM     20  C   UNL     1     -33.294  -9.477   4.410 -0.09 +0.00    +0.029 A  
DOCKED: ATOM     21  C   UNL     1     -32.019  -9.983   4.659 -0.02 +0.00    +0.140 A  
DOCKED: ATOM     22  C   UNL     1     -30.916  -9.455   3.989 -0.02 +0.00    +0.029 A  
DOCKED: ATOM     23  F   UNL     1     -31.854 -10.979   5.540 +0.00 -0.00    -0.204 F  
DOCKED: ATOM     24  C   UNL     1     -31.088  -8.419   3.070 -0.03 +0.00    +0.001 A  
DOCKED: ENDBRANCH   2  18
DOCKED: TORSDOF 5
DOCKED: TER
DOCKED: ENDMDL
________________________________________________________________________________


    FINAL DOCKED STATE:
    ________________________


Run:   17 / 512
Time taken for this run:   0.002s

DOCKED: MODEL        17
DOCKED: USER    Run = 17
DOCKED: USER
DOCKED: USER    Estimated Free Energy of Binding    =  -6.64 kcal/mol  [=(1)+(2)+(3)-(4)]
DOCKED: USER
DOCKED: USER    (1) Final Intermolecular Energy     =  -8.13 kcal/mol
DOCKED: USER        vdW + Hbond + desolv Energy     =  -8.13 kcal/mol
DOCKED: USER        Electrostatic Energy            =  +0.00 kcal/mol
DOCKED: USER        Moving Ligand-Fixed Receptor    =  -8.13 kcal/mol
DOCKED: USER        Moving Ligand-Moving Receptor   =  +0.00 kcal/mol
DOCKED: USER    (2) Final Total Internal Energy     =  -1.06 kcal/mol
DOCKED: USER    (3) Torsional Free Energy           =  +1.49 kcal/mol
DOCKED: USER    (4) Unbound System's Energy         =  -1.06 kcal/mol
DOCKED: USER
DOCKED: USER
DOCKED: REMARK  5 active torsions:
DOCKED: REMARK  status: ('A' for Active; 'I' for Inactive)
DOCKED: REMARK    1  A    between atoms: C_2  and  C_19 
DOCKED: REMARK    2  A    between atoms: C_2  and  C_11 
DOCKED: REMARK    3  A    between atoms: C_19  and  C_20 
DOCKED: REMARK    4  A    between atoms: C_20  and  C_21 
DOCKED: REMARK    5  A    between atoms: C_21  and  N_22 
DOCKED: USER                              x       y       z     vdW  Elec       q    Type
DOCKED: USER                           _______ _______ _______ _____ _____    ______ ____
DOCKED: ROOT
DOCKED: ATOM      1  O   UNL     1     -38.081 -19.899  10.853 -0.45 -0.00    -0.346 OA 
DOCKED: ATOM      2  C   UNL     1     -39.064 -18.829  11.027 -0.28 +0.00    +0.130 C  
DOCKED: ATOM      3  C   UNL     1     -39.696 -18.698   9.672 -0.37 +0.00    +0.004 A  
DOCKED: ATOM      4  C   UNL     1     -39.198 -19.680   8.827 -0.41 +0.00    +0.006 A  
DOCKED: ATOM      5  C   UNL     1     -38.226 -20.524   9.557 -0.06 +0.00    +0.169 C  
DOCKED: ATOM      6  C   UNL     1     -40.645 -17.790   9.225 -0.33 -0.00    -0.001 A  
DOCKED: ATOM      7  C   UNL     1     -39.624 -19.785   7.514 -0.36 +0.00    +0.008 A  
DOCKED: ATOM      8  C   UNL     1     -41.082 -17.880   7.902 -0.10 +0.00    +0.010 A  
DOCKED: ATOM      9  C   UNL     1     -40.574 -18.873   7.051 -0.46 +0.00    +0.068 A  
DOCKED: ATOM     10  N   UNL     1     -41.409 -19.017   4.603 -3.33 -0.00    -0.191 NA 
DOCKED: ATOM     11  C   UNL     1     -41.034 -18.952   5.701 -0.29 +0.00    +0.101 C  
DOCKED: ENDROOT
DOCKED: BRANCH   2  12
DOCKED: ATOM     12  C   UNL     1     -40.054 -19.254  12.105 -0.27 +0.00    +0.038 C  
DOCKED: BRANCH  12  13
DOCKED: ATOM     13  C   UNL     1     -40.432 -18.081  13.007 -0.13 +0.00    +0.038 C  
DOCKED: BRANCH  13  14
DOCKED: ATOM     14  C   UNL     1     -40.307 -18.459  14.482 -0.06 +0.00    +0.251 C  
DOCKED: BRANCH  14  15
DOCKED: ATOM     15  N   UNL     1     -38.953 -18.914  14.776 -0.12 +0.00    +0.141 N  
DOCKED: ATOM     16  C   UNL     1     -38.172 -17.842  15.395 -0.04 +0.00    +0.285 C  
DOCKED: ATOM     17  C   UNL     1     -38.982 -20.090  15.647 -0.15 +0.00    +0.285 C  
DOCKED: ENDBRANCH  14  15
DOCKED: ENDBRANCH  13  14
DOCKED: ENDBRANCH  12  13
DOCKED: ENDBRANCH   2  12
DOCKED: BRANCH   2  18
DOCKED: ATOM     18  C   UNL     1     -38.312 -17.607  11.438 -0.23 +0.00    +0.006 A  
DOCKED: ATOM     19  C   UNL     1     -38.876 -16.346  11.253 -0.17 +0.00    +0.001 A  
DOCKED: ATOM     20  C   UNL     1     -38.172 -15.205  11.638 -0.11 +0.00    +0.029 A  
DOCKED: ATOM     21  C   UNL     1     -36.905 -15.326  12.207 -0.07 +0.00    +0.140 A  
DOCKED: ATOM     22  C   UNL     1     -36.340 -16.588  12.391 -0.14 +0.00    +0.029 A  
DOCKED: ATOM     23  F   UNL     1     -36.229 -14.231  12.577 -0.00 -0.00    -0.204 F  
DOCKED: ATOM     24  C   UNL     1     -37.044 -17.731  12.007 -0.19 +0.00    +0.001 A  
DOCKED: ENDBRANCH   2  18
DOCKED: TORSDOF 5
DOCKED: TER
DOCKED: ENDMDL
________________________________________________________________________________


    FINAL DOCKED STATE:
    ________________________


Run:   18 / 512
Time taken for this run:   0.002s

DOCKED: MODEL        18
DOCKED: USER    Run = 18
DOCKED: USER
DOCKED: USER    Estimated Free Energy of Binding    =  -3.86 kcal/mol  [=(1)+(2)+(3)-(4)]
DOCKED: USER
DOCKED: USER    (1) Final Intermolecular Energy     =  -5.35 kcal/mol
DOCKED: USER        vdW + Hbond + desolv Energy     =  -5.35 kcal/mol
DOCKED: USER        Electrostatic Energy            =  +0.00 kcal/mol
DOCKED: USER        Moving Ligand-Fixed Receptor    =  -5.35 kcal/mol
DOCKED: USER        Moving Ligand-Moving Receptor   =  +0.00 kcal/mol
DOCKED: USER    (2) Final Total Internal Energy     =  -1.39 kcal/mol
DOCKED: USER    (3) Torsional Free Energy           =  +1.49 kcal/mol
DOCKED: USER    (4) Unbound System's Energy         =  -1.39 kcal/mol
DOCKED: USER
DOCKED: USER
DOCKED: REMARK  5 active torsions:
DOCKED: REMARK  status: ('A' for Active; 'I' for Inactive)
DOCKED: REMARK    1  A    between atoms: C_2  and  C_19 
DOCKED: REMARK    2  A    between atoms: C_2  and  C_11 
DOCKED: REMARK    3  A    between atoms: C_19  and  C_20 
DOCKED: REMARK    4  A    between atoms: C_20  and  C_21 
DOCKED: REMARK    5  A    between atoms: C_21  and  N_22 
DOCKED: USER                              x       y       z     vdW  Elec       q    Type
DOCKED: USER                           _______ _______ _______ _____ _____    ______ ____
DOCKED: ROOT
DOCKED: ATOM      1  O   UNL     1     -37.336 -17.608  13.766 -0.05 -0.00    -0.346 OA 
DOCKED: ATOM      2  C   UNL     1     -37.239 -16.680  12.639 -0.12 +0.00    +0.130 C  
DOCKED: ATOM      3  C   UNL     1     -38.022 -17.354  11.549 -0.22 +0.00    +0.004 A  
DOCKED: ATOM      4  C   UNL     1     -38.608 -18.511  12.043 -0.22 +0.00    +0.006 A  
DOCKED: ATOM      5  C   UNL     1     -38.269 -18.674  13.475 -0.11 +0.00    +0.169 C  
DOCKED: ATOM      6  C   UNL     1     -38.209 -16.968  10.230 -0.19 -0.00    -0.001 A  
DOCKED: ATOM      7  C   UNL     1     -39.393 -19.320  11.240 -0.29 +0.00    +0.008 A  
DOCKED: ATOM      8  C   UNL     1     -38.995 -17.775   9.406 -0.31 +0.00    +0.010 A  
DOCKED: ATOM      9  C   UNL     1     -39.585 -18.945   9.909 -0.31 +0.00    +0.068 A  
DOCKED: ATOM     10  N   UNL     1     -41.042 -20.419   8.354 -2.30 -0.00    -0.191 NA 
DOCKED: ATOM     11  C   UNL     1     -40.388 -19.758   9.052 -0.22 +0.00    +0.101 C  
DOCKED: ENDROOT
DOCKED: BRANCH   2  12
DOCKED: ATOM     12  C   UNL     1     -37.838 -15.343  13.060 -0.05 +0.00    +0.038 C  
DOCKED: BRANCH  12  13
DOCKED: ATOM     13  C   UNL     1     -39.276 -15.507  13.549 -0.04 +0.00    +0.038 C  
DOCKED: BRANCH  13  14
DOCKED: ATOM     14  C   UNL     1     -40.170 -14.393  13.010 -0.01 +0.00    +0.251 C  
DOCKED: BRANCH  14  15
DOCKED: ATOM     15  N   UNL     1     -41.086 -14.919  12.005 -0.05 +0.00    +0.141 N  
DOCKED: ATOM     16  C   UNL     1     -40.607 -14.608  10.657 -0.14 +0.00    +0.285 C  
DOCKED: ATOM     17  C   UNL     1     -41.250 -16.365  12.164 -0.02 +0.00    +0.285 C  
DOCKED: ENDBRANCH  14  15
DOCKED: ENDBRANCH  13  14
DOCKED: ENDBRANCH  12  13
DOCKED: ENDBRANCH   2  12
DOCKED: BRANCH   2  18
DOCKED: ATOM     18  C   UNL     1     -35.789 -16.540  12.312 -0.14 +0.00    +0.006 A  
DOCKED: ATOM     19  C   UNL     1     -34.886 -17.521  12.720 -0.15 +0.00    +0.001 A  
DOCKED: ATOM     20  C   UNL     1     -33.531 -17.390  12.414 -0.13 +0.00    +0.029 A  
DOCKED: ATOM     21  C   UNL     1     -33.081 -16.279  11.702 -0.07 +0.00    +0.140 A  
DOCKED: ATOM     22  C   UNL     1     -33.985 -15.299  11.294 -0.09 +0.00    +0.029 A  
DOCKED: ATOM     23  F   UNL     1     -31.781 -16.154  11.407 -0.00 -0.00    -0.204 F  
DOCKED: ATOM     24  C   UNL     1     -35.341 -15.429  11.600 -0.11 +0.00    +0.001 A  
DOCKED: ENDBRANCH   2  18
DOCKED: TORSDOF 5
DOCKED: TER
DOCKED: ENDMDL
________________________________________________________________________________


    FINAL DOCKED STATE:
    ________________________


Run:   19 / 512
Time taken for this run:   0.002s

DOCKED: MODEL        19
DOCKED: USER    Run = 19
DOCKED: USER
DOCKED: USER    Estimated Free Energy of Binding    =  -3.62 kcal/mol  [=(1)+(2)+(3)-(4)]
DOCKED: USER
DOCKED: USER    (1) Final Intermolecular Energy     =  -5.11 kcal/mol
DOCKED: USER        vdW + Hbond + desolv Energy     =  -5.11 kcal/mol
DOCKED: USER        Electrostatic Energy            =  +0.00 kcal/mol
DOCKED: USER        Moving Ligand-Fixed Receptor    =  -5.11 kcal/mol
DOCKED: USER        Moving Ligand-Moving Receptor   =  +0.00 kcal/mol
DOCKED: USER    (2) Final Total Internal Energy     =  -1.35 kcal/mol
DOCKED: USER    (3) Torsional Free Energy           =  +1.49 kcal/mol
DOCKED: USER    (4) Unbound System's Energy         =  -1.35 kcal/mol
DOCKED: USER
DOCKED: USER
DOCKED: REMARK  5 active torsions:
DOCKED: REMARK  status: ('A' for Active; 'I' for Inactive)
DOCKED: REMARK    1  A    between atoms: C_2  and  C_19 
DOCKED: REMARK    2  A    between atoms: C_2  and  C_11 
DOCKED: REMARK    3  A    between atoms: C_19  and  C_20 
DOCKED: REMARK    4  A    between atoms: C_20  and  C_21 
DOCKED: REMARK    5  A    between atoms: C_21  and  N_22 
DOCKED: USER                              x       y       z     vdW  Elec       q    Type
DOCKED: USER                           _______ _______ _______ _____ _____    ______ ____
DOCKED: ROOT
DOCKED: ATOM      1  O   UNL     1     -31.787  -6.331   1.048 -0.00 -0.00    -0.346 OA 
DOCKED: ATOM      2  C   UNL     1     -32.219  -7.665   1.467 -0.05 +0.00    +0.130 C  
DOCKED: ATOM      3  C   UNL     1     -33.617  -7.775   0.931 -0.11 +0.00    +0.004 A  
DOCKED: ATOM      4  C   UNL     1     -33.918  -6.649   0.178 -0.17 +0.00    +0.006 A  
DOCKED: ATOM      5  C   UNL     1     -32.754  -5.735   0.152 -0.09 +0.00    +0.169 C  
DOCKED: ATOM      6  C   UNL     1     -34.544  -8.795   1.088 -0.16 -0.00    -0.001 A  
DOCKED: ATOM      7  C   UNL     1     -35.150  -6.502  -0.437 -0.27 +0.00    +0.008 A  
DOCKED: ATOM      8  C   UNL     1     -35.792  -8.659   0.478 -0.27 +0.00    +0.010 A  
DOCKED: ATOM      9  C   UNL     1     -36.093  -7.518  -0.282 -0.32 +0.00    +0.068 A  
DOCKED: ATOM     10  N   UNL     1     -38.418  -7.301  -1.405 -2.47 -0.00    -0.191 NA 
DOCKED: ATOM     11  C   UNL     1     -37.375  -7.398  -0.901 -0.43 +0.00    +0.101 C  
DOCKED: ENDROOT
DOCKED: BRANCH   2  12
DOCKED: ATOM     12  C   UNL     1     -31.269  -8.692   0.862 -0.02 +0.00    +0.038 C  
DOCKED: BRANCH  12  13
DOCKED: ATOM     13  C   UNL     1     -31.434  -8.778  -0.654 -0.02 +0.00    +0.038 C  
DOCKED: BRANCH  13  14
DOCKED: ATOM     14  C   UNL     1     -32.187 -10.046  -1.054 -0.01 +0.00    +0.251 C  
DOCKED: BRANCH  14  15
DOCKED: ATOM     15  N   UNL     1     -33.267  -9.724  -1.979 -0.08 +0.00    +0.141 N  
DOCKED: ATOM     16  C   UNL     1     -32.747  -9.526  -3.332 -0.04 +0.00    +0.285 C  
DOCKED: ATOM     17  C   UNL     1     -34.281 -10.780  -1.974 -0.07 +0.00    +0.285 C  
DOCKED: ENDBRANCH  14  15
DOCKED: ENDBRANCH  13  14
DOCKED: ENDBRANCH  12  13
DOCKED: ENDBRANCH   2  12
DOCKED: BRANCH   2  18
DOCKED: ATOM     18  C   UNL     1     -32.164  -7.694   2.958 -0.09 +0.00    +0.006 A  
DOCKED: ATOM     19  C   UNL     1     -32.767  -8.738   3.658 -0.10 +0.00    +0.001 A  
DOCKED: ATOM     20  C   UNL     1     -32.715  -8.763   5.052 -0.09 +0.00    +0.029 A  
DOCKED: ATOM     21  C   UNL     1     -32.060  -7.745   5.744 -0.06 +0.00    +0.140 A  
DOCKED: ATOM     22  C   UNL     1     -31.456  -6.701   5.043 -0.07 +0.00    +0.029 A  
DOCKED: ATOM     23  F   UNL     1     -32.008  -7.771   7.082 -0.03 -0.00    -0.204 F  
DOCKED: ATOM     24  C   UNL     1     -31.508  -6.675   3.648 -0.09 +0.00    +0.001 A  
DOCKED: ENDBRANCH   2  18
DOCKED: TORSDOF 5
DOCKED: TER
DOCKED: ENDMDL
________________________________________________________________________________


    FINAL DOCKED STATE:
    ________________________


Run:   20 / 512
Time taken for this run:   0.002s

DOCKED: MODEL        20
DOCKED: USER    Run = 20
DOCKED: USER
DOCKED: USER    Estimated Free Energy of Binding    =  -3.29 kcal/mol  [=(1)+(2)+(3)-(4)]
DOCKED: USER
DOCKED: USER    (1) Final Intermolecular Energy     =  -4.79 kcal/mol
DOCKED: USER        vdW + Hbond + desolv Energy     =  -4.79 kcal/mol
DOCKED: USER        Electrostatic Energy            =  +0.00 kcal/mol
DOCKED: USER        Moving Ligand-Fixed Receptor    =  -4.79 kcal/mol
DOCKED: USER        Moving Ligand-Moving Receptor   =  +0.00 kcal/mol
DOCKED: USER    (2) Final Total Internal Energy     =  -1.25 kcal/mol
DOCKED: USER    (3) Torsional Free Energy           =  +1.49 kcal/mol
DOCKED: USER    (4) Unbound System's Energy         =  -1.25 kcal/mol
DOCKED: USER
DOCKED: USER
DOCKED: REMARK  5 active torsions:
DOCKED: REMARK  status: ('A' for Active; 'I' for Inactive)
DOCKED: REMARK    1  A    between atoms: C_2  and  C_19 
DOCKED: REMARK    2  A    between atoms: C_2  and  C_11 
DOCKED: REMARK    3  A    between atoms: C_19  and  C_20 
DOCKED: REMARK    4  A    between atoms: C_20  and  C_21 
DOCKED: REMARK    5  A    between atoms: C_21  and  N_22 
DOCKED: USER                              x       y       z     vdW  Elec       q    Type
DOCKED: USER                           _______ _______ _______ _____ _____    ______ ____
DOCKED: ROOT
DOCKED: ATOM      1  O   UNL     1     -37.592 -15.021  13.069 -0.01 -0.00    -0.346 OA 
DOCKED: ATOM      2  C   UNL     1     -37.390 -15.283  11.643 -0.11 +0.00    +0.130 C  
DOCKED: ATOM      3  C   UNL     1     -38.246 -16.487  11.374 -0.18 +0.00    +0.004 A  
DOCKED: ATOM      4  C   UNL     1     -38.960 -16.817  12.517 -0.10 +0.00    +0.006 A  
DOCKED: ATOM      5  C   UNL     1     -38.641 -15.862  13.602 -0.03 +0.00    +0.169 C  
DOCKED: ATOM      6  C   UNL     1     -38.390 -17.224  10.207 -0.26 -0.00    -0.001 A  
DOCKED: ATOM      7  C   UNL     1     -39.834 -17.891  12.536 -0.13 +0.00    +0.008 A  
DOCKED: ATOM      8  C   UNL     1     -39.264 -18.312  10.211 -0.33 +0.00    +0.010 A  
DOCKED: ATOM      9  C   UNL     1     -39.982 -18.643  11.370 -0.19 +0.00    +0.068 A  
DOCKED: ATOM     10  N   UNL     1     -41.600 -20.667  11.342 -1.71 -0.00    -0.191 NA 
DOCKED: ATOM     11  C   UNL     1     -40.874 -19.760  11.355 -0.21 +0.00    +0.101 C  
DOCKED: ENDROOT
DOCKED: BRANCH   2  12
DOCKED: ATOM     12  C   UNL     1     -37.832 -14.053  10.859 -0.14 +0.00    +0.038 C  
DOCKED: BRANCH  12  13
DOCKED: ATOM     13  C   UNL     1     -39.288 -13.698  11.155 -0.12 +0.00    +0.038 C  
DOCKED: BRANCH  13  14
DOCKED: ATOM     14  C   UNL     1     -40.061 -13.430   9.865 -0.14 +0.00    +0.251 C  
DOCKED: BRANCH  14  15
DOCKED: ATOM     15  N   UNL     1     -41.359 -14.093   9.904 -0.22 +0.00    +0.141 N  
DOCKED: ATOM     16  C   UNL     1     -41.220 -15.470  10.381 -0.14 +0.00    +0.285 C  
DOCKED: ATOM     17  C   UNL     1     -42.291 -13.353  10.756 -0.13 +0.00    +0.285 C  
DOCKED: ENDBRANCH  14  15
DOCKED: ENDBRANCH  13  14
DOCKED: ENDBRANCH  12  13
DOCKED: ENDBRANCH   2  12
DOCKED: BRANCH   2  18
DOCKED: ATOM     18  C   UNL     1     -35.934 -15.550  11.450 -0.12 +0.00    +0.006 A  
DOCKED: ATOM     19  C   UNL     1     -35.204 -14.797  10.531 -0.08 +0.00    +0.001 A  
DOCKED: ATOM     20  C   UNL     1     -33.843 -15.048  10.351 -0.10 +0.00    +0.029 A  
DOCKED: ATOM     21  C   UNL     1     -33.215 -16.049  11.090 -0.08 +0.00    +0.140 A  
DOCKED: ATOM     22  C   UNL     1     -33.946 -16.801  12.010 -0.13 +0.00    +0.029 A  
DOCKED: ATOM     23  F   UNL     1     -31.908 -16.288  10.919 -0.00 -0.00    -0.204 F  
DOCKED: ATOM     24  C   UNL     1     -35.308 -16.552  12.190 -0.14 +0.00    +0.001 A  
DOCKED: ENDBRANCH   2  18
DOCKED: TORSDOF 5
DOCKED: TER
DOCKED: ENDMDL
________________________________________________________________________________


    FINAL DOCKED STATE:
    ________________________


Run:   21 / 512
Time taken for this run:   0.002s

DOCKED: MODEL        21
DOCKED: USER    Run = 21
DOCKED: USER
DOCKED: USER    Estimated Free Energy of Binding    =  -4.21 kcal/mol  [=(1)+(2)+(3)-(4)]
DOCKED: USER
DOCKED: USER    (1) Final Intermolecular Energy     =  -5.70 kcal/mol
DOCKED: USER        vdW + Hbond + desolv Energy     =  -5.70 kcal/mol
DOCKED: USER        Electrostatic Energy            =  +0.00 kcal/mol
DOCKED: USER        Moving Ligand-Fixed Receptor    =  -5.70 kcal/mol
DOCKED: USER        Moving Ligand-Moving Receptor   =  +0.00 kcal/mol
DOCKED: USER    (2) Final Total Internal Energy     =  -1.50 kcal/mol
DOCKED: USER    (3) Torsional Free Energy           =  +1.49 kcal/mol
DOCKED: USER    (4) Unbound System's Energy         =  -1.50 kcal/mol
DOCKED: USER
DOCKED: USER
DOCKED: REMARK  5 active torsions:
DOCKED: REMARK  status: ('A' for Active; 'I' for Inactive)
DOCKED: REMARK    1  A    between atoms: C_2  and  C_19 
DOCKED: REMARK    2  A    between atoms: C_2  and  C_11 
DOCKED: REMARK    3  A    between atoms: C_19  and  C_20 
DOCKED: REMARK    4  A    between atoms: C_20  and  C_21 
DOCKED: REMARK    5  A    between atoms: C_21  and  N_22 
DOCKED: USER                              x       y       z     vdW  Elec       q    Type
DOCKED: USER                           _______ _______ _______ _____ _____    ______ ____
DOCKED: ROOT
DOCKED: ATOM      1  O   UNL     1     -39.565 -13.989  11.530 -0.02 -0.00    -0.346 OA 
DOCKED: ATOM      2  C   UNL     1     -41.010 -14.161  11.376 -0.11 +0.00    +0.130 C  
DOCKED: ATOM      3  C   UNL     1     -41.147 -15.525  10.764 -0.19 +0.00    +0.004 A  
DOCKED: ATOM      4  C   UNL     1     -39.899 -16.126  10.679 -0.20 +0.00    +0.006 A  
DOCKED: ATOM      5  C   UNL     1     -38.867 -15.220  11.231 -0.12 +0.00    +0.169 C  
DOCKED: ATOM      6  C   UNL     1     -42.286 -16.186  10.329 -0.22 -0.00    -0.001 A  
DOCKED: ATOM      7  C   UNL     1     -39.745 -17.398  10.155 -0.28 +0.00    +0.008 A  
DOCKED: ATOM      8  C   UNL     1     -42.147 -17.468   9.794 -0.24 +0.00    +0.010 A  
DOCKED: ATOM      9  C   UNL     1     -40.883 -18.071   9.709 -0.24 +0.00    +0.068 A  
DOCKED: ATOM     10  N   UNL     1     -40.662 -20.454   8.715 -2.59 -0.00    -0.191 NA 
DOCKED: ATOM     11  C   UNL     1     -40.761 -19.385   9.160 -0.35 +0.00    +0.101 C  
DOCKED: ENDROOT
DOCKED: BRANCH   2  12
DOCKED: ATOM     12  C   UNL     1     -41.658 -14.059  12.751 -0.04 +0.00    +0.038 C  
DOCKED: BRANCH  12  13
DOCKED: ATOM     13  C   UNL     1     -41.028 -15.041  13.737 -0.02 +0.00    +0.038 C  
DOCKED: BRANCH  13  14
DOCKED: ATOM     14  C   UNL     1     -41.970 -16.208  14.027 -0.01 +0.00    +0.251 C  
DOCKED: BRANCH  14  15
DOCKED: ATOM     15  N   UNL     1     -41.506 -17.414  13.351 -0.04 +0.00    +0.141 N  
DOCKED: ATOM     16  C   UNL     1     -40.233 -17.865  13.916 -0.04 +0.00    +0.285 C  
DOCKED: ATOM     17  C   UNL     1     -42.508 -18.477  13.447 -0.04 +0.00    +0.285 C  
DOCKED: ENDBRANCH  14  15
DOCKED: ENDBRANCH  13  14
DOCKED: ENDBRANCH  12  13
DOCKED: ENDBRANCH   2  12
DOCKED: BRANCH   2  18
DOCKED: ATOM     18  C   UNL     1     -41.485 -13.070  10.475 -0.20 +0.00    +0.006 A  
DOCKED: ATOM     19  C   UNL     1     -40.563 -12.273   9.798 -0.19 +0.00    +0.001 A  
DOCKED: ATOM     20  C   UNL     1     -41.008 -11.253   8.957 -0.13 +0.00    +0.029 A  
DOCKED: ATOM     21  C   UNL     1     -42.375 -11.032   8.793 -0.03 +0.00    +0.140 A  
DOCKED: ATOM     22  C   UNL     1     -43.297 -11.829   9.469 -0.17 +0.00    +0.029 A  
DOCKED: ATOM     23  F   UNL     1     -42.802 -10.054   7.983 -0.03 -0.00    -0.204 F  
DOCKED: ATOM     24  C   UNL     1     -42.853 -12.849  10.312 -0.21 +0.00    +0.001 A  
DOCKED: ENDBRANCH   2  18
DOCKED: TORSDOF 5
DOCKED: TER
DOCKED: ENDMDL
________________________________________________________________________________


    FINAL DOCKED STATE:
    ________________________


Run:   22 / 512
Time taken for this run:   0.002s

DOCKED: MODEL        22
DOCKED: USER    Run = 22
DOCKED: USER
DOCKED: USER    Estimated Free Energy of Binding    =  -4.43 kcal/mol  [=(1)+(2)+(3)-(4)]
DOCKED: USER
DOCKED: USER    (1) Final Intermolecular Energy     =  -5.92 kcal/mol
DOCKED: USER        vdW + Hbond + desolv Energy     =  -5.92 kcal/mol
DOCKED: USER        Electrostatic Energy            =  +0.00 kcal/mol
DOCKED: USER        Moving Ligand-Fixed Receptor    =  -5.92 kcal/mol
DOCKED: USER        Moving Ligand-Moving Receptor   =  +0.00 kcal/mol
DOCKED: USER    (2) Final Total Internal Energy     =  -1.39 kcal/mol
DOCKED: USER    (3) Torsional Free Energy           =  +1.49 kcal/mol
DOCKED: USER    (4) Unbound System's Energy         =  -1.39 kcal/mol
DOCKED: USER
DOCKED: USER
DOCKED: REMARK  5 active torsions:
DOCKED: REMARK  status: ('A' for Active; 'I' for Inactive)
DOCKED: REMARK    1  A    between atoms: C_2  and  C_19 
DOCKED: REMARK    2  A    between atoms: C_2  and  C_11 
DOCKED: REMARK    3  A    between atoms: C_19  and  C_20 
DOCKED: REMARK    4  A    between atoms: C_20  and  C_21 
DOCKED: REMARK    5  A    between atoms: C_21  and  N_22 
DOCKED: USER                              x       y       z     vdW  Elec       q    Type
DOCKED: USER                           _______ _______ _______ _____ _____    ______ ____
DOCKED: ROOT
DOCKED: ATOM      1  O   UNL     1     -38.531 -13.647  10.167 -0.07 -0.00    -0.346 OA 
DOCKED: ATOM      2  C   UNL     1     -39.899 -13.717  10.682 -0.15 +0.00    +0.130 C  
DOCKED: ATOM      3  C   UNL     1     -40.349 -15.102  10.319 -0.22 +0.00    +0.004 A  
DOCKED: ATOM      4  C   UNL     1     -39.296 -15.800   9.746 -0.26 +0.00    +0.006 A  
DOCKED: ATOM      5  C   UNL     1     -38.090 -14.944   9.702 -0.15 +0.00    +0.169 C  
DOCKED: ATOM      6  C   UNL     1     -41.589 -15.700  10.492 -0.21 -0.00    -0.001 A  
DOCKED: ATOM      7  C   UNL     1     -39.444 -17.111   9.325 -0.33 +0.00    +0.008 A  
DOCKED: ATOM      8  C   UNL     1     -41.756 -17.020  10.068 -0.22 +0.00    +0.010 A  
DOCKED: ATOM      9  C   UNL     1     -40.688 -17.722   9.488 -0.26 +0.00    +0.068 A  
DOCKED: ATOM     10  N   UNL     1     -41.031 -20.171   8.718 -2.56 -0.00    -0.191 NA 
DOCKED: ATOM     11  C   UNL     1     -40.877 -19.072   9.063 -0.36 +0.00    +0.101 C  
DOCKED: ENDROOT
DOCKED: BRANCH   2  12
DOCKED: ATOM     12  C   UNL     1     -39.861 -13.481  12.187 -0.05 +0.00    +0.038 C  
DOCKED: BRANCH  12  13
DOCKED: ATOM     13  C   UNL     1     -39.174 -12.159  12.526 -0.02 +0.00    +0.038 C  
DOCKED: BRANCH  13  14
DOCKED: ATOM     14  C   UNL     1     -37.661 -12.338  12.633 -0.01 +0.00    +0.251 C  
DOCKED: BRANCH  14  15
DOCKED: ATOM     15  N   UNL     1     -36.986 -11.587  11.581 -0.01 +0.00    +0.141 N  
DOCKED: ATOM     16  C   UNL     1     -37.704 -10.344  11.292 -0.00 +0.00    +0.285 C  
DOCKED: ATOM     17  C   UNL     1     -35.602 -11.296  11.961 -0.00 +0.00    +0.285 C  
DOCKED: ENDBRANCH  14  15
DOCKED: ENDBRANCH  13  14
DOCKED: ENDBRANCH  12  13
DOCKED: ENDBRANCH   2  12
DOCKED: BRANCH   2  18
DOCKED: ATOM     18  C   UNL     1     -40.681 -12.651   9.990 -0.20 +0.00    +0.006 A  
DOCKED: ATOM     19  C   UNL     1     -42.057 -12.553  10.193 -0.20 +0.00    +0.001 A  
DOCKED: ATOM     20  C   UNL     1     -42.787 -11.556   9.545 -0.17 +0.00    +0.029 A  
DOCKED: ATOM     21  C   UNL     1     -42.141 -10.659   8.695 -0.11 +0.00    +0.140 A  
DOCKED: ATOM     22  C   UNL     1     -40.765 -10.758   8.492 -0.16 +0.00    +0.029 A  
DOCKED: ATOM     23  F   UNL     1     -42.842  -9.701   8.075 -0.02 -0.00    -0.204 F  
DOCKED: ATOM     24  C   UNL     1     -40.033 -11.755   9.140 -0.15 +0.00    +0.001 A  
DOCKED: ENDBRANCH   2  18
DOCKED: TORSDOF 5
DOCKED: TER
DOCKED: ENDMDL
________________________________________________________________________________


    FINAL DOCKED STATE:
    ________________________


Run:   23 / 512
Time taken for this run:   0.002s

DOCKED: MODEL        23
DOCKED: USER    Run = 23
DOCKED: USER
DOCKED: USER    Estimated Free Energy of Binding    =  -5.13 kcal/mol  [=(1)+(2)+(3)-(4)]
DOCKED: USER
DOCKED: USER    (1) Final Intermolecular Energy     =  -6.62 kcal/mol
DOCKED: USER        vdW + Hbond + desolv Energy     =  -6.62 kcal/mol
DOCKED: USER        Electrostatic Energy            =  +0.00 kcal/mol
DOCKED: USER        Moving Ligand-Fixed Receptor    =  -6.62 kcal/mol
DOCKED: USER        Moving Ligand-Moving Receptor   =  +0.00 kcal/mol
DOCKED: USER    (2) Final Total Internal Energy     =  -1.31 kcal/mol
DOCKED: USER    (3) Torsional Free Energy           =  +1.49 kcal/mol
DOCKED: USER    (4) Unbound System's Energy         =  -1.31 kcal/mol
DOCKED: USER
DOCKED: USER
DOCKED: REMARK  5 active torsions:
DOCKED: REMARK  status: ('A' for Active; 'I' for Inactive)
DOCKED: REMARK    1  A    between atoms: C_2  and  C_19 
DOCKED: REMARK    2  A    between atoms: C_2  and  C_11 
DOCKED: REMARK    3  A    between atoms: C_19  and  C_20 
DOCKED: REMARK    4  A    between atoms: C_20  and  C_21 
DOCKED: REMARK    5  A    between atoms: C_21  and  N_22 
DOCKED: USER                              x       y       z     vdW  Elec       q    Type
DOCKED: USER                           _______ _______ _______ _____ _____    ______ ____
DOCKED: ROOT
DOCKED: ATOM      1  O   UNL     1     -38.228 -18.915  11.913 -0.10 -0.00    -0.346 OA 
DOCKED: ATOM      2  C   UNL     1     -38.498 -17.549  11.462 -0.20 +0.00    +0.130 C  
DOCKED: ATOM      3  C   UNL     1     -39.061 -17.730  10.082 -0.32 +0.00    +0.004 A  
DOCKED: ATOM      4  C   UNL     1     -39.205 -19.083   9.810 -0.39 +0.00    +0.006 A  
DOCKED: ATOM      5  C   UNL     1     -38.765 -19.879  10.978 -0.17 +0.00    +0.169 C  
DOCKED: ATOM      6  C   UNL     1     -39.428 -16.774   9.147 -0.31 -0.00    -0.001 A  
DOCKED: ATOM      7  C   UNL     1     -39.712 -19.526   8.601 -0.46 +0.00    +0.008 A  
DOCKED: ATOM      8  C   UNL     1     -39.937 -17.204   7.920 -0.01 +0.00    +0.010 A  
DOCKED: ATOM      9  C   UNL     1     -40.079 -18.573   7.649 -0.41 +0.00    +0.068 A  
DOCKED: ATOM     10  N   UNL     1     -41.032 -19.337   5.364 -2.35 -0.00    -0.191 NA 
DOCKED: ATOM     11  C   UNL     1     -40.604 -18.995   6.389 -0.48 +0.00    +0.101 C  
DOCKED: ENDROOT
DOCKED: BRANCH   2  12
DOCKED: ATOM     12  C   UNL     1     -39.489 -16.909  12.428 -0.11 +0.00    +0.038 C  
DOCKED: BRANCH  12  13
DOCKED: ATOM     13  C   UNL     1     -40.928 -17.092  11.952 -0.12 +0.00    +0.038 C  
DOCKED: BRANCH  13  14
DOCKED: ATOM     14  C   UNL     1     -41.616 -15.744  11.748 -0.05 +0.00    +0.251 C  
DOCKED: BRANCH  14  15
DOCKED: ATOM     15  N   UNL     1     -40.628 -14.706  11.479 -0.08 +0.00    +0.141 N  
DOCKED: ATOM     16  C   UNL     1     -40.913 -14.039  10.208 -0.16 +0.00    +0.285 C  
DOCKED: ATOM     17  C   UNL     1     -40.597 -13.729  12.569 -0.01 +0.00    +0.285 C  
DOCKED: ENDBRANCH  14  15
DOCKED: ENDBRANCH  13  14
DOCKED: ENDBRANCH  12  13
DOCKED: ENDBRANCH   2  12
DOCKED: BRANCH   2  18
DOCKED: ATOM     18  C   UNL     1     -37.195 -16.822  11.468 -0.19 +0.00    +0.006 A  
DOCKED: ATOM     19  C   UNL     1     -36.031 -17.482  11.860 -0.19 +0.00    +0.001 A  
DOCKED: ATOM     20  C   UNL     1     -34.813 -16.801  11.865 -0.15 +0.00    +0.029 A  
DOCKED: ATOM     21  C   UNL     1     -34.760 -15.463  11.477 -0.08 +0.00    +0.140 A  
DOCKED: ATOM     22  C   UNL     1     -35.925 -14.803  11.085 -0.11 +0.00    +0.029 A  
DOCKED: ATOM     23  F   UNL     1     -33.591 -14.810  11.480 -0.01 -0.00    -0.204 F  
DOCKED: ATOM     24  C   UNL     1     -37.144 -15.483  11.080 -0.15 +0.00    +0.001 A  
DOCKED: ENDBRANCH   2  18
DOCKED: TORSDOF 5
DOCKED: TER
DOCKED: ENDMDL
________________________________________________________________________________


    FINAL DOCKED STATE:
    ________________________


Run:   24 / 512
Time taken for this run:   0.002s

DOCKED: MODEL        24
DOCKED: USER    Run = 24
DOCKED: USER
DOCKED: USER    Estimated Free Energy of Binding    =  -3.67 kcal/mol  [=(1)+(2)+(3)-(4)]
DOCKED: USER
DOCKED: USER    (1) Final Intermolecular Energy     =  -5.17 kcal/mol
DOCKED: USER        vdW + Hbond + desolv Energy     =  -5.17 kcal/mol
DOCKED: USER        Electrostatic Energy            =  +0.00 kcal/mol
DOCKED: USER        Moving Ligand-Fixed Receptor    =  -5.17 kcal/mol
DOCKED: USER        Moving Ligand-Moving Receptor   =  +0.00 kcal/mol
DOCKED: USER    (2) Final Total Internal Energy     =  -1.19 kcal/mol
DOCKED: USER    (3) Torsional Free Energy           =  +1.49 kcal/mol
DOCKED: USER    (4) Unbound System's Energy         =  -1.19 kcal/mol
DOCKED: USER
DOCKED: USER
DOCKED: REMARK  5 active torsions:
DOCKED: REMARK  status: ('A' for Active; 'I' for Inactive)
DOCKED: REMARK    1  A    between atoms: C_2  and  C_19 
DOCKED: REMARK    2  A    between atoms: C_2  and  C_11 
DOCKED: REMARK    3  A    between atoms: C_19  and  C_20 
DOCKED: REMARK    4  A    between atoms: C_20  and  C_21 
DOCKED: REMARK    5  A    between atoms: C_21  and  N_22 
DOCKED: USER                              x       y       z     vdW  Elec       q    Type
DOCKED: USER                           _______ _______ _______ _____ _____    ______ ____
DOCKED: ROOT
DOCKED: ATOM      1  O   UNL     1     -39.783 -14.652  12.855 -0.00 -0.00    -0.346 OA 
DOCKED: ATOM      2  C   UNL     1     -38.655 -14.782  11.933 -0.07 +0.00    +0.130 C  
DOCKED: ATOM      3  C   UNL     1     -38.991 -16.000  11.123 -0.17 +0.00    +0.004 A  
DOCKED: ATOM      4  C   UNL     1     -40.252 -16.462  11.475 -0.12 +0.00    +0.006 A  
DOCKED: ATOM      5  C   UNL     1     -40.834 -15.587  12.517 -0.04 +0.00    +0.169 C  
DOCKED: ATOM      6  C   UNL     1     -38.246 -16.642  10.144 -0.16 -0.00    -0.001 A  
DOCKED: ATOM      7  C   UNL     1     -40.806 -17.576  10.869 -0.18 +0.00    +0.008 A  
DOCKED: ATOM      8  C   UNL     1     -38.790 -17.770   9.527 -0.30 +0.00    +0.010 A  
DOCKED: ATOM      9  C   UNL     1     -40.063 -18.234   9.887 -0.26 +0.00    +0.068 A  
DOCKED: ATOM     10  N   UNL     1     -41.045 -20.328   8.718 -2.55 -0.00    -0.191 NA 
DOCKED: ATOM     11  C   UNL     1     -40.604 -19.389   9.243 -0.34 +0.00    +0.101 C  
DOCKED: ENDROOT
DOCKED: BRANCH   2  12
DOCKED: ATOM     12  C   UNL     1     -38.572 -13.514  11.091 -0.11 +0.00    +0.038 C  
DOCKED: BRANCH  12  13
DOCKED: ATOM     13  C   UNL     1     -39.925 -12.811  11.008 -0.11 +0.00    +0.038 C  
DOCKED: BRANCH  13  14
DOCKED: ATOM     14  C   UNL     1     -40.436 -12.770   9.569 -0.12 +0.00    +0.251 C  
DOCKED: BRANCH  14  15
DOCKED: ATOM     15  N   UNL     1     -41.894 -12.752   9.549 -0.20 +0.00    +0.141 N  
DOCKED: ATOM     16  C   UNL     1     -42.435 -13.424  10.732 -0.13 +0.00    +0.285 C  
DOCKED: ATOM     17  C   UNL     1     -42.392 -11.378   9.474 -0.11 +0.00    +0.285 C  
DOCKED: ENDBRANCH  14  15
DOCKED: ENDBRANCH  13  14
DOCKED: ENDBRANCH  12  13
DOCKED: ENDBRANCH   2  12
DOCKED: BRANCH   2  18
DOCKED: ATOM     18  C   UNL     1     -37.429 -14.957  12.765 -0.05 +0.00    +0.006 A  
DOCKED: ATOM     19  C   UNL     1     -36.476 -13.940  12.824 -0.03 +0.00    +0.001 A  
DOCKED: ATOM     20  C   UNL     1     -35.330 -14.106  13.602 -0.01 +0.00    +0.029 A  
DOCKED: ATOM     21  C   UNL     1     -35.138 -15.285  14.320 -0.01 +0.00    +0.140 A  
DOCKED: ATOM     22  C   UNL     1     -36.091 -16.301  14.260 -0.05 +0.00    +0.029 A  
DOCKED: ATOM     23  F   UNL     1     -34.038 -15.443  15.068 +0.00 -0.00    -0.204 F  
DOCKED: ATOM     24  C   UNL     1     -37.238 -16.137  13.482 -0.06 +0.00    +0.001 A  
DOCKED: ENDBRANCH   2  18
DOCKED: TORSDOF 5
DOCKED: TER
DOCKED: ENDMDL
________________________________________________________________________________


    FINAL DOCKED STATE:
    ________________________


Run:   25 / 512
Time taken for this run:   0.002s

DOCKED: MODEL        25
DOCKED: USER    Run = 25
DOCKED: USER
DOCKED: USER    Estimated Free Energy of Binding    =  -3.44 kcal/mol  [=(1)+(2)+(3)-(4)]
DOCKED: USER
DOCKED: USER    (1) Final Intermolecular Energy     =  -4.93 kcal/mol
DOCKED: USER        vdW + Hbond + desolv Energy     =  -4.93 kcal/mol
DOCKED: USER        Electrostatic Energy            =  +0.00 kcal/mol
DOCKED: USER        Moving Ligand-Fixed Receptor    =  -4.93 kcal/mol
DOCKED: USER        Moving Ligand-Moving Receptor   =  +0.00 kcal/mol
DOCKED: USER    (2) Final Total Internal Energy     =  -1.28 kcal/mol
DOCKED: USER    (3) Torsional Free Energy           =  +1.49 kcal/mol
DOCKED: USER    (4) Unbound System's Energy         =  -1.28 kcal/mol
DOCKED: USER
DOCKED: USER
DOCKED: REMARK  5 active torsions:
DOCKED: REMARK  status: ('A' for Active; 'I' for Inactive)
DOCKED: REMARK    1  A    between atoms: C_2  and  C_19 
DOCKED: REMARK    2  A    between atoms: C_2  and  C_11 
DOCKED: REMARK    3  A    between atoms: C_19  and  C_20 
DOCKED: REMARK    4  A    between atoms: C_20  and  C_21 
DOCKED: REMARK    5  A    between atoms: C_21  and  N_22 
DOCKED: USER                              x       y       z     vdW  Elec       q    Type
DOCKED: USER                           _______ _______ _______ _____ _____    ______ ____
DOCKED: ROOT
DOCKED: ATOM      1  O   UNL     1     -40.009 -14.567  12.217 -0.01 -0.00    -0.346 OA 
DOCKED: ATOM      2  C   UNL     1     -38.687 -15.183  12.095 -0.07 +0.00    +0.130 C  
DOCKED: ATOM      3  C   UNL     1     -38.941 -16.424  11.290 -0.17 +0.00    +0.004 A  
DOCKED: ATOM      4  C   UNL     1     -40.270 -16.459  10.893 -0.18 +0.00    +0.006 A  
DOCKED: ATOM      5  C   UNL     1     -40.974 -15.255  11.387 -0.10 +0.00    +0.169 C  
DOCKED: ATOM      6  C   UNL     1     -38.064 -17.437  10.930 -0.26 -0.00    -0.001 A  
DOCKED: ATOM      7  C   UNL     1     -40.767 -17.501  10.129 -0.24 +0.00    +0.008 A  
DOCKED: ATOM      8  C   UNL     1     -38.551 -18.498  10.164 -0.34 +0.00    +0.010 A  
DOCKED: ATOM      9  C   UNL     1     -39.896 -18.529   9.765 -0.29 +0.00    +0.068 A  
DOCKED: ATOM     10  N   UNL     1     -40.766 -20.510   8.340 -2.37 -0.00    -0.191 NA 
DOCKED: ATOM     11  C   UNL     1     -40.376 -19.622   8.980 -0.31 +0.00    +0.101 C  
DOCKED: ENDROOT
DOCKED: BRANCH   2  12
DOCKED: ATOM     12  C   UNL     1     -37.759 -14.199  11.391 -0.10 +0.00    +0.038 C  
DOCKED: BRANCH  12  13
DOCKED: ATOM     13  C   UNL     1     -36.400 -14.831  11.094 -0.13 +0.00    +0.038 C  
DOCKED: BRANCH  13  14
DOCKED: ATOM     14  C   UNL     1     -35.357 -14.397  12.122 -0.04 +0.00    +0.251 C  
DOCKED: BRANCH  14  15
DOCKED: ATOM     15  N   UNL     1     -34.343 -15.433  12.284 -0.05 +0.00    +0.141 N  
DOCKED: ATOM     16  C   UNL     1     -33.817 -15.430  13.650 -0.01 +0.00    +0.285 C  
DOCKED: ATOM     17  C   UNL     1     -34.894 -16.748  11.955 -0.10 +0.00    +0.285 C  
DOCKED: ENDBRANCH  14  15
DOCKED: ENDBRANCH  13  14
DOCKED: ENDBRANCH  12  13
DOCKED: ENDBRANCH   2  12
DOCKED: BRANCH   2  18
DOCKED: ATOM     18  C   UNL     1     -38.212 -15.474  13.479 -0.03 +0.00    +0.006 A  
DOCKED: ATOM     19  C   UNL     1     -38.035 -14.432  14.389 -0.01 +0.00    +0.001 A  
DOCKED: ATOM     20  C   UNL     1     -37.591 -14.705  15.683 -0.00 +0.00    +0.029 A  
DOCKED: ATOM     21  C   UNL     1     -37.325 -16.019  16.066 -0.01 +0.00    +0.140 A  
DOCKED: ATOM     22  C   UNL     1     -37.502 -17.061  15.156 -0.05 +0.00    +0.029 A  
DOCKED: ATOM     23  F   UNL     1     -36.900 -16.282  17.308 +0.00 -0.00    -0.204 F  
DOCKED: ATOM     24  C   UNL     1     -37.946 -16.788  13.860 -0.07 +0.00    +0.001 A  
DOCKED: ENDBRANCH   2  18
DOCKED: TORSDOF 5
DOCKED: TER
DOCKED: ENDMDL
________________________________________________________________________________


    FINAL DOCKED STATE:
    ________________________


Run:   26 / 512
Time taken for this run:   0.002s

DOCKED: MODEL        26
DOCKED: USER    Run = 26
DOCKED: USER
DOCKED: USER    Estimated Free Energy of Binding    =  -3.94 kcal/mol  [=(1)+(2)+(3)-(4)]
DOCKED: USER
DOCKED: USER    (1) Final Intermolecular Energy     =  -5.43 kcal/mol
DOCKED: USER        vdW + Hbond + desolv Energy     =  -5.43 kcal/mol
DOCKED: USER        Electrostatic Energy            =  +0.00 kcal/mol
DOCKED: USER        Moving Ligand-Fixed Receptor    =  -5.43 kcal/mol
DOCKED: USER        Moving Ligand-Moving Receptor   =  +0.00 kcal/mol
DOCKED: USER    (2) Final Total Internal Energy     =  -1.31 kcal/mol
DOCKED: USER    (3) Torsional Free Energy           =  +1.49 kcal/mol
DOCKED: USER    (4) Unbound System's Energy         =  -1.31 kcal/mol
DOCKED: USER
DOCKED: USER
DOCKED: REMARK  5 active torsions:
DOCKED: REMARK  status: ('A' for Active; 'I' for Inactive)
DOCKED: REMARK    1  A    between atoms: C_2  and  C_19 
DOCKED: REMARK    2  A    between atoms: C_2  and  C_11 
DOCKED: REMARK    3  A    between atoms: C_19  and  C_20 
DOCKED: REMARK    4  A    between atoms: C_20  and  C_21 
DOCKED: REMARK    5  A    between atoms: C_21  and  N_22 
DOCKED: USER                              x       y       z     vdW  Elec       q    Type
DOCKED: USER                           _______ _______ _______ _____ _____    ______ ____
DOCKED: ROOT
DOCKED: ATOM      1  O   UNL     1     -31.864  -7.947   0.081 +0.01 -0.00    -0.346 OA 
DOCKED: ATOM      2  C   UNL     1     -32.815  -8.108   1.183 -0.06 +0.00    +0.130 C  
DOCKED: ATOM      3  C   UNL     1     -34.145  -7.800   0.557 -0.14 +0.00    +0.004 A  
DOCKED: ATOM      4  C   UNL     1     -33.983  -7.591  -0.805 -0.13 +0.00    +0.006 A  
DOCKED: ATOM      5  C   UNL     1     -32.559  -7.756  -1.173 -0.03 +0.00    +0.169 C  
DOCKED: ATOM      6  C   UNL     1     -35.399  -7.723   1.145 -0.21 -0.00    -0.001 A  
DOCKED: ATOM      7  C   UNL     1     -35.061  -7.295  -1.622 -0.27 +0.00    +0.008 A  
DOCKED: ATOM      8  C   UNL     1     -36.496  -7.421   0.335 -0.37 +0.00    +0.010 A  
DOCKED: ATOM      9  C   UNL     1     -36.327  -7.209  -1.041 -0.37 +0.00    +0.068 A  
DOCKED: ATOM     10  N   UNL     1     -38.384  -6.656  -2.516 -2.53 -0.00    -0.191 NA 
DOCKED: ATOM     11  C   UNL     1     -37.461  -6.903  -1.854 -0.15 +0.00    +0.101 C  
DOCKED: ENDROOT
DOCKED: BRANCH   2  12
DOCKED: ATOM     12  C   UNL     1     -32.719  -9.538   1.699 -0.05 +0.00    +0.038 C  
DOCKED: BRANCH  12  13
DOCKED: ATOM     13  C   UNL     1     -33.320 -10.531   0.705 -0.07 +0.00    +0.038 C  
DOCKED: BRANCH  13  14
DOCKED: ATOM     14  C   UNL     1     -34.668 -11.054   1.199 -0.13 +0.00    +0.251 C  
DOCKED: BRANCH  14  15
DOCKED: ATOM     15  N   UNL     1     -34.812 -10.813   2.630 -0.09 +0.00    +0.141 N  
DOCKED: ATOM     16  C   UNL     1     -36.180 -10.400   2.948 -0.17 +0.00    +0.285 C  
DOCKED: ATOM     17  C   UNL     1     -34.453 -12.010   3.393 -0.06 +0.00    +0.285 C  
DOCKED: ENDBRANCH  14  15
DOCKED: ENDBRANCH  13  14
DOCKED: ENDBRANCH  12  13
DOCKED: ENDBRANCH   2  12
DOCKED: BRANCH   2  18
DOCKED: ATOM     18  C   UNL     1     -32.429  -7.127   2.239 -0.11 +0.00    +0.006 A  
DOCKED: ATOM     19  C   UNL     1     -32.079  -7.576   3.512 -0.10 +0.00    +0.001 A  
DOCKED: ATOM     20  C   UNL     1     -31.719  -6.657   4.499 -0.08 +0.00    +0.029 A  
DOCKED: ATOM     21  C   UNL     1     -31.707  -5.293   4.211 -0.06 +0.00    +0.140 A  
DOCKED: ATOM     22  C   UNL     1     -32.056  -4.845   2.938 -0.11 +0.00    +0.029 A  
DOCKED: ATOM     23  F   UNL     1     -31.359  -4.413   5.158 -0.03 -0.00    -0.204 F  
DOCKED: ATOM     24  C   UNL     1     -32.418  -5.763   1.950 -0.12 +0.00    +0.001 A  
DOCKED: ENDBRANCH   2  18
DOCKED: TORSDOF 5
DOCKED: TER
DOCKED: ENDMDL
________________________________________________________________________________


    FINAL DOCKED STATE:
    ________________________


Run:   27 / 512
Time taken for this run:   0.002s

DOCKED: MODEL        27
DOCKED: USER    Run = 27
DOCKED: USER
DOCKED: USER    Estimated Free Energy of Binding    =  -4.03 kcal/mol  [=(1)+(2)+(3)-(4)]
DOCKED: USER
DOCKED: USER    (1) Final Intermolecular Energy     =  -5.52 kcal/mol
DOCKED: USER        vdW + Hbond + desolv Energy     =  -5.52 kcal/mol
DOCKED: USER        Electrostatic Energy            =  +0.00 kcal/mol
DOCKED: USER        Moving Ligand-Fixed Receptor    =  -5.52 kcal/mol
DOCKED: USER        Moving Ligand-Moving Receptor   =  +0.00 kcal/mol
DOCKED: USER    (2) Final Total Internal Energy     =  -1.01 kcal/mol
DOCKED: USER    (3) Torsional Free Energy           =  +1.49 kcal/mol
DOCKED: USER    (4) Unbound System's Energy         =  -1.01 kcal/mol
DOCKED: USER
DOCKED: USER
DOCKED: REMARK  5 active torsions:
DOCKED: REMARK  status: ('A' for Active; 'I' for Inactive)
DOCKED: REMARK    1  A    between atoms: C_2  and  C_19 
DOCKED: REMARK    2  A    between atoms: C_2  and  C_11 
DOCKED: REMARK    3  A    between atoms: C_19  and  C_20 
DOCKED: REMARK    4  A    between atoms: C_20  and  C_21 
DOCKED: REMARK    5  A    between atoms: C_21  and  N_22 
DOCKED: USER                              x       y       z     vdW  Elec       q    Type
DOCKED: USER                           _______ _______ _______ _____ _____    ______ ____
DOCKED: ROOT
DOCKED: ATOM      1  O   UNL     1     -42.745 -14.113  11.083 -0.06 -0.00    -0.346 OA 
DOCKED: ATOM      2  C   UNL     1     -41.281 -14.124  11.078 -0.15 +0.00    +0.130 C  
DOCKED: ATOM      3  C   UNL     1     -40.934 -15.498  10.582 -0.21 +0.00    +0.004 A  
DOCKED: ATOM      4  C   UNL     1     -42.093 -16.174  10.229 -0.22 +0.00    +0.006 A  
DOCKED: ATOM      5  C   UNL     1     -43.270 -15.303  10.451 -0.18 +0.00    +0.169 C  
DOCKED: ATOM      6  C   UNL     1     -39.691 -16.097  10.444 -0.24 -0.00    -0.001 A  
DOCKED: ATOM      7  C   UNL     1     -42.052 -17.465   9.733 -0.25 +0.00    +0.008 A  
DOCKED: ATOM      8  C   UNL     1     -39.632 -17.401   9.949 -0.30 +0.00    +0.010 A  
DOCKED: ATOM      9  C   UNL     1     -40.807 -18.081   9.595 -0.25 +0.00    +0.068 A  
DOCKED: ATOM     10  N   UNL     1     -40.662 -20.499   8.674 -2.58 -0.00    -0.191 NA 
DOCKED: ATOM     11  C   UNL     1     -40.727 -19.415   9.088 -0.36 +0.00    +0.101 C  
DOCKED: ENDROOT
DOCKED: BRANCH   2  12
DOCKED: ATOM     12  C   UNL     1     -40.793 -13.017  10.151 -0.22 +0.00    +0.038 C  
DOCKED: BRANCH  12  13
DOCKED: ATOM     13  C   UNL     1     -41.690 -11.784  10.235 -0.17 +0.00    +0.038 C  
DOCKED: BRANCH  13  14
DOCKED: ATOM     14  C   UNL     1     -41.822 -11.107   8.872 -0.06 +0.00    +0.251 C  
DOCKED: BRANCH  14  15
DOCKED: ATOM     15  N   UNL     1     -41.808  -9.657   9.023 -0.08 +0.00    +0.141 N  
DOCKED: ATOM     16  C   UNL     1     -42.544  -9.017   7.931 -0.09 +0.00    +0.285 C  
DOCKED: ATOM     17  C   UNL     1     -42.375  -9.267  10.315 -0.01 +0.00    +0.285 C  
DOCKED: ENDBRANCH  14  15
DOCKED: ENDBRANCH  13  14
DOCKED: ENDBRANCH  12  13
DOCKED: ENDBRANCH   2  12
DOCKED: BRANCH   2  18
DOCKED: ATOM     18  C   UNL     1     -40.839 -13.884  12.483 -0.04 +0.00    +0.006 A  
DOCKED: ATOM     19  C   UNL     1     -39.629 -13.237  12.732 -0.03 +0.00    +0.001 A  
DOCKED: ATOM     20  C   UNL     1     -39.217 -13.014  14.046 -0.00 +0.00    +0.029 A  
DOCKED: ATOM     21  C   UNL     1     -40.014 -13.436  15.109 +0.00 +0.00    +0.140 A  
DOCKED: ATOM     22  C   UNL     1     -41.224 -14.082  14.859 -0.00 +0.00    +0.029 A  
DOCKED: ATOM     23  F   UNL     1     -39.619 -13.219  16.370 +0.00 -0.00    -0.204 F  
DOCKED: ATOM     24  C   UNL     1     -41.638 -14.307  13.545 -0.02 +0.00    +0.001 A  
DOCKED: ENDBRANCH   2  18
DOCKED: TORSDOF 5
DOCKED: TER
DOCKED: ENDMDL
________________________________________________________________________________


    FINAL DOCKED STATE:
    ________________________


Run:   28 / 512
Time taken for this run:   0.002s

DOCKED: MODEL        28
DOCKED: USER    Run = 28
DOCKED: USER
DOCKED: USER    Estimated Free Energy of Binding    =  -4.80 kcal/mol  [=(1)+(2)+(3)-(4)]
DOCKED: USER
DOCKED: USER    (1) Final Intermolecular Energy     =  -6.29 kcal/mol
DOCKED: USER        vdW + Hbond + desolv Energy     =  -6.29 kcal/mol
DOCKED: USER        Electrostatic Energy            =  +0.00 kcal/mol
DOCKED: USER        Moving Ligand-Fixed Receptor    =  -6.29 kcal/mol
DOCKED: USER        Moving Ligand-Moving Receptor   =  +0.00 kcal/mol
DOCKED: USER    (2) Final Total Internal Energy     =  -1.16 kcal/mol
DOCKED: USER    (3) Torsional Free Energy           =  +1.49 kcal/mol
DOCKED: USER    (4) Unbound System's Energy         =  -1.16 kcal/mol
DOCKED: USER
DOCKED: USER
DOCKED: REMARK  5 active torsions:
DOCKED: REMARK  status: ('A' for Active; 'I' for Inactive)
DOCKED: REMARK    1  A    between atoms: C_2  and  C_19 
DOCKED: REMARK    2  A    between atoms: C_2  and  C_11 
DOCKED: REMARK    3  A    between atoms: C_19  and  C_20 
DOCKED: REMARK    4  A    between atoms: C_20  and  C_21 
DOCKED: REMARK    5  A    between atoms: C_21  and  N_22 
DOCKED: USER                              x       y       z     vdW  Elec       q    Type
DOCKED: USER                           _______ _______ _______ _____ _____    ______ ____
DOCKED: ROOT
DOCKED: ATOM      1  O   UNL     1     -39.490 -16.338  12.453 -0.01 -0.00    -0.346 OA 
DOCKED: ATOM      2  C   UNL     1     -38.863 -17.660  12.405 -0.13 +0.00    +0.130 C  
DOCKED: ATOM      3  C   UNL     1     -39.166 -18.152  11.019 -0.26 +0.00    +0.004 A  
DOCKED: ATOM      4  C   UNL     1     -39.813 -17.156  10.301 -0.26 +0.00    +0.006 A  
DOCKED: ATOM      5  C   UNL     1     -39.969 -15.949  11.144 -0.13 +0.00    +0.169 C  
DOCKED: ATOM      6  C   UNL     1     -38.883 -19.378  10.437 -0.38 -0.00    -0.001 A  
DOCKED: ATOM      7  C   UNL     1     -40.200 -17.351   8.986 -0.33 +0.00    +0.008 A  
DOCKED: ATOM      8  C   UNL     1     -39.270 -19.592   9.113 -0.38 +0.00    +0.010 A  
DOCKED: ATOM      9  C   UNL     1     -39.925 -18.583   8.392 -0.39 +0.00    +0.068 A  
DOCKED: ATOM     10  N   UNL     1     -40.626 -19.011   5.935 -1.93 -0.00    -0.191 NA 
DOCKED: ATOM     11  C   UNL     1     -40.312 -18.819   7.037 -0.52 +0.00    +0.101 C  
DOCKED: ENDROOT
DOCKED: BRANCH   2  12
DOCKED: ATOM     12  C   UNL     1     -37.370 -17.495  12.663 -0.18 +0.00    +0.038 C  
DOCKED: BRANCH  12  13
DOCKED: ATOM     13  C   UNL     1     -36.601 -17.276  11.362 -0.14 +0.00    +0.038 C  
DOCKED: BRANCH  13  14
DOCKED: ATOM     14  C   UNL     1     -35.403 -16.354  11.580 -0.07 +0.00    +0.251 C  
DOCKED: BRANCH  14  15
DOCKED: ATOM     15  N   UNL     1     -35.679 -15.027  11.044 -0.10 +0.00    +0.141 N  
DOCKED: ATOM     16  C   UNL     1     -37.048 -14.953  10.530 -0.10 +0.00    +0.285 C  
DOCKED: ATOM     17  C   UNL     1     -35.464 -14.002  12.067 -0.03 +0.00    +0.285 C  
DOCKED: ENDBRANCH  14  15
DOCKED: ENDBRANCH  13  14
DOCKED: ENDBRANCH  12  13
DOCKED: ENDBRANCH   2  12
DOCKED: BRANCH   2  18
DOCKED: ATOM     18  C   UNL     1     -39.505 -18.486  13.469 -0.16 +0.00    +0.006 A  
DOCKED: ATOM     19  C   UNL     1     -40.881 -18.400  13.682 -0.12 +0.00    +0.001 A  
DOCKED: ATOM     20  C   UNL     1     -41.480 -19.173  14.677 -0.13 +0.00    +0.029 A  
DOCKED: ATOM     21  C   UNL     1     -40.704 -20.029  15.457 -0.07 +0.00    +0.140 A  
DOCKED: ATOM     22  C   UNL     1     -39.329 -20.114  15.244 -0.21 +0.00    +0.029 A  
DOCKED: ATOM     23  F   UNL     1     -41.280 -20.772  16.411 -0.05 -0.00    -0.204 F  
DOCKED: ATOM     24  C   UNL     1     -38.728 -19.341  14.248 -0.22 +0.00    +0.001 A  
DOCKED: ENDBRANCH   2  18
DOCKED: TORSDOF 5
DOCKED: TER
DOCKED: ENDMDL
________________________________________________________________________________


    FINAL DOCKED STATE:
    ________________________


Run:   29 / 512
Time taken for this run:   0.002s

DOCKED: MODEL        29
DOCKED: USER    Run = 29
DOCKED: USER
DOCKED: USER    Estimated Free Energy of Binding    =  -4.62 kcal/mol  [=(1)+(2)+(3)-(4)]
DOCKED: USER
DOCKED: USER    (1) Final Intermolecular Energy     =  -6.11 kcal/mol
DOCKED: USER        vdW + Hbond + desolv Energy     =  -6.11 kcal/mol
DOCKED: USER        Electrostatic Energy            =  +0.00 kcal/mol
DOCKED: USER        Moving Ligand-Fixed Receptor    =  -6.11 kcal/mol
DOCKED: USER        Moving Ligand-Moving Receptor   =  +0.00 kcal/mol
DOCKED: USER    (2) Final Total Internal Energy     =  -1.15 kcal/mol
DOCKED: USER    (3) Torsional Free Energy           =  +1.49 kcal/mol
DOCKED: USER    (4) Unbound System's Energy         =  -1.15 kcal/mol
DOCKED: USER
DOCKED: USER
DOCKED: REMARK  5 active torsions:
DOCKED: REMARK  status: ('A' for Active; 'I' for Inactive)
DOCKED: REMARK    1  A    between atoms: C_2  and  C_19 
DOCKED: REMARK    2  A    between atoms: C_2  and  C_11 
DOCKED: REMARK    3  A    between atoms: C_19  and  C_20 
DOCKED: REMARK    4  A    between atoms: C_20  and  C_21 
DOCKED: REMARK    5  A    between atoms: C_21  and  N_22 
DOCKED: USER                              x       y       z     vdW  Elec       q    Type
DOCKED: USER                           _______ _______ _______ _____ _____    ______ ____
DOCKED: ROOT
DOCKED: ATOM      1  O   UNL     1     -40.913 -18.551  12.058 -0.04 -0.00    -0.346 OA 
DOCKED: ATOM      2  C   UNL     1     -40.190 -17.422  11.472 -0.13 +0.00    +0.130 C  
DOCKED: ATOM      3  C   UNL     1     -40.261 -17.677   9.994 -0.28 +0.00    +0.004 A  
DOCKED: ATOM      4  C   UNL     1     -41.050 -18.792   9.751 -0.29 +0.00    +0.006 A  
DOCKED: ATOM      5  C   UNL     1     -41.558 -19.337  11.029 -0.17 +0.00    +0.169 C  
DOCKED: ATOM      6  C   UNL     1     -39.684 -16.971   8.949 -0.32 -0.00    -0.001 A  
DOCKED: ATOM      7  C   UNL     1     -41.284 -19.241   8.462 -0.40 +0.00    +0.008 A  
DOCKED: ATOM      8  C   UNL     1     -39.908 -17.414   7.644 -0.10 +0.00    +0.010 A  
DOCKED: ATOM      9  C   UNL     1     -40.704 -18.543   7.402 -0.41 +0.00    +0.068 A  
DOCKED: ATOM     10  N   UNL     1     -41.103 -19.336   4.968 -2.69 -0.00    -0.191 NA 
DOCKED: ATOM     11  C   UNL     1     -40.923 -18.981   6.060 -0.32 +0.00    +0.101 C  
DOCKED: ENDROOT
DOCKED: BRANCH   2  12
DOCKED: ATOM     12  C   UNL     1     -40.890 -16.133  11.887 -0.10 +0.00    +0.038 C  
DOCKED: BRANCH  12  13
DOCKED: ATOM     13  C   UNL     1     -41.002 -16.024  13.406 -0.04 +0.00    +0.038 C  
DOCKED: BRANCH  13  14
DOCKED: ATOM     14  C   UNL     1     -40.984 -14.564  13.855 -0.00 +0.00    +0.251 C  
DOCKED: BRANCH  14  15
DOCKED: ATOM     15  N   UNL     1     -39.615 -14.124  14.095 -0.00 +0.00    +0.141 N  
DOCKED: ATOM     16  C   UNL     1     -39.601 -12.868  14.848 +0.00 +0.00    +0.285 C  
DOCKED: ATOM     17  C   UNL     1     -38.860 -15.153  14.810 -0.00 +0.00    +0.285 C  
DOCKED: ENDBRANCH  14  15
DOCKED: ENDBRANCH  13  14
DOCKED: ENDBRANCH  12  13
DOCKED: ENDBRANCH   2  12
DOCKED: BRANCH   2  18
DOCKED: ATOM     18  C   UNL     1     -38.796 -17.473  12.004 -0.16 +0.00    +0.006 A  
DOCKED: ATOM     19  C   UNL     1     -38.515 -18.213  13.152 -0.16 +0.00    +0.001 A  
DOCKED: ATOM     20  C   UNL     1     -37.212 -18.260  13.648 -0.01 +0.00    +0.029 A  
DOCKED: ATOM     21  C   UNL     1     -36.193 -17.567  12.997 -0.07 +0.00    +0.140 A  
DOCKED: ATOM     22  C   UNL     1     -36.474 -16.827  11.849 -0.17 +0.00    +0.029 A  
DOCKED: ATOM     23  F   UNL     1     -34.942 -17.614  13.473 -0.03 -0.00    -0.204 F  
DOCKED: ATOM     24  C   UNL     1     -37.778 -16.779  11.352 -0.21 +0.00    +0.001 A  
DOCKED: ENDBRANCH   2  18
DOCKED: TORSDOF 5
DOCKED: TER
DOCKED: ENDMDL
________________________________________________________________________________


    FINAL DOCKED STATE:
    ________________________


Run:   30 / 512
Time taken for this run:   0.002s

DOCKED: MODEL        30
DOCKED: USER    Run = 30
DOCKED: USER
DOCKED: USER    Estimated Free Energy of Binding    =  -3.72 kcal/mol  [=(1)+(2)+(3)-(4)]
DOCKED: USER
DOCKED: USER    (1) Final Intermolecular Energy     =  -5.21 kcal/mol
DOCKED: USER        vdW + Hbond + desolv Energy     =  -5.21 kcal/mol
DOCKED: USER        Electrostatic Energy            =  +0.00 kcal/mol
DOCKED: USER        Moving Ligand-Fixed Receptor    =  -5.21 kcal/mol
DOCKED: USER        Moving Ligand-Moving Receptor   =  +0.00 kcal/mol
DOCKED: USER    (2) Final Total Internal Energy     =  -1.25 kcal/mol
DOCKED: USER    (3) Torsional Free Energy           =  +1.49 kcal/mol
DOCKED: USER    (4) Unbound System's Energy         =  -1.25 kcal/mol
DOCKED: USER
DOCKED: USER
DOCKED: REMARK  5 active torsions:
DOCKED: REMARK  status: ('A' for Active; 'I' for Inactive)
DOCKED: REMARK    1  A    between atoms: C_2  and  C_19 
DOCKED: REMARK    2  A    between atoms: C_2  and  C_11 
DOCKED: REMARK    3  A    between atoms: C_19  and  C_20 
DOCKED: REMARK    4  A    between atoms: C_20  and  C_21 
DOCKED: REMARK    5  A    between atoms: C_21  and  N_22 
DOCKED: USER                              x       y       z     vdW  Elec       q    Type
DOCKED: USER                           _______ _______ _______ _____ _____    ______ ____
DOCKED: ROOT
DOCKED: ATOM      1  O   UNL     1     -32.483  -5.383   2.174 -0.04 -0.00    -0.346 OA 
DOCKED: ATOM      2  C   UNL     1     -32.058  -5.380   0.774 -0.07 +0.00    +0.130 C  
DOCKED: ATOM      3  C   UNL     1     -33.293  -5.784   0.022 -0.14 +0.00    +0.004 A  
DOCKED: ATOM      4  C   UNL     1     -34.359  -5.901   0.903 -0.24 +0.00    +0.006 A  
DOCKED: ATOM      5  C   UNL     1     -33.914  -5.574   2.276 -0.10 +0.00    +0.169 C  
DOCKED: ATOM      6  C   UNL     1     -33.462  -6.019  -1.334 -0.17 -0.00    -0.001 A  
DOCKED: ATOM      7  C   UNL     1     -35.622  -6.258   0.463 -0.32 +0.00    +0.008 A  
DOCKED: ATOM      8  C   UNL     1     -34.729  -6.385  -1.793 -0.26 +0.00    +0.010 A  
DOCKED: ATOM      9  C   UNL     1     -35.803  -6.503  -0.899 -0.32 +0.00    +0.068 A  
DOCKED: ATOM     10  N   UNL     1     -38.142  -7.179  -1.785 -2.42 -0.00    -0.191 NA 
DOCKED: ATOM     11  C   UNL     1     -37.093  -6.877  -1.387 -0.41 +0.00    +0.101 C  
DOCKED: ENDROOT
DOCKED: BRANCH   2  12
DOCKED: ATOM     12  C   UNL     1     -31.580  -3.977   0.418 -0.09 +0.00    +0.038 C  
DOCKED: BRANCH  12  13
DOCKED: ATOM     13  C   UNL     1     -32.750  -3.001   0.305 -0.19 +0.00    +0.038 C  
DOCKED: BRANCH  13  14
DOCKED: ATOM     14  C   UNL     1     -32.498  -1.743   1.135 -0.06 +0.00    +0.251 C  
DOCKED: BRANCH  14  15
DOCKED: ATOM     15  N   UNL     1     -33.686  -1.399   1.907 -0.10 +0.00    +0.141 N  
DOCKED: ATOM     16  C   UNL     1     -34.779  -2.328   1.615 -0.15 +0.00    +0.285 C  
DOCKED: ATOM     17  C   UNL     1     -33.388  -1.400   3.340 -0.04 +0.00    +0.285 C  
DOCKED: ENDBRANCH  14  15
DOCKED: ENDBRANCH  13  14
DOCKED: ENDBRANCH  12  13
DOCKED: ENDBRANCH   2  12
DOCKED: BRANCH   2  18
DOCKED: ATOM     18  C   UNL     1     -30.951  -6.373   0.652 -0.03 +0.00    +0.006 A  
DOCKED: ATOM     19  C   UNL     1     -30.437  -6.692  -0.604 -0.02 +0.00    +0.001 A  
DOCKED: ATOM     20  C   UNL     1     -29.402  -7.621  -0.716 -0.00 +0.00    +0.029 A  
DOCKED: ATOM     21  C   UNL     1     -28.883  -8.229   0.426 -0.00 +0.00    +0.140 A  
DOCKED: ATOM     22  C   UNL     1     -29.398  -7.910   1.682 -0.00 +0.00    +0.029 A  
DOCKED: ATOM     23  F   UNL     1     -27.889  -9.120   0.318 +0.00 -0.00    -0.204 F  
DOCKED: ATOM     24  C   UNL     1     -30.434  -6.981   1.796 -0.02 +0.00    +0.001 A  
DOCKED: ENDBRANCH   2  18
DOCKED: TORSDOF 5
DOCKED: TER
DOCKED: ENDMDL
________________________________________________________________________________


    FINAL DOCKED STATE:
    ________________________


Run:   31 / 512
Time taken for this run:   0.002s

DOCKED: MODEL        31
DOCKED: USER    Run = 31
DOCKED: USER
DOCKED: USER    Estimated Free Energy of Binding    =  -4.17 kcal/mol  [=(1)+(2)+(3)-(4)]
DOCKED: USER
DOCKED: USER    (1) Final Intermolecular Energy     =  -5.67 kcal/mol
DOCKED: USER        vdW + Hbond + desolv Energy     =  -5.67 kcal/mol
DOCKED: USER        Electrostatic Energy            =  +0.00 kcal/mol
DOCKED: USER        Moving Ligand-Fixed Receptor    =  -5.67 kcal/mol
DOCKED: USER        Moving Ligand-Moving Receptor   =  +0.00 kcal/mol
DOCKED: USER    (2) Final Total Internal Energy     =  -1.42 kcal/mol
DOCKED: USER    (3) Torsional Free Energy           =  +1.49 kcal/mol
DOCKED: USER    (4) Unbound System's Energy         =  -1.42 kcal/mol
DOCKED: USER
DOCKED: USER
DOCKED: REMARK  5 active torsions:
DOCKED: REMARK  status: ('A' for Active; 'I' for Inactive)
DOCKED: REMARK    1  A    between atoms: C_2  and  C_19 
DOCKED: REMARK    2  A    between atoms: C_2  and  C_11 
DOCKED: REMARK    3  A    between atoms: C_19  and  C_20 
DOCKED: REMARK    4  A    between atoms: C_20  and  C_21 
DOCKED: REMARK    5  A    between atoms: C_21  and  N_22 
DOCKED: USER                              x       y       z     vdW  Elec       q    Type
DOCKED: USER                           _______ _______ _______ _____ _____    ______ ____
DOCKED: ROOT
DOCKED: ATOM      1  O   UNL     1     -37.185 -10.169   5.202 -0.08 -0.00    -0.346 OA 
DOCKED: ATOM      2  C   UNL     1     -35.956 -10.317   4.420 -0.16 +0.00    +0.130 C  
DOCKED: ATOM      3  C   UNL     1     -36.306  -9.726   3.085 -0.26 +0.00    +0.004 A  
DOCKED: ATOM      4  C   UNL     1     -37.584  -9.187   3.134 -0.22 +0.00    +0.006 A  
DOCKED: ATOM      5  C   UNL     1     -38.156  -9.370   4.487 -0.27 +0.00    +0.169 C  
DOCKED: ATOM      6  C   UNL     1     -35.550  -9.659   1.924 -0.23 -0.00    -0.001 A  
DOCKED: ATOM      7  C   UNL     1     -38.149  -8.571   2.030 +0.06 +0.00    +0.008 A  
DOCKED: ATOM      8  C   UNL     1     -36.107  -9.045   0.801 -0.26 +0.00    +0.010 A  
DOCKED: ATOM      9  C   UNL     1     -37.400  -8.504   0.854 -0.30 +0.00    +0.068 A  
DOCKED: ATOM     10  N   UNL     1     -38.403  -7.366  -1.247 -2.34 -0.00    -0.191 NA 
DOCKED: ATOM     11  C   UNL     1     -37.953  -7.877  -0.305 -0.17 +0.00    +0.101 C  
DOCKED: ENDROOT
DOCKED: BRANCH   2  12
DOCKED: ATOM     12  C   UNL     1     -34.839  -9.561   5.129 -0.16 +0.00    +0.038 C  
DOCKED: BRANCH  12  13
DOCKED: ATOM     13  C   UNL     1     -35.120  -9.425   6.624 -0.14 +0.00    +0.038 C  
DOCKED: BRANCH  13  14
DOCKED: ATOM     14  C   UNL     1     -34.083 -10.184   7.450 -0.03 +0.00    +0.251 C  
DOCKED: BRANCH  14  15
DOCKED: ATOM     15  N   UNL     1     -34.630 -11.456   7.907 -0.03 +0.00    +0.141 N  
DOCKED: ATOM     16  C   UNL     1     -34.160 -11.764   9.258 -0.01 +0.00    +0.285 C  
DOCKED: ATOM     17  C   UNL     1     -36.094 -11.430   7.873 -0.05 +0.00    +0.285 C  
DOCKED: ENDBRANCH  14  15
DOCKED: ENDBRANCH  13  14
DOCKED: ENDBRANCH  12  13
DOCKED: ENDBRANCH   2  12
DOCKED: BRANCH   2  18
DOCKED: ATOM     18  C   UNL     1     -35.658 -11.777   4.349 -0.14 +0.00    +0.006 A  
DOCKED: ATOM     19  C   UNL     1     -36.702 -12.700   4.288 -0.23 +0.00    +0.001 A  
DOCKED: ATOM     20  C   UNL     1     -36.421 -14.065   4.222 -0.15 +0.00    +0.029 A  
DOCKED: ATOM     21  C   UNL     1     -35.099 -14.506   4.215 -0.22 +0.00    +0.140 A  
DOCKED: ATOM     22  C   UNL     1     -34.055 -13.583   4.275 -0.10 +0.00    +0.029 A  
DOCKED: ATOM     23  F   UNL     1     -34.830 -15.816   4.150 -0.11 -0.00    -0.204 F  
DOCKED: ATOM     24  C   UNL     1     -34.335 -12.217   4.342 -0.07 +0.00    +0.001 A  
DOCKED: ENDBRANCH   2  18
DOCKED: TORSDOF 5
DOCKED: TER
DOCKED: ENDMDL
________________________________________________________________________________


    FINAL DOCKED STATE:
    ________________________


Run:   32 / 512
Time taken for this run:   0.002s

DOCKED: MODEL        32
DOCKED: USER    Run = 32
DOCKED: USER
DOCKED: USER    Estimated Free Energy of Binding    =  -5.44 kcal/mol  [=(1)+(2)+(3)-(4)]
DOCKED: USER
DOCKED: USER    (1) Final Intermolecular Energy     =  -6.93 kcal/mol
DOCKED: USER        vdW + Hbond + desolv Energy     =  -6.93 kcal/mol
DOCKED: USER        Electrostatic Energy            =  +0.00 kcal/mol
DOCKED: USER        Moving Ligand-Fixed Receptor    =  -6.93 kcal/mol
DOCKED: USER        Moving Ligand-Moving Receptor   =  +0.00 kcal/mol
DOCKED: USER    (2) Final Total Internal Energy     =  -1.11 kcal/mol
DOCKED: USER    (3) Torsional Free Energy           =  +1.49 kcal/mol
DOCKED: USER    (4) Unbound System's Energy         =  -1.11 kcal/mol
DOCKED: USER
DOCKED: USER
DOCKED: REMARK  5 active torsions:
DOCKED: REMARK  status: ('A' for Active; 'I' for Inactive)
DOCKED: REMARK    1  A    between atoms: C_2  and  C_19 
DOCKED: REMARK    2  A    between atoms: C_2  and  C_11 
DOCKED: REMARK    3  A    between atoms: C_19  and  C_20 
DOCKED: REMARK    4  A    between atoms: C_20  and  C_21 
DOCKED: REMARK    5  A    between atoms: C_21  and  N_22 
DOCKED: USER                              x       y       z     vdW  Elec       q    Type
DOCKED: USER                           _______ _______ _______ _____ _____    ______ ____
DOCKED: ROOT
DOCKED: ATOM      1  O   UNL     1     -38.955 -16.180  11.562 -0.03 -0.00    -0.346 OA 
DOCKED: ATOM      2  C   UNL     1     -38.641 -17.609  11.577 -0.19 +0.00    +0.130 C  
DOCKED: ATOM      3  C   UNL     1     -39.126 -18.098  10.242 -0.32 +0.00    +0.004 A  
DOCKED: ATOM      4  C   UNL     1     -39.576 -17.024   9.488 -0.33 +0.00    +0.006 A  
DOCKED: ATOM      5  C   UNL     1     -39.411 -15.768  10.253 -0.22 +0.00    +0.169 C  
DOCKED: ATOM      6  C   UNL     1     -39.156 -19.387   9.733 -0.39 -0.00    -0.001 A  
DOCKED: ATOM      7  C   UNL     1     -40.073 -17.200   8.208 -0.08 +0.00    +0.008 A  
DOCKED: ATOM      8  C   UNL     1     -39.658 -19.583   8.445 -0.47 +0.00    +0.010 A  
DOCKED: ATOM      9  C   UNL     1     -40.114 -18.494   7.686 -0.40 +0.00    +0.068 A  
DOCKED: ATOM     10  N   UNL     1     -41.035 -18.891   5.297 -2.62 -0.00    -0.191 NA 
DOCKED: ATOM     11  C   UNL     1     -40.622 -18.713   6.369 -0.48 +0.00    +0.101 C  
DOCKED: ENDROOT
DOCKED: BRANCH   2  12
DOCKED: ATOM     12  C   UNL     1     -37.136 -17.771  11.756 -0.24 +0.00    +0.038 C  
DOCKED: BRANCH  12  13
DOCKED: ATOM     13  C   UNL     1     -36.490 -16.472  12.234 -0.16 +0.00    +0.038 C  
DOCKED: BRANCH  13  14
DOCKED: ATOM     14  C   UNL     1     -36.123 -15.574  11.053 -0.02 +0.00    +0.251 C  
DOCKED: BRANCH  14  15
DOCKED: ATOM     15  N   UNL     1     -35.406 -14.393  11.518 -0.06 +0.00    +0.141 N  
DOCKED: ATOM     16  C   UNL     1     -34.852 -13.647  10.387 -0.06 +0.00    +0.285 C  
DOCKED: ATOM     17  C   UNL     1     -36.287 -13.533  12.310 -0.02 +0.00    +0.285 C  
DOCKED: ENDBRANCH  14  15
DOCKED: ENDBRANCH  13  14
DOCKED: ENDBRANCH  12  13
DOCKED: ENDBRANCH   2  12
DOCKED: BRANCH   2  18
DOCKED: ATOM     18  C   UNL     1     -39.387 -18.209  12.722 -0.16 +0.00    +0.006 A  
DOCKED: ATOM     19  C   UNL     1     -38.865 -18.127  14.012 -0.13 +0.00    +0.001 A  
DOCKED: ATOM     20  C   UNL     1     -39.564 -18.688  15.082 -0.12 +0.00    +0.029 A  
DOCKED: ATOM     21  C   UNL     1     -40.782 -19.329  14.860 -0.10 +0.00    +0.140 A  
DOCKED: ATOM     22  C   UNL     1     -41.303 -19.410  13.569 -0.14 +0.00    +0.029 A  
DOCKED: ATOM     23  F   UNL     1     -41.453 -19.866  15.887 -0.02 -0.00    -0.204 F  
DOCKED: ATOM     24  C   UNL     1     -40.605 -18.850  12.498 -0.19 +0.00    +0.001 A  
DOCKED: ENDBRANCH   2  18
DOCKED: TORSDOF 5
DOCKED: TER
DOCKED: ENDMDL
________________________________________________________________________________


    FINAL DOCKED STATE:
    ________________________


Run:   33 / 512
Time taken for this run:   0.002s

DOCKED: MODEL        33
DOCKED: USER    Run = 33
DOCKED: USER
DOCKED: USER    Estimated Free Energy of Binding    =  -4.40 kcal/mol  [=(1)+(2)+(3)-(4)]
DOCKED: USER
DOCKED: USER    (1) Final Intermolecular Energy     =  -5.89 kcal/mol
DOCKED: USER        vdW + Hbond + desolv Energy     =  -5.89 kcal/mol
DOCKED: USER        Electrostatic Energy            =  +0.00 kcal/mol
DOCKED: USER        Moving Ligand-Fixed Receptor    =  -5.89 kcal/mol
DOCKED: USER        Moving Ligand-Moving Receptor   =  +0.00 kcal/mol
DOCKED: USER    (2) Final Total Internal Energy     =  -1.32 kcal/mol
DOCKED: USER    (3) Torsional Free Energy           =  +1.49 kcal/mol
DOCKED: USER    (4) Unbound System's Energy         =  -1.32 kcal/mol
DOCKED: USER
DOCKED: USER
DOCKED: REMARK  5 active torsions:
DOCKED: REMARK  status: ('A' for Active; 'I' for Inactive)
DOCKED: REMARK    1  A    between atoms: C_2  and  C_19 
DOCKED: REMARK    2  A    between atoms: C_2  and  C_11 
DOCKED: REMARK    3  A    between atoms: C_19  and  C_20 
DOCKED: REMARK    4  A    between atoms: C_20  and  C_21 
DOCKED: REMARK    5  A    between atoms: C_21  and  N_22 
DOCKED: USER                              x       y       z     vdW  Elec       q    Type
DOCKED: USER                           _______ _______ _______ _____ _____    ______ ____
DOCKED: ROOT
DOCKED: ATOM      1  O   UNL     1     -37.430 -10.063   4.703 -0.11 -0.00    -0.346 OA 
DOCKED: ATOM      2  C   UNL     1     -36.078  -9.870   4.179 -0.19 +0.00    +0.130 C  
DOCKED: ATOM      3  C   UNL     1     -36.300  -9.248   2.831 -0.21 +0.00    +0.004 A  
DOCKED: ATOM      4  C   UNL     1     -37.653  -9.005   2.646 -0.14 +0.00    +0.006 A  
DOCKED: ATOM      5  C   UNL     1     -38.409  -9.430   3.845 -0.03 +0.00    +0.169 C  
DOCKED: ATOM      6  C   UNL     1     -35.376  -8.914   1.851 -0.22 -0.00    -0.001 A  
DOCKED: ATOM      7  C   UNL     1     -38.129  -8.428   1.481 -0.24 +0.00    +0.008 A  
DOCKED: ATOM      8  C   UNL     1     -35.841  -8.335   0.669 -0.28 +0.00    +0.010 A  
DOCKED: ATOM      9  C   UNL     1     -37.210  -8.093   0.485 -0.35 +0.00    +0.068 A  
DOCKED: ATOM     10  N   UNL     1     -38.039  -7.012  -1.719 -2.48 -0.00    -0.191 NA 
DOCKED: ATOM     11  C   UNL     1     -37.667  -7.498  -0.731 -0.36 +0.00    +0.101 C  
DOCKED: ENDROOT
DOCKED: BRANCH   2  12
DOCKED: ATOM     12  C   UNL     1     -35.316  -8.958   5.134 -0.12 +0.00    +0.038 C  
DOCKED: BRANCH  12  13
DOCKED: ATOM     13  C   UNL     1     -36.030  -8.839   6.479 -0.18 +0.00    +0.038 C  
DOCKED: BRANCH  13  14
DOCKED: ATOM     14  C   UNL     1     -36.161 -10.203   7.155 -0.07 +0.00    +0.251 C  
DOCKED: BRANCH  14  15
DOCKED: ATOM     15  N   UNL     1     -37.185 -10.158   8.192 -0.06 +0.00    +0.141 N  
DOCKED: ATOM     16  C   UNL     1     -37.792  -8.828   8.262 -0.05 +0.00    +0.285 C  
DOCKED: ATOM     17  C   UNL     1     -38.212 -11.172   7.946 -0.02 +0.00    +0.285 C  
DOCKED: ENDBRANCH  14  15
DOCKED: ENDBRANCH  13  14
DOCKED: ENDBRANCH  12  13
DOCKED: ENDBRANCH   2  12
DOCKED: BRANCH   2  18
DOCKED: ATOM     18  C   UNL     1     -35.443 -11.218   4.101 -0.13 +0.00    +0.006 A  
DOCKED: ATOM     19  C   UNL     1     -36.239 -12.355   3.968 -0.21 +0.00    +0.001 A  
DOCKED: ATOM     20  C   UNL     1     -35.645 -13.616   3.895 -0.20 +0.00    +0.029 A  
DOCKED: ATOM     21  C   UNL     1     -34.257 -13.737   3.955 -0.12 +0.00    +0.140 A  
DOCKED: ATOM     22  C   UNL     1     -33.462 -12.599   4.088 -0.04 +0.00    +0.029 A  
DOCKED: ATOM     23  F   UNL     1     -33.687 -14.947   3.883 -0.04 -0.00    -0.204 F  
DOCKED: ATOM     24  C   UNL     1     -34.056 -11.338   4.161 -0.06 +0.00    +0.001 A  
DOCKED: ENDBRANCH   2  18
DOCKED: TORSDOF 5
DOCKED: TER
DOCKED: ENDMDL
________________________________________________________________________________


    FINAL DOCKED STATE:
    ________________________


Run:   34 / 512
Time taken for this run:   0.002s

DOCKED: MODEL        34
DOCKED: USER    Run = 34
DOCKED: USER
DOCKED: USER    Estimated Free Energy of Binding    =  -4.56 kcal/mol  [=(1)+(2)+(3)-(4)]
DOCKED: USER
DOCKED: USER    (1) Final Intermolecular Energy     =  -6.06 kcal/mol
DOCKED: USER        vdW + Hbond + desolv Energy     =  -6.06 kcal/mol
DOCKED: USER        Electrostatic Energy            =  +0.00 kcal/mol
DOCKED: USER        Moving Ligand-Fixed Receptor    =  -6.06 kcal/mol
DOCKED: USER        Moving Ligand-Moving Receptor   =  +0.00 kcal/mol
DOCKED: USER    (2) Final Total Internal Energy     =  -1.23 kcal/mol
DOCKED: USER    (3) Torsional Free Energy           =  +1.49 kcal/mol
DOCKED: USER    (4) Unbound System's Energy         =  -1.23 kcal/mol
DOCKED: USER
DOCKED: USER
DOCKED: REMARK  5 active torsions:
DOCKED: REMARK  status: ('A' for Active; 'I' for Inactive)
DOCKED: REMARK    1  A    between atoms: C_2  and  C_19 
DOCKED: REMARK    2  A    between atoms: C_2  and  C_11 
DOCKED: REMARK    3  A    between atoms: C_19  and  C_20 
DOCKED: REMARK    4  A    between atoms: C_20  and  C_21 
DOCKED: REMARK    5  A    between atoms: C_21  and  N_22 
DOCKED: USER                              x       y       z     vdW  Elec       q    Type
DOCKED: USER                           _______ _______ _______ _____ _____    ______ ____
DOCKED: ROOT
DOCKED: ATOM      1  O   UNL     1     -35.360 -10.704   3.249 -0.04 -0.00    -0.346 OA 
DOCKED: ATOM      2  C   UNL     1     -34.343 -10.615   2.200 -0.10 +0.00    +0.130 C  
DOCKED: ATOM      3  C   UNL     1     -34.991  -9.768   1.143 -0.19 +0.00    +0.004 A  
DOCKED: ATOM      4  C   UNL     1     -36.225  -9.321   1.594 -0.29 +0.00    +0.006 A  
DOCKED: ATOM      5  C   UNL     1     -36.470  -9.822   2.965 -0.24 +0.00    +0.169 C  
DOCKED: ATOM      6  C   UNL     1     -34.521  -9.413  -0.113 -0.16 -0.00    -0.001 A  
DOCKED: ATOM      7  C   UNL     1     -37.029  -8.511   0.810 -0.34 +0.00    +0.008 A  
DOCKED: ATOM      8  C   UNL     1     -35.322  -8.601  -0.918 -0.22 +0.00    +0.010 A  
DOCKED: ATOM      9  C   UNL     1     -36.569  -8.152  -0.458 -0.17 +0.00    +0.068 A  
DOCKED: ATOM     10  N   UNL     1     -38.029  -6.642  -1.975 -2.46 -0.00    -0.191 NA 
DOCKED: ATOM     11  C   UNL     1     -37.375  -7.320  -1.295 -0.37 +0.00    +0.101 C  
DOCKED: ENDROOT
DOCKED: BRANCH   2  12
DOCKED: ATOM     12  C   UNL     1     -33.094  -9.973   2.792 -0.06 +0.00    +0.038 C  
DOCKED: BRANCH  12  13
DOCKED: ATOM     13  C   UNL     1     -32.849  -8.585   2.203 -0.09 +0.00    +0.038 C  
DOCKED: BRANCH  13  14
DOCKED: ATOM     14  C   UNL     1     -33.574  -7.510   3.010 -0.04 +0.00    +0.251 C  
DOCKED: BRANCH  14  15
DOCKED: ATOM     15  N   UNL     1     -33.450  -6.213   2.354 -0.16 +0.00    +0.141 N  
DOCKED: ATOM     16  C   UNL     1     -32.096  -6.028   1.830 -0.05 +0.00    +0.285 C  
DOCKED: ATOM     17  C   UNL     1     -34.433  -6.084   1.277 -0.13 +0.00    +0.285 C  
DOCKED: ENDBRANCH  14  15
DOCKED: ENDBRANCH  13  14
DOCKED: ENDBRANCH  12  13
DOCKED: ENDBRANCH   2  12
DOCKED: BRANCH   2  18
DOCKED: ATOM     18  C   UNL     1     -34.067 -12.008   1.741 -0.12 +0.00    +0.006 A  
DOCKED: ATOM     19  C   UNL     1     -32.961 -12.698   2.236 -0.05 +0.00    +0.001 A  
DOCKED: ATOM     20  C   UNL     1     -32.703 -14.000   1.805 -0.09 +0.00    +0.029 A  
DOCKED: ATOM     21  C   UNL     1     -33.551 -14.610   0.882 -0.18 +0.00    +0.140 A  
DOCKED: ATOM     22  C   UNL     1     -34.657 -13.919   0.388 -0.22 +0.00    +0.029 A  
DOCKED: ATOM     23  F   UNL     1     -33.305 -15.860   0.470 -0.09 -0.00    -0.204 F  
DOCKED: ATOM     24  C   UNL     1     -34.916 -12.616   0.817 -0.23 +0.00    +0.001 A  
DOCKED: ENDBRANCH   2  18
DOCKED: TORSDOF 5
DOCKED: TER
DOCKED: ENDMDL
________________________________________________________________________________


    FINAL DOCKED STATE:
    ________________________


Run:   35 / 512
Time taken for this run:   0.002s

DOCKED: MODEL        35
DOCKED: USER    Run = 35
DOCKED: USER
DOCKED: USER    Estimated Free Energy of Binding    =  -4.34 kcal/mol  [=(1)+(2)+(3)-(4)]
DOCKED: USER
DOCKED: USER    (1) Final Intermolecular Energy     =  -5.83 kcal/mol
DOCKED: USER        vdW + Hbond + desolv Energy     =  -5.83 kcal/mol
DOCKED: USER        Electrostatic Energy            =  +0.00 kcal/mol
DOCKED: USER        Moving Ligand-Fixed Receptor    =  -5.83 kcal/mol
DOCKED: USER        Moving Ligand-Moving Receptor   =  +0.00 kcal/mol
DOCKED: USER    (2) Final Total Internal Energy     =  -1.29 kcal/mol
DOCKED: USER    (3) Torsional Free Energy           =  +1.49 kcal/mol
DOCKED: USER    (4) Unbound System's Energy         =  -1.29 kcal/mol
DOCKED: USER
DOCKED: USER
DOCKED: REMARK  5 active torsions:
DOCKED: REMARK  status: ('A' for Active; 'I' for Inactive)
DOCKED: REMARK    1  A    between atoms: C_2  and  C_19 
DOCKED: REMARK    2  A    between atoms: C_2  and  C_11 
DOCKED: REMARK    3  A    between atoms: C_19  and  C_20 
DOCKED: REMARK    4  A    between atoms: C_20  and  C_21 
DOCKED: REMARK    5  A    between atoms: C_21  and  N_22 
DOCKED: USER                              x       y       z     vdW  Elec       q    Type
DOCKED: USER                           _______ _______ _______ _____ _____    ______ ____
DOCKED: ROOT
DOCKED: ATOM      1  O   UNL     1     -37.904 -14.331  11.050 -0.04 -0.00    -0.346 OA 
DOCKED: ATOM      2  C   UNL     1     -39.361 -14.209  11.109 -0.12 +0.00    +0.130 C  
DOCKED: ATOM      3  C   UNL     1     -39.854 -15.527  10.586 -0.21 +0.00    +0.004 A  
DOCKED: ATOM      4  C   UNL     1     -38.776 -16.369  10.352 -0.26 +0.00    +0.006 A  
DOCKED: ATOM      5  C   UNL     1     -37.515 -15.683  10.711 -0.14 +0.00    +0.169 C  
DOCKED: ATOM      6  C   UNL     1     -41.153 -15.951  10.346 -0.22 -0.00    -0.001 A  
DOCKED: ATOM      7  C   UNL     1     -38.957 -17.654   9.870 -0.32 +0.00    +0.008 A  
DOCKED: ATOM      8  C   UNL     1     -41.351 -17.243   9.856 -0.24 +0.00    +0.010 A  
DOCKED: ATOM      9  C   UNL     1     -40.259 -18.090   9.620 -0.27 +0.00    +0.068 A  
DOCKED: ATOM     10  N   UNL     1     -40.663 -20.484   8.715 -2.60 -0.00    -0.191 NA 
DOCKED: ATOM     11  C   UNL     1     -40.481 -19.410   9.120 -0.36 +0.00    +0.101 C  
DOCKED: ENDROOT
DOCKED: BRANCH   2  12
DOCKED: ATOM     12  C   UNL     1     -39.766 -13.957  12.557 -0.04 +0.00    +0.038 C  
DOCKED: BRANCH  12  13
DOCKED: ATOM     13  C   UNL     1     -38.547 -13.919  13.477 -0.02 +0.00    +0.038 C  
DOCKED: BRANCH  13  14
DOCKED: ATOM     14  C   UNL     1     -38.128 -15.329  13.891 -0.01 +0.00    +0.251 C  
DOCKED: BRANCH  14  15
DOCKED: ATOM     15  N   UNL     1     -36.713 -15.354  14.243 -0.01 +0.00    +0.141 N  
DOCKED: ATOM     16  C   UNL     1     -36.107 -16.628  13.851 -0.04 +0.00    +0.285 C  
DOCKED: ATOM     17  C   UNL     1     -36.005 -14.240  13.612 -0.01 +0.00    +0.285 C  
DOCKED: ENDBRANCH  14  15
DOCKED: ENDBRANCH  13  14
DOCKED: ENDBRANCH  12  13
DOCKED: ENDBRANCH   2  12
DOCKED: BRANCH   2  18
DOCKED: ATOM     18  C   UNL     1     -39.738 -13.059  10.236 -0.17 +0.00    +0.006 A  
DOCKED: ATOM     19  C   UNL     1     -38.750 -12.337   9.569 -0.13 +0.00    +0.001 A  
DOCKED: ATOM     20  C   UNL     1     -39.104 -11.261   8.754 -0.12 +0.00    +0.029 A  
DOCKED: ATOM     21  C   UNL     1     -40.445 -10.910   8.606 -0.12 +0.00    +0.140 A  
DOCKED: ATOM     22  C   UNL     1     -41.433 -11.633   9.273 -0.14 +0.00    +0.029 A  
DOCKED: ATOM     23  F   UNL     1     -40.785  -9.879   7.821 -0.03 -0.00    -0.204 F  
DOCKED: ATOM     24  C   UNL     1     -41.080 -12.709  10.090 -0.20 +0.00    +0.001 A  
DOCKED: ENDBRANCH   2  18
DOCKED: TORSDOF 5
DOCKED: TER
DOCKED: ENDMDL
________________________________________________________________________________


    FINAL DOCKED STATE:
    ________________________


Run:   36 / 512
Time taken for this run:   0.002s

DOCKED: MODEL        36
DOCKED: USER    Run = 36
DOCKED: USER
DOCKED: USER    Estimated Free Energy of Binding    =  -5.62 kcal/mol  [=(1)+(2)+(3)-(4)]
DOCKED: USER
DOCKED: USER    (1) Final Intermolecular Energy     =  -7.12 kcal/mol
DOCKED: USER        vdW + Hbond + desolv Energy     =  -7.12 kcal/mol
DOCKED: USER        Electrostatic Energy            =  +0.00 kcal/mol
DOCKED: USER        Moving Ligand-Fixed Receptor    =  -7.12 kcal/mol
DOCKED: USER        Moving Ligand-Moving Receptor   =  +0.00 kcal/mol
DOCKED: USER    (2) Final Total Internal Energy     =  -1.37 kcal/mol
DOCKED: USER    (3) Torsional Free Energy           =  +1.49 kcal/mol
DOCKED: USER    (4) Unbound System's Energy         =  -1.37 kcal/mol
DOCKED: USER
DOCKED: USER
DOCKED: REMARK  5 active torsions:
DOCKED: REMARK  status: ('A' for Active; 'I' for Inactive)
DOCKED: REMARK    1  A    between atoms: C_2  and  C_19 
DOCKED: REMARK    2  A    between atoms: C_2  and  C_11 
DOCKED: REMARK    3  A    between atoms: C_19  and  C_20 
DOCKED: REMARK    4  A    between atoms: C_20  and  C_21 
DOCKED: REMARK    5  A    between atoms: C_21  and  N_22 
DOCKED: USER                              x       y       z     vdW  Elec       q    Type
DOCKED: USER                           _______ _______ _______ _____ _____    ______ ____
DOCKED: ROOT
DOCKED: ATOM      1  O   UNL     1     -39.203 -17.732  11.395 -0.05 -0.00    -0.346 OA 
DOCKED: ATOM      2  C   UNL     1     -40.565 -18.269  11.408 -0.15 +0.00    +0.130 C  
DOCKED: ATOM      3  C   UNL     1     -40.881 -18.482   9.956 -0.27 +0.00    +0.004 A  
DOCKED: ATOM      4  C   UNL     1     -39.761 -18.198   9.188 -0.38 +0.00    +0.006 A  
DOCKED: ATOM      5  C   UNL     1     -38.639 -17.796  10.065 -0.25 +0.00    +0.169 C  
DOCKED: ATOM      6  C   UNL     1     -42.062 -18.905   9.364 -0.29 -0.00    -0.001 A  
DOCKED: ATOM      7  C   UNL     1     -39.784 -18.321   7.809 -0.32 +0.00    +0.008 A  
DOCKED: ATOM      8  C   UNL     1     -42.102 -19.030   7.974 -0.31 +0.00    +0.010 A  
DOCKED: ATOM      9  C   UNL     1     -40.968 -18.740   7.201 -0.40 +0.00    +0.068 A  
DOCKED: ATOM     10  N   UNL     1     -41.074 -18.988   4.624 -3.07 -0.00    -0.191 NA 
DOCKED: ATOM     11  C   UNL     1     -41.027 -18.876   5.780 -0.28 +0.00    +0.101 C  
DOCKED: ENDROOT
DOCKED: BRANCH   2  12
DOCKED: ATOM     12  C   UNL     1     -40.566 -19.563  12.213 -0.27 +0.00    +0.038 C  
DOCKED: BRANCH  12  13
DOCKED: ATOM     13  C   UNL     1     -39.146 -19.997  12.571 -0.30 +0.00    +0.038 C  
DOCKED: BRANCH  13  14
DOCKED: ATOM     14  C   UNL     1     -38.640 -19.256  13.807 -0.13 +0.00    +0.251 C  
DOCKED: BRANCH  14  15
DOCKED: ATOM     15  N   UNL     1     -39.679 -19.206  14.829 -0.13 +0.00    +0.141 N  
DOCKED: ATOM     16  C   UNL     1     -39.349 -20.094  15.945 -0.13 +0.00    +0.285 C  
DOCKED: ATOM     17  C   UNL     1     -39.866 -17.835  15.309 -0.02 +0.00    +0.285 C  
DOCKED: ENDBRANCH  14  15
DOCKED: ENDBRANCH  13  14
DOCKED: ENDBRANCH  12  13
DOCKED: ENDBRANCH   2  12
DOCKED: BRANCH   2  18
DOCKED: ATOM     18  C   UNL     1     -41.434 -17.237  12.048 -0.09 +0.00    +0.006 A  
DOCKED: ATOM     19  C   UNL     1     -41.010 -15.910  12.109 -0.08 +0.00    +0.001 A  
DOCKED: ATOM     20  C   UNL     1     -41.823 -14.947  12.708 -0.04 +0.00    +0.029 A  
DOCKED: ATOM     21  C   UNL     1     -43.058 -15.312  13.242 -0.01 +0.00    +0.140 A  
DOCKED: ATOM     22  C   UNL     1     -43.481 -16.639  13.180 -0.05 +0.00    +0.029 A  
DOCKED: ATOM     23  F   UNL     1     -43.839 -14.387  13.815 +0.01 -0.00    -0.204 F  
DOCKED: ATOM     24  C   UNL     1     -42.668 -17.604  12.582 -0.09 +0.00    +0.001 A  
DOCKED: ENDBRANCH   2  18
DOCKED: TORSDOF 5
DOCKED: TER
DOCKED: ENDMDL
________________________________________________________________________________


    FINAL DOCKED STATE:
    ________________________


Run:   37 / 512
Time taken for this run:   0.002s

DOCKED: MODEL        37
DOCKED: USER    Run = 37
DOCKED: USER
DOCKED: USER    Estimated Free Energy of Binding    =  -4.92 kcal/mol  [=(1)+(2)+(3)-(4)]
DOCKED: USER
DOCKED: USER    (1) Final Intermolecular Energy     =  -6.41 kcal/mol
DOCKED: USER        vdW + Hbond + desolv Energy     =  -6.41 kcal/mol
DOCKED: USER        Electrostatic Energy            =  +0.00 kcal/mol
DOCKED: USER        Moving Ligand-Fixed Receptor    =  -6.41 kcal/mol
DOCKED: USER        Moving Ligand-Moving Receptor   =  +0.00 kcal/mol
DOCKED: USER    (2) Final Total Internal Energy     =  -1.07 kcal/mol
DOCKED: USER    (3) Torsional Free Energy           =  +1.49 kcal/mol
DOCKED: USER    (4) Unbound System's Energy         =  -1.07 kcal/mol
DOCKED: USER
DOCKED: USER
DOCKED: REMARK  5 active torsions:
DOCKED: REMARK  status: ('A' for Active; 'I' for Inactive)
DOCKED: REMARK    1  A    between atoms: C_2  and  C_19 
DOCKED: REMARK    2  A    between atoms: C_2  and  C_11 
DOCKED: REMARK    3  A    between atoms: C_19  and  C_20 
DOCKED: REMARK    4  A    between atoms: C_20  and  C_21 
DOCKED: REMARK    5  A    between atoms: C_21  and  N_22 
DOCKED: USER                              x       y       z     vdW  Elec       q    Type
DOCKED: USER                           _______ _______ _______ _____ _____    ______ ____
DOCKED: ROOT
DOCKED: ATOM      1  O   UNL     1     -42.207 -17.264  11.643 -0.00 -0.00    -0.346 OA 
DOCKED: ATOM      2  C   UNL     1     -40.812 -16.961  11.320 -0.12 +0.00    +0.130 C  
DOCKED: ATOM      3  C   UNL     1     -40.669 -17.403   9.893 -0.26 +0.00    +0.004 A  
DOCKED: ATOM      4  C   UNL     1     -41.901 -17.818   9.407 -0.27 +0.00    +0.006 A  
DOCKED: ATOM      5  C   UNL     1     -42.931 -17.670  10.459 -0.17 +0.00    +0.169 C  
DOCKED: ATOM      6  C   UNL     1     -39.541 -17.424   9.085 -0.37 -0.00    -0.001 A  
DOCKED: ATOM      7  C   UNL     1     -42.047 -18.270   8.106 -0.27 +0.00    +0.008 A  
DOCKED: ATOM      8  C   UNL     1     -39.672 -17.881   7.772 -0.10 +0.00    +0.010 A  
DOCKED: ATOM      9  C   UNL     1     -40.919 -18.302   7.286 -0.34 +0.00    +0.068 A  
DOCKED: ATOM     10  N   UNL     1     -41.127 -19.141   4.843 -2.91 -0.00    -0.191 NA 
DOCKED: ATOM     11  C   UNL     1     -41.033 -18.765   5.939 -0.27 +0.00    +0.101 C  
DOCKED: ENDROOT
DOCKED: BRANCH   2  12
DOCKED: ATOM     12  C   UNL     1     -40.588 -15.465  11.504 -0.13 +0.00    +0.038 C  
DOCKED: BRANCH  12  13
DOCKED: ATOM     13  C   UNL     1     -41.767 -14.655  10.969 -0.20 +0.00    +0.038 C  
DOCKED: BRANCH  13  14
DOCKED: ATOM     14  C   UNL     1     -42.593 -14.067  12.111 -0.03 +0.00    +0.251 C  
DOCKED: BRANCH  14  15
DOCKED: ATOM     15  N   UNL     1     -41.894 -12.939  12.715 -0.02 +0.00    +0.141 N  
DOCKED: ATOM     16  C   UNL     1     -41.072 -13.384  13.841 -0.00 +0.00    +0.285 C  
DOCKED: ATOM     17  C   UNL     1     -41.066 -12.255  11.721 -0.03 +0.00    +0.285 C  
DOCKED: ENDBRANCH  14  15
DOCKED: ENDBRANCH  13  14
DOCKED: ENDBRANCH  12  13
DOCKED: ENDBRANCH   2  12
DOCKED: BRANCH   2  18
DOCKED: ATOM     18  C   UNL     1     -39.965 -17.752  12.261 -0.13 +0.00    +0.006 A  
DOCKED: ATOM     19  C   UNL     1     -39.306 -17.113  13.311 -0.08 +0.00    +0.001 A  
DOCKED: ATOM     20  C   UNL     1     -38.515 -17.854  14.189 -0.10 +0.00    +0.029 A  
DOCKED: ATOM     21  C   UNL     1     -38.383 -19.231  14.017 -0.12 +0.00    +0.140 A  
DOCKED: ATOM     22  C   UNL     1     -39.043 -19.869  12.967 -0.21 +0.00    +0.029 A  
DOCKED: ATOM     23  F   UNL     1     -37.625 -19.942  14.862 -0.06 -0.00    -0.204 F  
DOCKED: ATOM     24  C   UNL     1     -39.835 -19.129  12.088 -0.24 +0.00    +0.001 A  
DOCKED: ENDBRANCH   2  18
DOCKED: TORSDOF 5
DOCKED: TER
DOCKED: ENDMDL
________________________________________________________________________________


    FINAL DOCKED STATE:
    ________________________


Run:   38 / 512
Time taken for this run:   0.002s

DOCKED: MODEL        38
DOCKED: USER    Run = 38
DOCKED: USER
DOCKED: USER    Estimated Free Energy of Binding    =  -3.80 kcal/mol  [=(1)+(2)+(3)-(4)]
DOCKED: USER
DOCKED: USER    (1) Final Intermolecular Energy     =  -5.29 kcal/mol
DOCKED: USER        vdW + Hbond + desolv Energy     =  -5.29 kcal/mol
DOCKED: USER        Electrostatic Energy            =  +0.00 kcal/mol
DOCKED: USER        Moving Ligand-Fixed Receptor    =  -5.29 kcal/mol
DOCKED: USER        Moving Ligand-Moving Receptor   =  +0.00 kcal/mol
DOCKED: USER    (2) Final Total Internal Energy     =  -1.21 kcal/mol
DOCKED: USER    (3) Torsional Free Energy           =  +1.49 kcal/mol
DOCKED: USER    (4) Unbound System's Energy         =  -1.21 kcal/mol
DOCKED: USER
DOCKED: USER
DOCKED: REMARK  5 active torsions:
DOCKED: REMARK  status: ('A' for Active; 'I' for Inactive)
DOCKED: REMARK    1  A    between atoms: C_2  and  C_19 
DOCKED: REMARK    2  A    between atoms: C_2  and  C_11 
DOCKED: REMARK    3  A    between atoms: C_19  and  C_20 
DOCKED: REMARK    4  A    between atoms: C_20  and  C_21 
DOCKED: REMARK    5  A    between atoms: C_21  and  N_22 
DOCKED: USER                              x       y       z     vdW  Elec       q    Type
DOCKED: USER                           _______ _______ _______ _____ _____    ______ ____
DOCKED: ROOT
DOCKED: ATOM      1  O   UNL     1     -32.756  -6.198   2.545 -0.07 -0.00    -0.346 OA 
DOCKED: ATOM      2  C   UNL     1     -32.726  -7.573   2.046 -0.09 +0.00    +0.130 C  
DOCKED: ATOM      3  C   UNL     1     -33.942  -7.665   1.170 -0.14 +0.00    +0.004 A  
DOCKED: ATOM      4  C   UNL     1     -34.552  -6.421   1.086 -0.23 +0.00    +0.006 A  
DOCKED: ATOM      5  C   UNL     1     -33.787  -5.432   1.879 -0.19 +0.00    +0.169 C  
DOCKED: ATOM      6  C   UNL     1     -34.460  -8.758   0.491 -0.16 -0.00    -0.001 A  
DOCKED: ATOM      7  C   UNL     1     -35.696  -6.229   0.331 -0.31 +0.00    +0.008 A  
DOCKED: ATOM      8  C   UNL     1     -35.616  -8.582  -0.271 -0.23 +0.00    +0.010 A  
DOCKED: ATOM      9  C   UNL     1     -36.230  -7.323  -0.352 -0.35 +0.00    +0.068 A  
DOCKED: ATOM     10  N   UNL     1     -38.371  -7.029  -1.780 -2.54 -0.00    -0.191 NA 
DOCKED: ATOM     11  C   UNL     1     -37.411  -7.161  -1.139 -0.39 +0.00    +0.101 C  
DOCKED: ENDROOT
DOCKED: BRANCH   2  12
DOCKED: ATOM     12  C   UNL     1     -31.425  -7.780   1.279 -0.03 +0.00    +0.038 C  
DOCKED: BRANCH  12  13
DOCKED: ATOM     13  C   UNL     1     -31.657  -7.746  -0.230 -0.03 +0.00    +0.038 C  
DOCKED: BRANCH  13  14
DOCKED: ATOM     14  C   UNL     1     -30.917  -6.575  -0.874 -0.00 +0.00    +0.251 C  
DOCKED: BRANCH  14  15
DOCKED: ATOM     15  N   UNL     1     -31.843  -5.751  -1.641 -0.07 +0.00    +0.141 N  
DOCKED: ATOM     16  C   UNL     1     -32.146  -4.511  -0.925 -0.03 +0.00    +0.285 C  
DOCKED: ATOM     17  C   UNL     1     -31.291  -5.451  -2.964 -0.03 +0.00    +0.285 C  
DOCKED: ENDBRANCH  14  15
DOCKED: ENDBRANCH  13  14
DOCKED: ENDBRANCH  12  13
DOCKED: ENDBRANCH   2  12
DOCKED: BRANCH   2  18
DOCKED: ATOM     18  C   UNL     1     -32.798  -8.471   3.236 -0.11 +0.00    +0.006 A  
DOCKED: ATOM     19  C   UNL     1     -32.991  -9.841   3.064 -0.05 +0.00    +0.001 A  
DOCKED: ATOM     20  C   UNL     1     -33.059 -10.679   4.178 -0.03 +0.00    +0.029 A  
DOCKED: ATOM     21  C   UNL     1     -32.933 -10.147   5.460 -0.04 +0.00    +0.140 A  
DOCKED: ATOM     22  C   UNL     1     -32.739  -8.776   5.631 -0.09 +0.00    +0.029 A  
DOCKED: ATOM     23  F   UNL     1     -32.996 -10.952   6.529 +0.00 -0.00    -0.204 F  
DOCKED: ATOM     24  C   UNL     1     -32.672  -7.937   4.517 -0.07 +0.00    +0.001 A  
DOCKED: ENDBRANCH   2  18
DOCKED: TORSDOF 5
DOCKED: TER
DOCKED: ENDMDL
________________________________________________________________________________


    FINAL DOCKED STATE:
    ________________________


Run:   39 / 512
Time taken for this run:   0.002s

DOCKED: MODEL        39
DOCKED: USER    Run = 39
DOCKED: USER
DOCKED: USER    Estimated Free Energy of Binding    =  -4.05 kcal/mol  [=(1)+(2)+(3)-(4)]
DOCKED: USER
DOCKED: USER    (1) Final Intermolecular Energy     =  -5.54 kcal/mol
DOCKED: USER        vdW + Hbond + desolv Energy     =  -5.54 kcal/mol
DOCKED: USER        Electrostatic Energy            =  +0.00 kcal/mol
DOCKED: USER        Moving Ligand-Fixed Receptor    =  -5.54 kcal/mol
DOCKED: USER        Moving Ligand-Moving Receptor   =  +0.00 kcal/mol
DOCKED: USER    (2) Final Total Internal Energy     =  -1.38 kcal/mol
DOCKED: USER    (3) Torsional Free Energy           =  +1.49 kcal/mol
DOCKED: USER    (4) Unbound System's Energy         =  -1.38 kcal/mol
DOCKED: USER
DOCKED: USER
DOCKED: REMARK  5 active torsions:
DOCKED: REMARK  status: ('A' for Active; 'I' for Inactive)
DOCKED: REMARK    1  A    between atoms: C_2  and  C_19 
DOCKED: REMARK    2  A    between atoms: C_2  and  C_11 
DOCKED: REMARK    3  A    between atoms: C_19  and  C_20 
DOCKED: REMARK    4  A    between atoms: C_20  and  C_21 
DOCKED: REMARK    5  A    between atoms: C_21  and  N_22 
DOCKED: USER                              x       y       z     vdW  Elec       q    Type
DOCKED: USER                           _______ _______ _______ _____ _____    ______ ____
DOCKED: ROOT
DOCKED: ATOM      1  O   UNL     1     -30.281 -16.343   2.826 +0.01 -0.00    -0.346 OA 
DOCKED: ATOM      2  C   UNL     1     -31.556 -15.739   3.215 -0.06 +0.00    +0.130 C  
DOCKED: ATOM      3  C   UNL     1     -32.176 -16.762   4.123 -0.12 +0.00    +0.004 A  
DOCKED: ATOM      4  C   UNL     1     -31.287 -17.808   4.324 -0.09 +0.00    +0.006 A  
DOCKED: ATOM      5  C   UNL     1     -30.031 -17.549   3.585 -0.02 +0.00    +0.169 C  
DOCKED: ATOM      6  C   UNL     1     -33.423 -16.761   4.731 -0.25 -0.00    -0.001 A  
DOCKED: ATOM      7  C   UNL     1     -31.612 -18.885   5.131 -0.16 +0.00    +0.008 A  
DOCKED: ATOM      8  C   UNL     1     -33.767 -17.842   5.544 -0.32 +0.00    +0.010 A  
DOCKED: ATOM      9  C   UNL     1     -32.866 -18.898   5.743 -0.29 +0.00    +0.068 A  
DOCKED: ATOM     10  N   UNL     1     -33.535 -20.887   7.263 -2.57 -0.00    -0.191 NA 
DOCKED: ATOM     11  C   UNL     1     -33.235 -19.995   6.581 -0.40 +0.00    +0.101 C  
DOCKED: ENDROOT
DOCKED: BRANCH   2  12
DOCKED: ATOM     12  C   UNL     1     -31.270 -14.418   3.918 -0.02 +0.00    +0.038 C  
DOCKED: BRANCH  12  13
DOCKED: ATOM     13  C   UNL     1     -31.595 -14.498   5.408 -0.03 +0.00    +0.038 C  
DOCKED: BRANCH  13  14
DOCKED: ATOM     14  C   UNL     1     -30.325 -14.411   6.254 -0.01 +0.00    +0.251 C  
DOCKED: BRANCH  14  15
DOCKED: ATOM     15  N   UNL     1     -30.415 -15.312   7.397 -0.02 +0.00    +0.141 N  
DOCKED: ATOM     16  C   UNL     1     -31.812 -15.637   7.689 -0.05 +0.00    +0.285 C  
DOCKED: ATOM     17  C   UNL     1     -29.650 -16.535   7.151 -0.00 +0.00    +0.285 C  
DOCKED: ENDBRANCH  14  15
DOCKED: ENDBRANCH  13  14
DOCKED: ENDBRANCH  12  13
DOCKED: ENDBRANCH   2  12
DOCKED: BRANCH   2  18
DOCKED: ATOM     18  C   UNL     1     -32.337 -15.524   1.962 -0.12 +0.00    +0.006 A  
DOCKED: ATOM     19  C   UNL     1     -32.110 -16.336   0.851 -0.13 +0.00    +0.001 A  
DOCKED: ATOM     20  C   UNL     1     -32.841 -16.133  -0.320 -0.17 +0.00    +0.029 A  
DOCKED: ATOM     21  C   UNL     1     -33.797 -15.121  -0.379 -0.20 +0.00    +0.140 A  
DOCKED: ATOM     22  C   UNL     1     -34.024 -14.309   0.733 -0.21 +0.00    +0.029 A  
DOCKED: ATOM     23  F   UNL     1     -34.500 -14.928  -1.503 -0.13 -0.00    -0.204 F  
DOCKED: ATOM     24  C   UNL     1     -33.293 -14.511   1.905 -0.16 +0.00    +0.001 A  
DOCKED: ENDBRANCH   2  18
DOCKED: TORSDOF 5
DOCKED: TER
DOCKED: ENDMDL
________________________________________________________________________________


    FINAL DOCKED STATE:
    ________________________


Run:   40 / 512
Time taken for this run:   0.002s

DOCKED: MODEL        40
DOCKED: USER    Run = 40
DOCKED: USER
DOCKED: USER    Estimated Free Energy of Binding    =  -3.65 kcal/mol  [=(1)+(2)+(3)-(4)]
DOCKED: USER
DOCKED: USER    (1) Final Intermolecular Energy     =  -5.14 kcal/mol
DOCKED: USER        vdW + Hbond + desolv Energy     =  -5.14 kcal/mol
DOCKED: USER        Electrostatic Energy            =  +0.00 kcal/mol
DOCKED: USER        Moving Ligand-Fixed Receptor    =  -5.14 kcal/mol
DOCKED: USER        Moving Ligand-Moving Receptor   =  +0.00 kcal/mol
DOCKED: USER    (2) Final Total Internal Energy     =  -1.11 kcal/mol
DOCKED: USER    (3) Torsional Free Energy           =  +1.49 kcal/mol
DOCKED: USER    (4) Unbound System's Energy         =  -1.11 kcal/mol
DOCKED: USER
DOCKED: USER
DOCKED: REMARK  5 active torsions:
DOCKED: REMARK  status: ('A' for Active; 'I' for Inactive)
DOCKED: REMARK    1  A    between atoms: C_2  and  C_19 
DOCKED: REMARK    2  A    between atoms: C_2  and  C_11 
DOCKED: REMARK    3  A    between atoms: C_19  and  C_20 
DOCKED: REMARK    4  A    between atoms: C_20  and  C_21 
DOCKED: REMARK    5  A    between atoms: C_21  and  N_22 
DOCKED: USER                              x       y       z     vdW  Elec       q    Type
DOCKED: USER                           _______ _______ _______ _____ _____    ______ ____
DOCKED: ROOT
DOCKED: ATOM      1  O   UNL     1     -42.053 -14.088  11.511 -0.03 -0.00    -0.346 OA 
DOCKED: ATOM      2  C   UNL     1     -40.626 -14.353  11.703 -0.08 +0.00    +0.130 C  
DOCKED: ATOM      3  C   UNL     1     -40.430 -15.714  11.101 -0.15 +0.00    +0.004 A  
DOCKED: ATOM      4  C   UNL     1     -41.614 -16.143  10.518 -0.20 +0.00    +0.006 A  
DOCKED: ATOM      5  C   UNL     1     -42.657 -15.105  10.679 -0.17 +0.00    +0.169 C  
DOCKED: ATOM      6  C   UNL     1     -39.291 -16.506  11.063 -0.18 -0.00    -0.001 A  
DOCKED: ATOM      7  C   UNL     1     -41.702 -17.370   9.884 -0.24 +0.00    +0.008 A  
DOCKED: ATOM      8  C   UNL     1     -39.365 -17.748  10.431 -0.28 +0.00    +0.010 A  
DOCKED: ATOM      9  C   UNL     1     -40.565 -18.178   9.844 -0.24 +0.00    +0.068 A  
DOCKED: ATOM     10  N   UNL     1     -40.667 -20.488   8.675 -2.58 -0.00    -0.191 NA 
DOCKED: ATOM     11  C   UNL     1     -40.621 -19.452   9.200 -0.31 +0.00    +0.101 C  
DOCKED: ENDROOT
DOCKED: BRANCH   2  12
DOCKED: ATOM     12  C   UNL     1     -39.833 -13.267  10.986 -0.13 +0.00    +0.038 C  
DOCKED: BRANCH  12  13
DOCKED: ATOM     13  C   UNL     1     -40.721 -12.081  10.616 -0.13 +0.00    +0.038 C  
DOCKED: BRANCH  13  14
DOCKED: ATOM     14  C   UNL     1     -40.736 -11.856   9.105 -0.08 +0.00    +0.251 C  
DOCKED: BRANCH  14  15
DOCKED: ATOM     15  N   UNL     1     -41.561 -10.700   8.773 -0.14 +0.00    +0.141 N  
DOCKED: ATOM     16  C   UNL     1     -42.699 -10.598   9.687 -0.07 +0.00    +0.285 C  
DOCKED: ATOM     17  C   UNL     1     -40.766  -9.472   8.812 -0.05 +0.00    +0.285 C  
DOCKED: ENDBRANCH  14  15
DOCKED: ENDBRANCH  13  14
DOCKED: ENDBRANCH  12  13
DOCKED: ENDBRANCH   2  12
DOCKED: BRANCH   2  18
DOCKED: ATOM     18  C   UNL     1     -40.371 -14.325  13.173 -0.02 +0.00    +0.006 A  
DOCKED: ATOM     19  C   UNL     1     -40.648 -15.449  13.950 -0.02 +0.00    +0.001 A  
DOCKED: ATOM     20  C   UNL     1     -40.409 -15.421  15.324 -0.00 +0.00    +0.029 A  
DOCKED: ATOM     21  C   UNL     1     -39.894 -14.270  15.919 +0.00 +0.00    +0.140 A  
DOCKED: ATOM     22  C   UNL     1     -39.618 -13.146  15.142 +0.00 +0.00    +0.029 A  
DOCKED: ATOM     23  F   UNL     1     -39.663 -14.244  17.239 +0.00 -0.00    -0.204 F  
DOCKED: ATOM     24  C   UNL     1     -39.856 -13.173  13.767 -0.01 +0.00    +0.001 A  
DOCKED: ENDBRANCH   2  18
DOCKED: TORSDOF 5
DOCKED: TER
DOCKED: ENDMDL
________________________________________________________________________________


    FINAL DOCKED STATE:
    ________________________


Run:   41 / 512
Time taken for this run:   0.002s

DOCKED: MODEL        41
DOCKED: USER    Run = 41
DOCKED: USER
DOCKED: USER    Estimated Free Energy of Binding    =  -4.44 kcal/mol  [=(1)+(2)+(3)-(4)]
DOCKED: USER
DOCKED: USER    (1) Final Intermolecular Energy     =  -5.93 kcal/mol
DOCKED: USER        vdW + Hbond + desolv Energy     =  -5.93 kcal/mol
DOCKED: USER        Electrostatic Energy            =  +0.00 kcal/mol
DOCKED: USER        Moving Ligand-Fixed Receptor    =  -5.93 kcal/mol
DOCKED: USER        Moving Ligand-Moving Receptor   =  +0.00 kcal/mol
DOCKED: USER    (2) Final Total Internal Energy     =  -1.31 kcal/mol
DOCKED: USER    (3) Torsional Free Energy           =  +1.49 kcal/mol
DOCKED: USER    (4) Unbound System's Energy         =  -1.31 kcal/mol
DOCKED: USER
DOCKED: USER
DOCKED: REMARK  5 active torsions:
DOCKED: REMARK  status: ('A' for Active; 'I' for Inactive)
DOCKED: REMARK    1  A    between atoms: C_2  and  C_19 
DOCKED: REMARK    2  A    between atoms: C_2  and  C_11 
DOCKED: REMARK    3  A    between atoms: C_19  and  C_20 
DOCKED: REMARK    4  A    between atoms: C_20  and  C_21 
DOCKED: REMARK    5  A    between atoms: C_21  and  N_22 
DOCKED: USER                              x       y       z     vdW  Elec       q    Type
DOCKED: USER                           _______ _______ _______ _____ _____    ______ ____
DOCKED: ROOT
DOCKED: ATOM      1  O   UNL     1     -39.087 -14.047  11.019 -0.04 -0.00    -0.346 OA 
DOCKED: ATOM      2  C   UNL     1     -40.526 -14.244  11.197 -0.13 +0.00    +0.130 C  
DOCKED: ATOM      3  C   UNL     1     -40.778 -15.605  10.617 -0.21 +0.00    +0.004 A  
DOCKED: ATOM      4  C   UNL     1     -39.573 -16.183  10.241 -0.26 +0.00    +0.006 A  
DOCKED: ATOM      5  C   UNL     1     -38.456 -15.263  10.553 -0.18 +0.00    +0.169 C  
DOCKED: ATOM      6  C   UNL     1     -41.976 -16.283  10.446 -0.21 -0.00    -0.001 A  
DOCKED: ATOM      7  C   UNL     1     -39.525 -17.448   9.680 -0.33 +0.00    +0.008 A  
DOCKED: ATOM      8  C   UNL     1     -41.944 -17.558   9.878 -0.24 +0.00    +0.010 A  
DOCKED: ATOM      9  C   UNL     1     -40.724 -18.137   9.498 -0.26 +0.00    +0.068 A  
DOCKED: ATOM     10  N   UNL     1     -40.699 -20.507   8.451 -2.44 -0.00    -0.191 NA 
DOCKED: ATOM     11  C   UNL     1     -40.711 -19.444   8.920 -0.38 +0.00    +0.101 C  
DOCKED: ENDROOT
DOCKED: BRANCH   2  12
DOCKED: ATOM     12  C   UNL     1     -40.843 -14.165  12.686 -0.04 +0.00    +0.038 C  
DOCKED: BRANCH  12  13
DOCKED: ATOM     13  C   UNL     1     -40.952 -15.557  13.306 -0.04 +0.00    +0.038 C  
DOCKED: BRANCH  13  14
DOCKED: ATOM     14  C   UNL     1     -39.579 -16.084  13.717 -0.01 +0.00    +0.251 C  
DOCKED: BRANCH  14  15
DOCKED: ATOM     15  N   UNL     1     -39.528 -17.534  13.572 -0.05 +0.00    +0.141 N  
DOCKED: ATOM     16  C   UNL     1     -38.966 -18.154  14.773 -0.06 +0.00    +0.285 C  
DOCKED: ATOM     17  C   UNL     1     -40.862 -18.072  13.301 -0.04 +0.00    +0.285 C  
DOCKED: ENDBRANCH  14  15
DOCKED: ENDBRANCH  13  14
DOCKED: ENDBRANCH  12  13
DOCKED: ENDBRANCH   2  12
DOCKED: BRANCH   2  18
DOCKED: ATOM     18  C   UNL     1     -41.212 -13.154  10.443 -0.20 +0.00    +0.006 A  
DOCKED: ATOM     19  C   UNL     1     -40.470 -12.094   9.921 -0.17 +0.00    +0.001 A  
DOCKED: ATOM     20  C   UNL     1     -41.113 -11.076   9.216 -0.16 +0.00    +0.029 A  
DOCKED: ATOM     21  C   UNL     1     -42.494 -11.118   9.033 -0.08 +0.00    +0.140 A  
DOCKED: ATOM     22  C   UNL     1     -43.235 -12.179   9.555 -0.15 +0.00    +0.029 A  
DOCKED: ATOM     23  F   UNL     1     -43.111 -10.142   8.355 -0.03 -0.00    -0.204 F  
DOCKED: ATOM     24  C   UNL     1     -42.593 -13.198  10.261 -0.22 +0.00    +0.001 A  
DOCKED: ENDBRANCH   2  18
DOCKED: TORSDOF 5
DOCKED: TER
DOCKED: ENDMDL
________________________________________________________________________________


    FINAL DOCKED STATE:
    ________________________


Run:   42 / 512
Time taken for this run:   0.002s

DOCKED: MODEL        42
DOCKED: USER    Run = 42
DOCKED: USER
DOCKED: USER    Estimated Free Energy of Binding    =  -4.43 kcal/mol  [=(1)+(2)+(3)-(4)]
DOCKED: USER
DOCKED: USER    (1) Final Intermolecular Energy     =  -5.92 kcal/mol
DOCKED: USER        vdW + Hbond + desolv Energy     =  -5.92 kcal/mol
DOCKED: USER        Electrostatic Energy            =  +0.00 kcal/mol
DOCKED: USER        Moving Ligand-Fixed Receptor    =  -5.92 kcal/mol
DOCKED: USER        Moving Ligand-Moving Receptor   =  +0.00 kcal/mol
DOCKED: USER    (2) Final Total Internal Energy     =  -1.37 kcal/mol
DOCKED: USER    (3) Torsional Free Energy           =  +1.49 kcal/mol
DOCKED: USER    (4) Unbound System's Energy         =  -1.37 kcal/mol
DOCKED: USER
DOCKED: USER
DOCKED: REMARK  5 active torsions:
DOCKED: REMARK  status: ('A' for Active; 'I' for Inactive)
DOCKED: REMARK    1  A    between atoms: C_2  and  C_19 
DOCKED: REMARK    2  A    between atoms: C_2  and  C_11 
DOCKED: REMARK    3  A    between atoms: C_19  and  C_20 
DOCKED: REMARK    4  A    between atoms: C_20  and  C_21 
DOCKED: REMARK    5  A    between atoms: C_21  and  N_22 
DOCKED: USER                              x       y       z     vdW  Elec       q    Type
DOCKED: USER                           _______ _______ _______ _____ _____    ______ ____
DOCKED: ROOT
DOCKED: ATOM      1  O   UNL     1     -38.544 -13.907  10.371 -0.07 -0.00    -0.346 OA 
DOCKED: ATOM      2  C   UNL     1     -39.877 -14.095  10.945 -0.14 +0.00    +0.130 C  
DOCKED: ATOM      3  C   UNL     1     -40.254 -15.488  10.530 -0.21 +0.00    +0.004 A  
DOCKED: ATOM      4  C   UNL     1     -39.187 -16.084   9.872 -0.28 +0.00    +0.006 A  
DOCKED: ATOM      5  C   UNL     1     -38.043 -15.146   9.818 -0.17 +0.00    +0.169 C  
DOCKED: ATOM      6  C   UNL     1     -41.442 -16.176  10.729 -0.19 -0.00    -0.001 A  
DOCKED: ATOM      7  C   UNL     1     -39.271 -17.378   9.389 -0.34 +0.00    +0.008 A  
DOCKED: ATOM      8  C   UNL     1     -41.544 -17.481  10.244 -0.21 +0.00    +0.010 A  
DOCKED: ATOM      9  C   UNL     1     -40.463 -18.079   9.577 -0.27 +0.00    +0.068 A  
DOCKED: ATOM     10  N   UNL     1     -40.684 -20.505   8.694 -2.60 -0.00    -0.191 NA 
DOCKED: ATOM     11  C   UNL     1     -40.585 -19.416   9.089 -0.36 +0.00    +0.101 C  
DOCKED: ENDROOT
DOCKED: BRANCH   2  12
DOCKED: ATOM     12  C   UNL     1     -39.778 -13.933  12.458 -0.04 +0.00    +0.038 C  
DOCKED: BRANCH  12  13
DOCKED: ATOM     13  C   UNL     1     -38.960 -12.699  12.833 -0.02 +0.00    +0.038 C  
DOCKED: BRANCH  13  14
DOCKED: ATOM     14  C   UNL     1     -39.821 -11.673  13.568 -0.00 +0.00    +0.251 C  
DOCKED: BRANCH  14  15
DOCKED: ATOM     15  N   UNL     1     -39.419 -10.319  13.203 -0.00 +0.00    +0.141 N  
DOCKED: ATOM     16  C   UNL     1     -38.172 -10.340  12.437 -0.00 +0.00    +0.285 C  
DOCKED: ATOM     17  C   UNL     1     -40.475  -9.658  12.435 -0.00 +0.00    +0.285 C  
DOCKED: ENDBRANCH  14  15
DOCKED: ENDBRANCH  13  14
DOCKED: ENDBRANCH  12  13
DOCKED: ENDBRANCH   2  12
DOCKED: BRANCH   2  18
DOCKED: ATOM     18  C   UNL     1     -40.760 -13.051  10.348 -0.19 +0.00    +0.006 A  
DOCKED: ATOM     19  C   UNL     1     -42.118 -13.024  10.663 -0.19 +0.00    +0.001 A  
DOCKED: ATOM     20  C   UNL     1     -42.943 -12.048  10.103 -0.17 +0.00    +0.029 A  
DOCKED: ATOM     21  C   UNL     1     -42.409 -11.099   9.232 -0.12 +0.00    +0.140 A  
DOCKED: ATOM     22  C   UNL     1     -41.050 -11.126   8.918 -0.15 +0.00    +0.029 A  
DOCKED: ATOM     23  F   UNL     1     -43.201 -10.161   8.697 -0.02 -0.00    -0.204 F  
DOCKED: ATOM     24  C   UNL     1     -40.225 -12.103   9.477 -0.18 +0.00    +0.001 A  
DOCKED: ENDBRANCH   2  18
DOCKED: TORSDOF 5
DOCKED: TER
DOCKED: ENDMDL
________________________________________________________________________________


    FINAL DOCKED STATE:
    ________________________


Run:   43 / 512
Time taken for this run:   0.002s

DOCKED: MODEL        43
DOCKED: USER    Run = 43
DOCKED: USER
DOCKED: USER    Estimated Free Energy of Binding    =  -3.75 kcal/mol  [=(1)+(2)+(3)-(4)]
DOCKED: USER
DOCKED: USER    (1) Final Intermolecular Energy     =  -5.24 kcal/mol
DOCKED: USER        vdW + Hbond + desolv Energy     =  -5.24 kcal/mol
DOCKED: USER        Electrostatic Energy            =  +0.00 kcal/mol
DOCKED: USER        Moving Ligand-Fixed Receptor    =  -5.24 kcal/mol
DOCKED: USER        Moving Ligand-Moving Receptor   =  +0.00 kcal/mol
DOCKED: USER    (2) Final Total Internal Energy     =  -0.69 kcal/mol
DOCKED: USER    (3) Torsional Free Energy           =  +1.49 kcal/mol
DOCKED: USER    (4) Unbound System's Energy         =  -0.69 kcal/mol
DOCKED: USER
DOCKED: USER
DOCKED: REMARK  5 active torsions:
DOCKED: REMARK  status: ('A' for Active; 'I' for Inactive)
DOCKED: REMARK    1  A    between atoms: C_2  and  C_19 
DOCKED: REMARK    2  A    between atoms: C_2  and  C_11 
DOCKED: REMARK    3  A    between atoms: C_19  and  C_20 
DOCKED: REMARK    4  A    between atoms: C_20  and  C_21 
DOCKED: REMARK    5  A    between atoms: C_21  and  N_22 
DOCKED: USER                              x       y       z     vdW  Elec       q    Type
DOCKED: USER                           _______ _______ _______ _____ _____    ______ ____
DOCKED: ROOT
DOCKED: ATOM      1  O   UNL     1     -37.372 -16.034  13.185 -0.02 -0.00    -0.346 OA 
DOCKED: ATOM      2  C   UNL     1     -37.616 -15.268  11.962 -0.09 +0.00    +0.130 C  
DOCKED: ATOM      3  C   UNL     1     -38.365 -16.226  11.081 -0.19 +0.00    +0.004 A  
DOCKED: ATOM      4  C   UNL     1     -38.624 -17.397  11.779 -0.18 +0.00    +0.006 A  
DOCKED: ATOM      5  C   UNL     1     -38.084 -17.292  13.153 -0.09 +0.00    +0.169 C  
DOCKED: ATOM      6  C   UNL     1     -38.793 -16.068   9.771 -0.27 -0.00    -0.001 A  
DOCKED: ATOM      7  C   UNL     1     -39.311 -18.447  11.194 -0.25 +0.00    +0.008 A  
DOCKED: ATOM      8  C   UNL     1     -39.483 -17.120   9.166 -0.34 +0.00    +0.010 A  
DOCKED: ATOM      9  C   UNL     1     -39.741 -18.303   9.874 -0.29 +0.00    +0.068 A  
DOCKED: ATOM     10  N   UNL     1     -41.030 -20.234   8.723 -2.56 -0.00    -0.191 NA 
DOCKED: ATOM     11  C   UNL     1     -40.452 -19.368   9.239 -0.35 +0.00    +0.101 C  
DOCKED: ENDROOT
DOCKED: BRANCH   2  12
DOCKED: ATOM     12  C   UNL     1     -38.431 -14.031  12.321 -0.05 +0.00    +0.038 C  
DOCKED: BRANCH  12  13
DOCKED: ATOM     13  C   UNL     1     -37.944 -12.802  11.556 -0.05 +0.00    +0.038 C  
DOCKED: BRANCH  13  14
DOCKED: ATOM     14  C   UNL     1     -36.777 -12.132  12.280 -0.01 +0.00    +0.251 C  
DOCKED: BRANCH  14  15
DOCKED: ATOM     15  N   UNL     1     -37.232 -11.526  13.525 -0.00 +0.00    +0.141 N  
DOCKED: ATOM     16  C   UNL     1     -36.386 -11.946  14.643 -0.00 +0.00    +0.285 C  
DOCKED: ATOM     17  C   UNL     1     -37.241 -10.066  13.415 +0.00 +0.00    +0.285 C  
DOCKED: ENDBRANCH  14  15
DOCKED: ENDBRANCH  13  14
DOCKED: ENDBRANCH  12  13
DOCKED: ENDBRANCH   2  12
DOCKED: BRANCH   2  18
DOCKED: ATOM     18  C   UNL     1     -36.282 -14.892  11.409 -0.11 +0.00    +0.006 A  
DOCKED: ATOM     19  C   UNL     1     -35.155 -14.919  12.230 -0.07 +0.00    +0.001 A  
DOCKED: ATOM     20  C   UNL     1     -33.908 -14.566  11.713 -0.05 +0.00    +0.029 A  
DOCKED: ATOM     21  C   UNL     1     -33.789 -14.188  10.376 -0.06 +0.00    +0.140 A  
DOCKED: ATOM     22  C   UNL     1     -34.917 -14.162   9.556 -0.10 +0.00    +0.029 A  
DOCKED: ATOM     23  F   UNL     1     -32.592 -13.852   9.879 -0.00 -0.00    -0.204 F  
DOCKED: ATOM     24  C   UNL     1     -36.165 -14.513  10.072 -0.11 +0.00    +0.001 A  
DOCKED: ENDBRANCH   2  18
DOCKED: TORSDOF 5
DOCKED: TER
DOCKED: ENDMDL
________________________________________________________________________________


    FINAL DOCKED STATE:
    ________________________


Run:   44 / 512
Time taken for this run:   0.002s

DOCKED: MODEL        44
DOCKED: USER    Run = 44
DOCKED: USER
DOCKED: USER    Estimated Free Energy of Binding    =  -3.98 kcal/mol  [=(1)+(2)+(3)-(4)]
DOCKED: USER
DOCKED: USER    (1) Final Intermolecular Energy     =  -5.47 kcal/mol
DOCKED: USER        vdW + Hbond + desolv Energy     =  -5.47 kcal/mol
DOCKED: USER        Electrostatic Energy            =  +0.00 kcal/mol
DOCKED: USER        Moving Ligand-Fixed Receptor    =  -5.47 kcal/mol
DOCKED: USER        Moving Ligand-Moving Receptor   =  +0.00 kcal/mol
DOCKED: USER    (2) Final Total Internal Energy     =  -1.22 kcal/mol
DOCKED: USER    (3) Torsional Free Energy           =  +1.49 kcal/mol
DOCKED: USER    (4) Unbound System's Energy         =  -1.22 kcal/mol
DOCKED: USER
DOCKED: USER
DOCKED: REMARK  5 active torsions:
DOCKED: REMARK  status: ('A' for Active; 'I' for Inactive)
DOCKED: REMARK    1  A    between atoms: C_2  and  C_19 
DOCKED: REMARK    2  A    between atoms: C_2  and  C_11 
DOCKED: REMARK    3  A    between atoms: C_19  and  C_20 
DOCKED: REMARK    4  A    between atoms: C_20  and  C_21 
DOCKED: REMARK    5  A    between atoms: C_21  and  N_22 
DOCKED: USER                              x       y       z     vdW  Elec       q    Type
DOCKED: USER                           _______ _______ _______ _____ _____    ______ ____
DOCKED: ROOT
DOCKED: ATOM      1  O   UNL     1     -30.468 -18.549   1.591 -0.00 -0.00    -0.346 OA 
DOCKED: ATOM      2  C   UNL     1     -30.933 -17.375   2.330 -0.08 +0.00    +0.130 C  
DOCKED: ATOM      3  C   UNL     1     -31.590 -17.956   3.550 -0.12 +0.00    +0.004 A  
DOCKED: ATOM      4  C   UNL     1     -31.418 -19.332   3.562 -0.14 +0.00    +0.006 A  
DOCKED: ATOM      5  C   UNL     1     -30.637 -19.752   2.377 -0.07 +0.00    +0.169 C  
DOCKED: ATOM      6  C   UNL     1     -32.275 -17.315   4.572 -0.14 -0.00    -0.001 A  
DOCKED: ATOM      7  C   UNL     1     -31.925 -20.113   4.587 -0.25 +0.00    +0.008 A  
DOCKED: ATOM      8  C   UNL     1     -32.796 -18.088   5.611 -0.26 +0.00    +0.010 A  
DOCKED: ATOM      9  C   UNL     1     -32.621 -19.480   5.618 -0.30 +0.00    +0.068 A  
DOCKED: ATOM     10  N   UNL     1     -33.596 -20.885   7.564 -2.61 -0.00    -0.191 NA 
DOCKED: ATOM     11  C   UNL     1     -33.160 -20.255   6.691 -0.41 +0.00    +0.101 C  
DOCKED: ENDROOT
DOCKED: BRANCH   2  12
DOCKED: ATOM     12  C   UNL     1     -29.727 -16.505   2.663 -0.02 +0.00    +0.038 C  
DOCKED: BRANCH  12  13
DOCKED: ATOM     13  C   UNL     1     -28.738 -17.245   3.562 -0.01 +0.00    +0.038 C  
DOCKED: BRANCH  13  14
DOCKED: ATOM     14  C   UNL     1     -28.748 -16.673   4.978 -0.00 +0.00    +0.251 C  
DOCKED: BRANCH  14  15
DOCKED: ATOM     15  N   UNL     1     -27.987 -17.532   5.877 -0.01 +0.00    +0.141 N  
DOCKED: ATOM     16  C   UNL     1     -27.968 -18.909   5.382 -0.02 +0.00    +0.285 C  
DOCKED: ATOM     17  C   UNL     1     -26.621 -17.031   6.036 +0.00 +0.00    +0.285 C  
DOCKED: ENDBRANCH  14  15
DOCKED: ENDBRANCH  13  14
DOCKED: ENDBRANCH  12  13
DOCKED: ENDBRANCH   2  12
DOCKED: BRANCH   2  18
DOCKED: ATOM     18  C   UNL     1     -31.891 -16.652   1.443 -0.12 +0.00    +0.006 A  
DOCKED: ATOM     19  C   UNL     1     -32.012 -17.019   0.104 -0.13 +0.00    +0.001 A  
DOCKED: ATOM     20  C   UNL     1     -32.907 -16.342  -0.725 -0.17 +0.00    +0.029 A  
DOCKED: ATOM     21  C   UNL     1     -33.679 -15.299  -0.214 -0.17 +0.00    +0.140 A  
DOCKED: ATOM     22  C   UNL     1     -33.557 -14.933   1.126 -0.18 +0.00    +0.029 A  
DOCKED: ATOM     23  F   UNL     1     -34.539 -14.650  -1.009 -0.14 -0.00    -0.204 F  
DOCKED: ATOM     24  C   UNL     1     -32.661 -15.609   1.956 -0.13 +0.00    +0.001 A  
DOCKED: ENDBRANCH   2  18
DOCKED: TORSDOF 5
DOCKED: TER
DOCKED: ENDMDL
________________________________________________________________________________


    FINAL DOCKED STATE:
    ________________________


Run:   45 / 512
Time taken for this run:   0.002s

DOCKED: MODEL        45
DOCKED: USER    Run = 45
DOCKED: USER
DOCKED: USER    Estimated Free Energy of Binding    =  -3.38 kcal/mol  [=(1)+(2)+(3)-(4)]
DOCKED: USER
DOCKED: USER    (1) Final Intermolecular Energy     =  -4.87 kcal/mol
DOCKED: USER        vdW + Hbond + desolv Energy     =  -4.87 kcal/mol
DOCKED: USER        Electrostatic Energy            =  +0.00 kcal/mol
DOCKED: USER        Moving Ligand-Fixed Receptor    =  -4.87 kcal/mol
DOCKED: USER        Moving Ligand-Moving Receptor   =  +0.00 kcal/mol
DOCKED: USER    (2) Final Total Internal Energy     =  -1.55 kcal/mol
DOCKED: USER    (3) Torsional Free Energy           =  +1.49 kcal/mol
DOCKED: USER    (4) Unbound System's Energy         =  -1.55 kcal/mol
DOCKED: USER
DOCKED: USER
DOCKED: REMARK  5 active torsions:
DOCKED: REMARK  status: ('A' for Active; 'I' for Inactive)
DOCKED: REMARK    1  A    between atoms: C_2  and  C_19 
DOCKED: REMARK    2  A    between atoms: C_2  and  C_11 
DOCKED: REMARK    3  A    between atoms: C_19  and  C_20 
DOCKED: REMARK    4  A    between atoms: C_20  and  C_21 
DOCKED: REMARK    5  A    between atoms: C_21  and  N_22 
DOCKED: USER                              x       y       z     vdW  Elec       q    Type
DOCKED: USER                           _______ _______ _______ _____ _____    ______ ____
DOCKED: ROOT
DOCKED: ATOM      1  O   UNL     1     -32.736  -5.137   1.215 -0.07 -0.00    -0.346 OA 
DOCKED: ATOM      2  C   UNL     1     -32.579  -5.497  -0.194 -0.11 +0.00    +0.130 C  
DOCKED: ATOM      3  C   UNL     1     -33.921  -6.053  -0.575 -0.09 +0.00    +0.004 A  
DOCKED: ATOM      4  C   UNL     1     -34.800  -5.921   0.490 -0.18 +0.00    +0.006 A  
DOCKED: ATOM      5  C   UNL     1     -34.117  -5.267   1.628 -0.22 +0.00    +0.169 C  
DOCKED: ATOM      6  C   UNL     1     -34.333  -6.621  -1.772 -0.23 -0.00    -0.001 A  
DOCKED: ATOM      7  C   UNL     1     -36.113  -6.352   0.399 -0.27 +0.00    +0.008 A  
DOCKED: ATOM      8  C   UNL     1     -35.652  -7.064  -1.878 -0.35 +0.00    +0.010 A  
DOCKED: ATOM      9  C   UNL     1     -36.538  -6.930  -0.798 -0.40 +0.00    +0.068 A  
DOCKED: ATOM     10  N   UNL     1     -38.981  -7.759  -1.031 -2.43 -0.00    -0.191 NA 
DOCKED: ATOM     11  C   UNL     1     -37.885  -7.388  -0.926 -0.27 +0.00    +0.101 C  
DOCKED: ENDROOT
DOCKED: BRANCH   2  12
DOCKED: ATOM     12  C   UNL     1     -32.215  -4.240  -0.976 -0.04 +0.00    +0.038 C  
DOCKED: BRANCH  12  13
DOCKED: ATOM     13  C   UNL     1     -31.642  -3.161  -0.059 -0.12 +0.00    +0.038 C  
DOCKED: BRANCH  13  14
DOCKED: ATOM     14  C   UNL     1     -30.130  -3.318   0.096 -0.01 +0.00    +0.251 C  
DOCKED: BRANCH  14  15
DOCKED: ATOM     15  N   UNL     1     -29.755  -3.250   1.503 -0.01 +0.00    +0.141 N  
DOCKED: ATOM     16  C   UNL     1     -30.924  -2.960   2.336 -0.01 +0.00    +0.285 C  
DOCKED: ATOM     17  C   UNL     1     -29.126  -4.501   1.930 +0.00 +0.00    +0.285 C  
DOCKED: ENDBRANCH  14  15
DOCKED: ENDBRANCH  13  14
DOCKED: ENDBRANCH  12  13
DOCKED: ENDBRANCH   2  12
DOCKED: BRANCH   2  18
DOCKED: ATOM     18  C   UNL     1     -31.487  -6.512  -0.267 -0.04 +0.00    +0.006 A  
DOCKED: ATOM     19  C   UNL     1     -30.709  -6.617  -1.419 -0.03 +0.00    +0.001 A  
DOCKED: ATOM     20  C   UNL     1     -29.689  -7.566  -1.486 -0.01 +0.00    +0.029 A  
DOCKED: ATOM     21  C   UNL     1     -29.447  -8.408  -0.401 +0.00 +0.00    +0.140 A  
DOCKED: ATOM     22  C   UNL     1     -30.226  -8.302   0.752 -0.01 +0.00    +0.029 A  
DOCKED: ATOM     23  F   UNL     1     -28.467  -9.318  -0.464 +0.00 -0.00    -0.204 F  
DOCKED: ATOM     24  C   UNL     1     -31.247  -7.353   0.819 -0.02 +0.00    +0.001 A  
DOCKED: ENDBRANCH   2  18
DOCKED: TORSDOF 5
DOCKED: TER
DOCKED: ENDMDL
________________________________________________________________________________


    FINAL DOCKED STATE:
    ________________________


Run:   46 / 512
Time taken for this run:   0.002s

DOCKED: MODEL        46
DOCKED: USER    Run = 46
DOCKED: USER
DOCKED: USER    Estimated Free Energy of Binding    =  -3.88 kcal/mol  [=(1)+(2)+(3)-(4)]
DOCKED: USER
DOCKED: USER    (1) Final Intermolecular Energy     =  -5.37 kcal/mol
DOCKED: USER        vdW + Hbond + desolv Energy     =  -5.37 kcal/mol
DOCKED: USER        Electrostatic Energy            =  +0.00 kcal/mol
DOCKED: USER        Moving Ligand-Fixed Receptor    =  -5.37 kcal/mol
DOCKED: USER        Moving Ligand-Moving Receptor   =  +0.00 kcal/mol
DOCKED: USER    (2) Final Total Internal Energy     =  -1.23 kcal/mol
DOCKED: USER    (3) Torsional Free Energy           =  +1.49 kcal/mol
DOCKED: USER    (4) Unbound System's Energy         =  -1.23 kcal/mol
DOCKED: USER
DOCKED: USER
DOCKED: REMARK  5 active torsions:
DOCKED: REMARK  status: ('A' for Active; 'I' for Inactive)
DOCKED: REMARK    1  A    between atoms: C_2  and  C_19 
DOCKED: REMARK    2  A    between atoms: C_2  and  C_11 
DOCKED: REMARK    3  A    between atoms: C_19  and  C_20 
DOCKED: REMARK    4  A    between atoms: C_20  and  C_21 
DOCKED: REMARK    5  A    between atoms: C_21  and  N_22 
DOCKED: USER                              x       y       z     vdW  Elec       q    Type
DOCKED: USER                           _______ _______ _______ _____ _____    ______ ____
DOCKED: ROOT
DOCKED: ATOM      1  O   UNL     1     -32.429  -5.242   1.832 -0.03 -0.00    -0.346 OA 
DOCKED: ATOM      2  C   UNL     1     -32.141  -5.339   0.400 -0.08 +0.00    +0.130 C  
DOCKED: ATOM      3  C   UNL     1     -33.436  -5.812  -0.195 -0.13 +0.00    +0.004 A  
DOCKED: ATOM      4  C   UNL     1     -34.409  -5.874   0.792 -0.23 +0.00    +0.006 A  
DOCKED: ATOM      5  C   UNL     1     -33.839  -5.441   2.087 -0.17 +0.00    +0.169 C  
DOCKED: ATOM      6  C   UNL     1     -33.732  -6.149  -1.508 -0.18 -0.00    -0.001 A  
DOCKED: ATOM      7  C   UNL     1     -35.702  -6.277   0.505 -0.31 +0.00    +0.008 A  
DOCKED: ATOM      8  C   UNL     1     -35.030  -6.562  -1.812 -0.29 +0.00    +0.010 A  
DOCKED: ATOM      9  C   UNL     1     -36.010  -6.625  -0.811 -0.35 +0.00    +0.068 A  
DOCKED: ATOM     10  N   UNL     1     -38.412  -7.391  -1.411 -2.51 -0.00    -0.191 NA 
DOCKED: ATOM     11  C   UNL     1     -37.334  -7.048  -1.141 -0.42 +0.00    +0.101 C  
DOCKED: ENDROOT
DOCKED: BRANCH   2  12
DOCKED: ATOM     12  C   UNL     1     -31.726  -3.961  -0.103 -0.12 +0.00    +0.038 C  
DOCKED: BRANCH  12  13
DOCKED: ATOM     13  C   UNL     1     -32.053  -2.874   0.919 -0.11 +0.00    +0.038 C  
DOCKED: BRANCH  13  14
DOCKED: ATOM     14  C   UNL     1     -33.453  -2.309   0.691 -0.12 +0.00    +0.251 C  
DOCKED: BRANCH  14  15
DOCKED: ATOM     15  N   UNL     1     -33.930  -1.634   1.892 -0.12 +0.00    +0.141 N  
DOCKED: ATOM     16  C   UNL     1     -33.551  -2.384   3.090 -0.09 +0.00    +0.285 C  
DOCKED: ATOM     17  C   UNL     1     -33.404  -0.270   1.960 -0.03 +0.00    +0.285 C  
DOCKED: ENDBRANCH  14  15
DOCKED: ENDBRANCH  13  14
DOCKED: ENDBRANCH  12  13
DOCKED: ENDBRANCH   2  12
DOCKED: BRANCH   2  18
DOCKED: ATOM     18  C   UNL     1     -31.034  -6.326   0.243 -0.03 +0.00    +0.006 A  
DOCKED: ATOM     19  C   UNL     1     -31.163  -7.608   0.776 -0.02 +0.00    +0.001 A  
DOCKED: ATOM     20  C   UNL     1     -30.126  -8.531   0.628 -0.00 +0.00    +0.029 A  
DOCKED: ATOM     21  C   UNL     1     -28.963  -8.170  -0.051 -0.00 +0.00    +0.140 A  
DOCKED: ATOM     22  C   UNL     1     -28.835  -6.888  -0.584 -0.00 +0.00    +0.029 A  
DOCKED: ATOM     23  F   UNL     1     -27.969  -9.056  -0.194 +0.00 -0.00    -0.204 F  
DOCKED: ATOM     24  C   UNL     1     -29.871  -5.964  -0.437 -0.01 +0.00    +0.001 A  
DOCKED: ENDBRANCH   2  18
DOCKED: TORSDOF 5
DOCKED: TER
DOCKED: ENDMDL
________________________________________________________________________________


    FINAL DOCKED STATE:
    ________________________


Run:   47 / 512
Time taken for this run:   0.002s

DOCKED: MODEL        47
DOCKED: USER    Run = 47
DOCKED: USER
DOCKED: USER    Estimated Free Energy of Binding    =  -5.56 kcal/mol  [=(1)+(2)+(3)-(4)]
DOCKED: USER
DOCKED: USER    (1) Final Intermolecular Energy     =  -7.05 kcal/mol
DOCKED: USER        vdW + Hbond + desolv Energy     =  -7.05 kcal/mol
DOCKED: USER        Electrostatic Energy            =  +0.00 kcal/mol
DOCKED: USER        Moving Ligand-Fixed Receptor    =  -7.05 kcal/mol
DOCKED: USER        Moving Ligand-Moving Receptor   =  +0.00 kcal/mol
DOCKED: USER    (2) Final Total Internal Energy     =  -1.32 kcal/mol
DOCKED: USER    (3) Torsional Free Energy           =  +1.49 kcal/mol
DOCKED: USER    (4) Unbound System's Energy         =  -1.32 kcal/mol
DOCKED: USER
DOCKED: USER
DOCKED: REMARK  5 active torsions:
DOCKED: REMARK  status: ('A' for Active; 'I' for Inactive)
DOCKED: REMARK    1  A    between atoms: C_2  and  C_19 
DOCKED: REMARK    2  A    between atoms: C_2  and  C_11 
DOCKED: REMARK    3  A    between atoms: C_19  and  C_20 
DOCKED: REMARK    4  A    between atoms: C_20  and  C_21 
DOCKED: REMARK    5  A    between atoms: C_21  and  N_22 
DOCKED: USER                              x       y       z     vdW  Elec       q    Type
DOCKED: USER                           _______ _______ _______ _____ _____    ______ ____
DOCKED: ROOT
DOCKED: ATOM      1  O   UNL     1     -39.067 -17.752  11.343 -0.06 -0.00    -0.346 OA 
DOCKED: ATOM      2  C   UNL     1     -40.463 -18.189  11.382 -0.15 +0.00    +0.130 C  
DOCKED: ATOM      3  C   UNL     1     -40.811 -18.409   9.938 -0.27 +0.00    +0.004 A  
DOCKED: ATOM      4  C   UNL     1     -39.683 -18.222   9.152 -0.38 +0.00    +0.006 A  
DOCKED: ATOM      5  C   UNL     1     -38.525 -17.883  10.009 -0.24 +0.00    +0.169 C  
DOCKED: ATOM      6  C   UNL     1     -42.027 -18.758   9.368 -0.30 -0.00    -0.001 A  
DOCKED: ATOM      7  C   UNL     1     -39.731 -18.371   7.777 -0.28 +0.00    +0.008 A  
DOCKED: ATOM      8  C   UNL     1     -42.092 -18.908   7.981 -0.31 +0.00    +0.010 A  
DOCKED: ATOM      9  C   UNL     1     -40.949 -18.716   7.190 -0.40 +0.00    +0.068 A  
DOCKED: ATOM     10  N   UNL     1     -41.104 -19.008   4.620 -3.09 -0.00    -0.191 NA 
DOCKED: ATOM     11  C   UNL     1     -41.035 -18.876   5.773 -0.28 +0.00    +0.101 C  
DOCKED: ENDROOT
DOCKED: BRANCH   2  12
DOCKED: ATOM     12  C   UNL     1     -40.547 -19.464  12.213 -0.27 +0.00    +0.038 C  
DOCKED: BRANCH  12  13
DOCKED: ATOM     13  C   UNL     1     -39.158 -19.966  12.606 -0.30 +0.00    +0.038 C  
DOCKED: BRANCH  13  14
DOCKED: ATOM     14  C   UNL     1     -38.564 -19.117  13.728 -0.11 +0.00    +0.251 C  
DOCKED: BRANCH  14  15
DOCKED: ATOM     15  N   UNL     1     -39.571 -18.848  14.748 -0.11 +0.00    +0.141 N  
DOCKED: ATOM     16  C   UNL     1     -39.919 -20.076  15.465 -0.08 +0.00    +0.285 C  
DOCKED: ATOM     17  C   UNL     1     -39.096 -17.830  15.686 -0.02 +0.00    +0.285 C  
DOCKED: ENDBRANCH  14  15
DOCKED: ENDBRANCH  13  14
DOCKED: ENDBRANCH  12  13
DOCKED: ENDBRANCH   2  12
DOCKED: BRANCH   2  18
DOCKED: ATOM     18  C   UNL     1     -41.248 -17.086  12.009 -0.09 +0.00    +0.006 A  
DOCKED: ATOM     19  C   UNL     1     -41.245 -15.815  11.434 -0.12 +0.00    +0.001 A  
DOCKED: ATOM     20  C   UNL     1     -41.979 -14.784  12.020 -0.07 +0.00    +0.029 A  
DOCKED: ATOM     21  C   UNL     1     -42.716 -15.024  13.180 -0.01 +0.00    +0.140 A  
DOCKED: ATOM     22  C   UNL     1     -42.718 -16.295  13.754 -0.03 +0.00    +0.029 A  
DOCKED: ATOM     23  F   UNL     1     -43.422 -14.035  13.742 +0.01 -0.00    -0.204 F  
DOCKED: ATOM     24  C   UNL     1     -41.984 -17.327  13.168 -0.06 +0.00    +0.001 A  
DOCKED: ENDBRANCH   2  18
DOCKED: TORSDOF 5
DOCKED: TER
DOCKED: ENDMDL
________________________________________________________________________________


    FINAL DOCKED STATE:
    ________________________


Run:   48 / 512
Time taken for this run:   0.002s

DOCKED: MODEL        48
DOCKED: USER    Run = 48
DOCKED: USER
DOCKED: USER    Estimated Free Energy of Binding    =  -4.23 kcal/mol  [=(1)+(2)+(3)-(4)]
DOCKED: USER
DOCKED: USER    (1) Final Intermolecular Energy     =  -5.73 kcal/mol
DOCKED: USER        vdW + Hbond + desolv Energy     =  -5.73 kcal/mol
DOCKED: USER        Electrostatic Energy            =  +0.00 kcal/mol
DOCKED: USER        Moving Ligand-Fixed Receptor    =  -5.73 kcal/mol
DOCKED: USER        Moving Ligand-Moving Receptor   =  +0.00 kcal/mol
DOCKED: USER    (2) Final Total Internal Energy     =  -1.42 kcal/mol
DOCKED: USER    (3) Torsional Free Energy           =  +1.49 kcal/mol
DOCKED: USER    (4) Unbound System's Energy         =  -1.42 kcal/mol
DOCKED: USER
DOCKED: USER
DOCKED: REMARK  5 active torsions:
DOCKED: REMARK  status: ('A' for Active; 'I' for Inactive)
DOCKED: REMARK    1  A    between atoms: C_2  and  C_19 
DOCKED: REMARK    2  A    between atoms: C_2  and  C_11 
DOCKED: REMARK    3  A    between atoms: C_19  and  C_20 
DOCKED: REMARK    4  A    between atoms: C_20  and  C_21 
DOCKED: REMARK    5  A    between atoms: C_21  and  N_22 
DOCKED: USER                              x       y       z     vdW  Elec       q    Type
DOCKED: USER                           _______ _______ _______ _____ _____    ______ ____
DOCKED: ROOT
DOCKED: ATOM      1  O   UNL     1     -36.653 -15.602  11.608 -0.07 -0.00    -0.346 OA 
DOCKED: ATOM      2  C   UNL     1     -37.865 -14.908  11.171 -0.13 +0.00    +0.130 C  
DOCKED: ATOM      3  C   UNL     1     -38.701 -15.995  10.558 -0.23 +0.00    +0.004 A  
DOCKED: ATOM      4  C   UNL     1     -38.072 -17.220  10.729 -0.24 +0.00    +0.006 A  
DOCKED: ATOM      5  C   UNL     1     -36.802 -17.034  11.467 -0.14 +0.00    +0.169 C  
DOCKED: ATOM      6  C   UNL     1     -39.925 -15.907   9.912 -0.27 -0.00    -0.001 A  
DOCKED: ATOM      7  C   UNL     1     -38.638 -18.392  10.259 -0.34 +0.00    +0.008 A  
DOCKED: ATOM      8  C   UNL     1     -40.507 -17.080   9.428 -0.29 +0.00    +0.010 A  
DOCKED: ATOM      9  C   UNL     1     -39.867 -18.316   9.601 -0.30 +0.00    +0.068 A  
DOCKED: ATOM     10  N   UNL     1     -40.977 -20.475   8.695 -2.54 -0.00    -0.191 NA 
DOCKED: ATOM     11  C   UNL     1     -40.478 -19.507   9.101 -0.32 +0.00    +0.101 C  
DOCKED: ENDROOT
DOCKED: BRANCH   2  12
DOCKED: ATOM     12  C   UNL     1     -38.522 -14.270  12.390 -0.05 +0.00    +0.038 C  
DOCKED: BRANCH  12  13
DOCKED: ATOM     13  C   UNL     1     -37.688 -14.488  13.650 -0.02 +0.00    +0.038 C  
DOCKED: BRANCH  13  14
DOCKED: ATOM     14  C   UNL     1     -38.366 -15.481  14.593 -0.01 +0.00    +0.251 C  
DOCKED: BRANCH  14  15
DOCKED: ATOM     15  N   UNL     1     -39.443 -16.181  13.903 -0.02 +0.00    +0.141 N  
DOCKED: ATOM     16  C   UNL     1     -39.166 -17.617  13.838 -0.04 +0.00    +0.285 C  
DOCKED: ATOM     17  C   UNL     1     -40.724 -15.941  14.570 -0.00 +0.00    +0.285 C  
DOCKED: ENDBRANCH  14  15
DOCKED: ENDBRANCH  13  14
DOCKED: ENDBRANCH  12  13
DOCKED: ENDBRANCH   2  12
DOCKED: BRANCH   2  18
DOCKED: ATOM     18  C   UNL     1     -37.443 -13.872  10.183 -0.16 +0.00    +0.006 A  
DOCKED: ATOM     19  C   UNL     1     -36.167 -13.923   9.623 -0.14 +0.00    +0.001 A  
DOCKED: ATOM     20  C   UNL     1     -35.773 -12.954   8.700 -0.12 +0.00    +0.029 A  
DOCKED: ATOM     21  C   UNL     1     -36.654 -11.936   8.338 -0.07 +0.00    +0.140 A  
DOCKED: ATOM     22  C   UNL     1     -37.931 -11.886   8.899 -0.08 +0.00    +0.029 A  
DOCKED: ATOM     23  F   UNL     1     -36.277 -11.007   7.451 -0.01 -0.00    -0.204 F  
DOCKED: ATOM     24  C   UNL     1     -38.326 -12.855   9.823 -0.14 +0.00    +0.001 A  
DOCKED: ENDBRANCH   2  18
DOCKED: TORSDOF 5
DOCKED: TER
DOCKED: ENDMDL
________________________________________________________________________________


    FINAL DOCKED STATE:
    ________________________


Run:   49 / 512
Time taken for this run:   0.002s

DOCKED: MODEL        49
DOCKED: USER    Run = 49
DOCKED: USER
DOCKED: USER    Estimated Free Energy of Binding    =  -4.08 kcal/mol  [=(1)+(2)+(3)-(4)]
DOCKED: USER
DOCKED: USER    (1) Final Intermolecular Energy     =  -5.57 kcal/mol
DOCKED: USER        vdW + Hbond + desolv Energy     =  -5.57 kcal/mol
DOCKED: USER        Electrostatic Energy            =  +0.00 kcal/mol
DOCKED: USER        Moving Ligand-Fixed Receptor    =  -5.57 kcal/mol
DOCKED: USER        Moving Ligand-Moving Receptor   =  +0.00 kcal/mol
DOCKED: USER    (2) Final Total Internal Energy     =  -1.30 kcal/mol
DOCKED: USER    (3) Torsional Free Energy           =  +1.49 kcal/mol
DOCKED: USER    (4) Unbound System's Energy         =  -1.30 kcal/mol
DOCKED: USER
DOCKED: USER
DOCKED: REMARK  5 active torsions:
DOCKED: REMARK  status: ('A' for Active; 'I' for Inactive)
DOCKED: REMARK    1  A    between atoms: C_2  and  C_19 
DOCKED: REMARK    2  A    between atoms: C_2  and  C_11 
DOCKED: REMARK    3  A    between atoms: C_19  and  C_20 
DOCKED: REMARK    4  A    between atoms: C_20  and  C_21 
DOCKED: REMARK    5  A    between atoms: C_21  and  N_22 
DOCKED: USER                              x       y       z     vdW  Elec       q    Type
DOCKED: USER                           _______ _______ _______ _____ _____    ______ ____
DOCKED: ROOT
DOCKED: ATOM      1  O   UNL     1     -30.883 -15.271   3.742 +0.01 -0.00    -0.346 OA 
DOCKED: ATOM      2  C   UNL     1     -32.335 -15.100   3.815 -0.07 +0.00    +0.130 C  
DOCKED: ATOM      3  C   UNL     1     -32.805 -16.325   4.545 -0.15 +0.00    +0.004 A  
DOCKED: ATOM      4  C   UNL     1     -31.710 -17.074   4.953 -0.09 +0.00    +0.006 A  
DOCKED: ATOM      5  C   UNL     1     -30.459 -16.403   4.537 -0.02 +0.00    +0.169 C  
DOCKED: ATOM      6  C   UNL     1     -34.097 -16.736   4.836 -0.30 -0.00    -0.001 A  
DOCKED: ATOM      7  C   UNL     1     -31.868 -18.256   5.656 -0.16 +0.00    +0.008 A  
DOCKED: ATOM      8  C   UNL     1     -34.273 -17.928   5.542 -0.26 +0.00    +0.010 A  
DOCKED: ATOM      9  C   UNL     1     -33.164 -18.684   5.950 -0.30 +0.00    +0.068 A  
DOCKED: ATOM     10  N   UNL     1     -33.525 -20.888   7.262 -2.56 -0.00    -0.191 NA 
DOCKED: ATOM     11  C   UNL     1     -33.363 -19.900   6.673 -0.34 +0.00    +0.101 C  
DOCKED: ENDROOT
DOCKED: BRANCH   2  12
DOCKED: ATOM     12  C   UNL     1     -32.632 -13.809   4.568 -0.05 +0.00    +0.038 C  
DOCKED: BRANCH  12  13
DOCKED: ATOM     13  C   UNL     1     -32.971 -14.084   6.031 -0.07 +0.00    +0.038 C  
DOCKED: BRANCH  13  14
DOCKED: ATOM     14  C   UNL     1     -32.092 -13.252   6.964 -0.01 +0.00    +0.251 C  
DOCKED: BRANCH  14  15
DOCKED: ATOM     15  N   UNL     1     -30.700 -13.672   6.858 -0.01 +0.00    +0.141 N  
DOCKED: ATOM     16  C   UNL     1     -29.876 -12.593   6.312 -0.00 +0.00    +0.285 C  
DOCKED: ATOM     17  C   UNL     1     -30.188 -14.091   8.164 -0.00 +0.00    +0.285 C  
DOCKED: ENDBRANCH  14  15
DOCKED: ENDBRANCH  13  14
DOCKED: ENDBRANCH  12  13
DOCKED: ENDBRANCH   2  12
DOCKED: BRANCH   2  18
DOCKED: ATOM     18  C   UNL     1     -32.836 -15.032   2.411 -0.13 +0.00    +0.006 A  
DOCKED: ATOM     19  C   UNL     1     -33.795 -14.084   2.059 -0.18 +0.00    +0.001 A  
DOCKED: ATOM     20  C   UNL     1     -34.264 -14.022   0.746 -0.23 +0.00    +0.029 A  
DOCKED: ATOM     21  C   UNL     1     -33.773 -14.907  -0.213 -0.21 +0.00    +0.140 A  
DOCKED: ATOM     22  C   UNL     1     -32.813 -15.856   0.140 -0.17 +0.00    +0.029 A  
DOCKED: ATOM     23  F   UNL     1     -34.221 -14.846  -1.473 -0.11 -0.00    -0.204 F  
DOCKED: ATOM     24  C   UNL     1     -32.344 -15.919   1.454 -0.13 +0.00    +0.001 A  
DOCKED: ENDBRANCH   2  18
DOCKED: TORSDOF 5
DOCKED: TER
DOCKED: ENDMDL
________________________________________________________________________________


    FINAL DOCKED STATE:
    ________________________


Run:   50 / 512
Time taken for this run:   0.002s

DOCKED: MODEL        50
DOCKED: USER    Run = 50
DOCKED: USER
DOCKED: USER    Estimated Free Energy of Binding    =  -4.02 kcal/mol  [=(1)+(2)+(3)-(4)]
DOCKED: USER
DOCKED: USER    (1) Final Intermolecular Energy     =  -5.51 kcal/mol
DOCKED: USER        vdW + Hbond + desolv Energy     =  -5.51 kcal/mol
DOCKED: USER        Electrostatic Energy            =  +0.00 kcal/mol
DOCKED: USER        Moving Ligand-Fixed Receptor    =  -5.51 kcal/mol
DOCKED: USER        Moving Ligand-Moving Receptor   =  +0.00 kcal/mol
DOCKED: USER    (2) Final Total Internal Energy     =  -0.95 kcal/mol
DOCKED: USER    (3) Torsional Free Energy           =  +1.49 kcal/mol
DOCKED: USER    (4) Unbound System's Energy         =  -0.95 kcal/mol
DOCKED: USER
DOCKED: USER
DOCKED: REMARK  5 active torsions:
DOCKED: REMARK  status: ('A' for Active; 'I' for Inactive)
DOCKED: REMARK    1  A    between atoms: C_2  and  C_19 
DOCKED: REMARK    2  A    between atoms: C_2  and  C_11 
DOCKED: REMARK    3  A    between atoms: C_19  and  C_20 
DOCKED: REMARK    4  A    between atoms: C_20  and  C_21 
DOCKED: REMARK    5  A    between atoms: C_21  and  N_22 
DOCKED: USER                              x       y       z     vdW  Elec       q    Type
DOCKED: USER                           _______ _______ _______ _____ _____    ______ ____
DOCKED: ROOT
DOCKED: ATOM      1  O   UNL     1     -32.122  -7.844   1.942 -0.01 -0.00    -0.346 OA 
DOCKED: ATOM      2  C   UNL     1     -32.997  -8.970   2.270 -0.07 +0.00    +0.130 C  
DOCKED: ATOM      3  C   UNL     1     -34.240  -8.705   1.471 -0.14 +0.00    +0.004 A  
DOCKED: ATOM      4  C   UNL     1     -34.051  -7.587   0.671 -0.15 +0.00    +0.006 A  
DOCKED: ATOM      5  C   UNL     1     -32.687  -7.050   0.873 -0.06 +0.00    +0.169 C  
DOCKED: ATOM      6  C   UNL     1     -35.438  -9.405   1.445 -0.23 -0.00    -0.001 A  
DOCKED: ATOM      7  C   UNL     1     -35.047  -7.129  -0.174 -0.26 +0.00    +0.008 A  
DOCKED: ATOM      8  C   UNL     1     -36.454  -8.952   0.601 -0.14 +0.00    +0.010 A  
DOCKED: ATOM      9  C   UNL     1     -36.259  -7.820  -0.204 -0.32 +0.00    +0.068 A  
DOCKED: ATOM     10  N   UNL     1     -38.164  -7.011  -1.763 -2.53 -0.00    -0.191 NA 
DOCKED: ATOM     11  C   UNL     1     -37.310  -7.374  -1.063 -0.43 +0.00    +0.101 C  
DOCKED: ENDROOT
DOCKED: BRANCH   2  12
DOCKED: ATOM     12  C   UNL     1     -32.295 -10.261   1.865 -0.02 +0.00    +0.038 C  
DOCKED: BRANCH  12  13
DOCKED: ATOM     13  C   UNL     1     -33.189 -11.478   2.097 -0.04 +0.00    +0.038 C  
DOCKED: BRANCH  13  14
DOCKED: ATOM     14  C   UNL     1     -32.764 -12.648   1.211 -0.03 +0.00    +0.251 C  
DOCKED: BRANCH  14  15
DOCKED: ATOM     15  N   UNL     1     -33.896 -13.532   0.962 -0.17 +0.00    +0.141 N  
DOCKED: ATOM     16  C   UNL     1     -34.178 -14.355   2.139 -0.13 +0.00    +0.285 C  
DOCKED: ATOM     17  C   UNL     1     -35.082 -12.759   0.588 -0.15 +0.00    +0.285 C  
DOCKED: ENDBRANCH  14  15
DOCKED: ENDBRANCH  13  14
DOCKED: ENDBRANCH  12  13
DOCKED: ENDBRANCH   2  12
DOCKED: BRANCH   2  18
DOCKED: ATOM     18  C   UNL     1     -33.233  -8.925   3.743 -0.12 +0.00    +0.006 A  
DOCKED: ATOM     19  C   UNL     1     -34.315  -9.608   4.297 -0.13 +0.00    +0.001 A  
DOCKED: ATOM     20  C   UNL     1     -34.534  -9.564   5.675 -0.12 +0.00    +0.029 A  
DOCKED: ATOM     21  C   UNL     1     -33.671  -8.839   6.495 -0.08 +0.00    +0.140 A  
DOCKED: ATOM     22  C   UNL     1     -32.589  -8.157   5.941 -0.06 +0.00    +0.029 A  
DOCKED: ATOM     23  F   UNL     1     -33.881  -8.799   7.818 -0.03 -0.00    -0.204 F  
DOCKED: ATOM     24  C   UNL     1     -32.369  -8.199   4.563 -0.10 +0.00    +0.001 A  
DOCKED: ENDBRANCH   2  18
DOCKED: TORSDOF 5
DOCKED: TER
DOCKED: ENDMDL
________________________________________________________________________________


    FINAL DOCKED STATE:
    ________________________


Run:   51 / 512
Time taken for this run:   0.002s

DOCKED: MODEL        51
DOCKED: USER    Run = 51
DOCKED: USER
DOCKED: USER    Estimated Free Energy of Binding    =  -4.62 kcal/mol  [=(1)+(2)+(3)-(4)]
DOCKED: USER
DOCKED: USER    (1) Final Intermolecular Energy     =  -6.11 kcal/mol
DOCKED: USER        vdW + Hbond + desolv Energy     =  -6.11 kcal/mol
DOCKED: USER        Electrostatic Energy            =  +0.00 kcal/mol
DOCKED: USER        Moving Ligand-Fixed Receptor    =  -6.11 kcal/mol
DOCKED: USER        Moving Ligand-Moving Receptor   =  +0.00 kcal/mol
DOCKED: USER    (2) Final Total Internal Energy     =  -1.43 kcal/mol
DOCKED: USER    (3) Torsional Free Energy           =  +1.49 kcal/mol
DOCKED: USER    (4) Unbound System's Energy         =  -1.43 kcal/mol
DOCKED: USER
DOCKED: USER
DOCKED: REMARK  5 active torsions:
DOCKED: REMARK  status: ('A' for Active; 'I' for Inactive)
DOCKED: REMARK    1  A    between atoms: C_2  and  C_19 
DOCKED: REMARK    2  A    between atoms: C_2  and  C_11 
DOCKED: REMARK    3  A    between atoms: C_19  and  C_20 
DOCKED: REMARK    4  A    between atoms: C_20  and  C_21 
DOCKED: REMARK    5  A    between atoms: C_21  and  N_22 
DOCKED: USER                              x       y       z     vdW  Elec       q    Type
DOCKED: USER                           _______ _______ _______ _____ _____    ______ ____
DOCKED: ROOT
DOCKED: ATOM      1  O   UNL     1     -39.675 -18.462  12.122 -0.05 -0.00    -0.346 OA 
DOCKED: ATOM      2  C   UNL     1     -39.380 -17.218  11.411 -0.15 +0.00    +0.130 C  
DOCKED: ATOM      3  C   UNL     1     -39.694 -17.539   9.979 -0.31 +0.00    +0.004 A  
DOCKED: ATOM      4  C   UNL     1     -40.228 -18.817   9.893 -0.32 +0.00    +0.006 A  
DOCKED: ATOM      5  C   UNL     1     -40.314 -19.417  11.243 -0.17 +0.00    +0.169 C  
DOCKED: ATOM      6  C   UNL     1     -39.532 -16.758   8.844 -0.27 -0.00    -0.001 A  
DOCKED: ATOM      7  C   UNL     1     -40.611 -19.357   8.678 -0.43 +0.00    +0.008 A  
DOCKED: ATOM      8  C   UNL     1     -39.910 -17.290   7.610 +0.08 +0.00    +0.010 A  
DOCKED: ATOM      9  C   UNL     1     -40.447 -18.583   7.528 -0.42 +0.00    +0.068 A  
DOCKED: ATOM     10  N   UNL     1     -41.143 -19.540   5.223 -2.27 -0.00    -0.191 NA 
DOCKED: ATOM     11  C   UNL     1     -40.830 -19.111   6.256 -0.40 +0.00    +0.101 C  
DOCKED: ENDROOT
DOCKED: BRANCH   2  12
DOCKED: ATOM     12  C   UNL     1     -40.264 -16.115  11.980 -0.10 +0.00    +0.038 C  
DOCKED: BRANCH  12  13
DOCKED: ATOM     13  C   UNL     1     -41.602 -16.041  11.248 -0.16 +0.00    +0.038 C  
DOCKED: BRANCH  13  14
DOCKED: ATOM     14  C   UNL     1     -42.712 -16.702  12.063 -0.03 +0.00    +0.251 C  
DOCKED: BRANCH  14  15
DOCKED: ATOM     15  N   UNL     1     -43.745 -17.230  11.179 -0.12 +0.00    +0.141 N  
DOCKED: ATOM     16  C   UNL     1     -43.373 -17.035   9.777 -0.12 +0.00    +0.285 C  
DOCKED: ATOM     17  C   UNL     1     -43.980 -18.649  11.450 -0.07 +0.00    +0.285 C  
DOCKED: ENDBRANCH  14  15
DOCKED: ENDBRANCH  13  14
DOCKED: ENDBRANCH  12  13
DOCKED: ENDBRANCH   2  12
DOCKED: BRANCH   2  18
DOCKED: ATOM     18  C   UNL     1     -37.935 -16.919  11.637 -0.19 +0.00    +0.006 A  
DOCKED: ATOM     19  C   UNL     1     -37.539 -15.636  12.013 -0.11 +0.00    +0.001 A  
DOCKED: ATOM     20  C   UNL     1     -36.188 -15.358  12.223 -0.09 +0.00    +0.029 A  
DOCKED: ATOM     21  C   UNL     1     -35.235 -16.363  12.057 -0.11 +0.00    +0.140 A  
DOCKED: ATOM     22  C   UNL     1     -35.632 -17.646  11.681 -0.11 +0.00    +0.029 A  
DOCKED: ATOM     23  F   UNL     1     -33.939 -16.096  12.260 -0.01 -0.00    -0.204 F  
DOCKED: ATOM     24  C   UNL     1     -36.983 -17.925  11.470 -0.19 +0.00    +0.001 A  
DOCKED: ENDBRANCH   2  18
DOCKED: TORSDOF 5
DOCKED: TER
DOCKED: ENDMDL
________________________________________________________________________________


    FINAL DOCKED STATE:
    ________________________


Run:   52 / 512
Time taken for this run:   0.002s

DOCKED: MODEL        52
DOCKED: USER    Run = 52
DOCKED: USER
DOCKED: USER    Estimated Free Energy of Binding    =  -4.63 kcal/mol  [=(1)+(2)+(3)-(4)]
DOCKED: USER
DOCKED: USER    (1) Final Intermolecular Energy     =  -6.12 kcal/mol
DOCKED: USER        vdW + Hbond + desolv Energy     =  -6.12 kcal/mol
DOCKED: USER        Electrostatic Energy            =  +0.00 kcal/mol
DOCKED: USER        Moving Ligand-Fixed Receptor    =  -6.12 kcal/mol
DOCKED: USER        Moving Ligand-Moving Receptor   =  +0.00 kcal/mol
DOCKED: USER    (2) Final Total Internal Energy     =  -1.21 kcal/mol
DOCKED: USER    (3) Torsional Free Energy           =  +1.49 kcal/mol
DOCKED: USER    (4) Unbound System's Energy         =  -1.21 kcal/mol
DOCKED: USER
DOCKED: USER
DOCKED: REMARK  5 active torsions:
DOCKED: REMARK  status: ('A' for Active; 'I' for Inactive)
DOCKED: REMARK    1  A    between atoms: C_2  and  C_19 
DOCKED: REMARK    2  A    between atoms: C_2  and  C_11 
DOCKED: REMARK    3  A    between atoms: C_19  and  C_20 
DOCKED: REMARK    4  A    between atoms: C_20  and  C_21 
DOCKED: REMARK    5  A    between atoms: C_21  and  N_22 
DOCKED: USER                              x       y       z     vdW  Elec       q    Type
DOCKED: USER                           _______ _______ _______ _____ _____    ______ ____
DOCKED: ROOT
DOCKED: ATOM      1  O   UNL     1     -33.248  -8.200   3.360 -0.07 -0.00    -0.346 OA 
DOCKED: ATOM      2  C   UNL     1     -34.304  -9.203   3.495 -0.14 +0.00    +0.130 C  
DOCKED: ATOM      3  C   UNL     1     -35.269  -8.859   2.398 -0.14 +0.00    +0.004 A  
DOCKED: ATOM      4  C   UNL     1     -34.756  -7.821   1.633 -0.13 +0.00    +0.006 A  
DOCKED: ATOM      5  C   UNL     1     -33.430  -7.421   2.155 -0.12 +0.00    +0.169 C  
DOCKED: ATOM      6  C   UNL     1     -36.497  -9.428   2.093 -0.30 -0.00    -0.001 A  
DOCKED: ATOM      7  C   UNL     1     -35.449  -7.315   0.547 -0.28 +0.00    +0.008 A  
DOCKED: ATOM      8  C   UNL     1     -37.211  -8.925   1.004 -0.13 +0.00    +0.010 A  
DOCKED: ATOM      9  C   UNL     1     -36.689  -7.875   0.234 -0.34 +0.00    +0.068 A  
DOCKED: ATOM     10  N   UNL     1     -38.037  -6.969  -1.784 -2.53 -0.00    -0.191 NA 
DOCKED: ATOM     11  C   UNL     1     -37.433  -7.375  -0.879 -0.42 +0.00    +0.101 C  
DOCKED: ENDROOT
DOCKED: BRANCH   2  12
DOCKED: ATOM     12  C   UNL     1     -33.683 -10.585   3.328 -0.06 +0.00    +0.038 C  
DOCKED: BRANCH  12  13
DOCKED: ATOM     13  C   UNL     1     -34.434 -11.636   4.143 -0.08 +0.00    +0.038 C  
DOCKED: BRANCH  13  14
DOCKED: ATOM     14  C   UNL     1     -35.388 -12.437   3.259 -0.13 +0.00    +0.251 C  
DOCKED: BRANCH  14  15
DOCKED: ATOM     15  N   UNL     1     -36.451 -13.026   4.065 -0.19 +0.00    +0.141 N  
DOCKED: ATOM     16  C   UNL     1     -35.946 -13.414   5.382 -0.13 +0.00    +0.285 C  
DOCKED: ATOM     17  C   UNL     1     -37.569 -12.091   4.206 -0.17 +0.00    +0.285 C  
DOCKED: ENDBRANCH  14  15
DOCKED: ENDBRANCH  13  14
DOCKED: ENDBRANCH  12  13
DOCKED: ENDBRANCH   2  12
DOCKED: BRANCH   2  18
DOCKED: ATOM     18  C   UNL     1     -34.891  -9.038   4.858 -0.12 +0.00    +0.006 A  
DOCKED: ATOM     19  C   UNL     1     -34.054  -8.891   5.963 -0.11 +0.00    +0.001 A  
DOCKED: ATOM     20  C   UNL     1     -34.604  -8.738   7.237 -0.10 +0.00    +0.029 A  
DOCKED: ATOM     21  C   UNL     1     -35.988  -8.730   7.402 -0.12 +0.00    +0.140 A  
DOCKED: ATOM     22  C   UNL     1     -36.824  -8.877   6.296 -0.20 +0.00    +0.029 A  
DOCKED: ATOM     23  F   UNL     1     -36.515  -8.581   8.624 -0.02 -0.00    -0.204 F  
DOCKED: ATOM     24  C   UNL     1     -36.275  -9.031   5.022 -0.09 +0.00    +0.001 A  
DOCKED: ENDBRANCH   2  18
DOCKED: TORSDOF 5
DOCKED: TER
DOCKED: ENDMDL
________________________________________________________________________________


    FINAL DOCKED STATE:
    ________________________


Run:   53 / 512
Time taken for this run:   0.002s

DOCKED: MODEL        53
DOCKED: USER    Run = 53
DOCKED: USER
DOCKED: USER    Estimated Free Energy of Binding    =  -4.13 kcal/mol  [=(1)+(2)+(3)-(4)]
DOCKED: USER
DOCKED: USER    (1) Final Intermolecular Energy     =  -5.62 kcal/mol
DOCKED: USER        vdW + Hbond + desolv Energy     =  -5.62 kcal/mol
DOCKED: USER        Electrostatic Energy            =  +0.00 kcal/mol
DOCKED: USER        Moving Ligand-Fixed Receptor    =  -5.62 kcal/mol
DOCKED: USER        Moving Ligand-Moving Receptor   =  +0.00 kcal/mol
DOCKED: USER    (2) Final Total Internal Energy     =  -1.43 kcal/mol
DOCKED: USER    (3) Torsional Free Energy           =  +1.49 kcal/mol
DOCKED: USER    (4) Unbound System's Energy         =  -1.43 kcal/mol
DOCKED: USER
DOCKED: USER
DOCKED: REMARK  5 active torsions:
DOCKED: REMARK  status: ('A' for Active; 'I' for Inactive)
DOCKED: REMARK    1  A    between atoms: C_2  and  C_19 
DOCKED: REMARK    2  A    between atoms: C_2  and  C_11 
DOCKED: REMARK    3  A    between atoms: C_19  and  C_20 
DOCKED: REMARK    4  A    between atoms: C_20  and  C_21 
DOCKED: REMARK    5  A    between atoms: C_21  and  N_22 
DOCKED: USER                              x       y       z     vdW  Elec       q    Type
DOCKED: USER                           _______ _______ _______ _____ _____    ______ ____
DOCKED: ROOT
DOCKED: ATOM      1  O   UNL     1     -41.409 -20.447  11.094 -1.81 -0.00    -0.346 OA 
DOCKED: ATOM      2  C   UNL     1     -40.553 -19.280  10.879 -0.20 +0.00    +0.130 C  
DOCKED: ATOM      3  C   UNL     1     -41.184 -18.211  11.723 -0.15 +0.00    +0.004 A  
DOCKED: ATOM      4  C   UNL     1     -42.242 -18.747  12.443 -0.15 +0.00    +0.006 A  
DOCKED: ATOM      5  C   UNL     1     -42.375 -20.190  12.141 -0.07 +0.00    +0.169 C  
DOCKED: ATOM      6  C   UNL     1     -40.842 -16.872  11.852 -0.10 -0.00    -0.001 A  
DOCKED: ATOM      7  C   UNL     1     -42.993 -17.969  13.307 -0.08 +0.00    +0.008 A  
DOCKED: ATOM      8  C   UNL     1     -41.592 -16.074  12.716 -0.05 +0.00    +0.010 A  
DOCKED: ATOM      9  C   UNL     1     -42.662 -16.620  13.441 -0.03 +0.00    +0.068 A  
DOCKED: ATOM     10  N   UNL     1     -44.032 -15.111  15.041 -0.00 -0.00    -0.191 NA 
DOCKED: ATOM     11  C   UNL     1     -43.418 -15.788  14.323 -0.03 +0.00    +0.101 C  
DOCKED: ENDROOT
DOCKED: BRANCH   2  12
DOCKED: ATOM     12  C   UNL     1     -39.138 -19.631  11.326 -0.33 +0.00    +0.038 C  
DOCKED: BRANCH  12  13
DOCKED: ATOM     13  C   UNL     1     -39.093 -19.974  12.814 -0.26 +0.00    +0.038 C  
DOCKED: BRANCH  13  14
DOCKED: ATOM     14  C   UNL     1     -38.411 -18.866  13.613 -0.10 +0.00    +0.251 C  
DOCKED: BRANCH  14  15
DOCKED: ATOM     15  N   UNL     1     -39.286 -18.400  14.683 -0.08 +0.00    +0.141 N  
DOCKED: ATOM     16  C   UNL     1     -39.907 -19.533  15.371 -0.10 +0.00    +0.285 C  
DOCKED: ATOM     17  C   UNL     1     -38.541 -17.575  15.635 -0.02 +0.00    +0.285 C  
DOCKED: ENDBRANCH  14  15
DOCKED: ENDBRANCH  13  14
DOCKED: ENDBRANCH  12  13
DOCKED: ENDBRANCH   2  12
DOCKED: BRANCH   2  18
DOCKED: ATOM     18  C   UNL     1     -40.595 -18.971   9.420 -0.35 +0.00    +0.006 A  
DOCKED: ATOM     19  C   UNL     1     -41.362 -19.759   8.563 -0.32 +0.00    +0.001 A  
DOCKED: ATOM     20  C   UNL     1     -41.401 -19.468   7.199 -0.34 +0.00    +0.029 A  
DOCKED: ATOM     21  C   UNL     1     -40.673 -18.392   6.694 -0.34 +0.00    +0.140 A  
DOCKED: ATOM     22  C   UNL     1     -39.906 -17.604   7.552 -0.22 +0.00    +0.029 A  
DOCKED: ATOM     23  F   UNL     1     -40.712 -18.112   5.385 -0.10 -0.00    -0.204 F  
DOCKED: ATOM     24  C   UNL     1     -39.867 -17.894   8.917 -0.39 +0.00    +0.001 A  
DOCKED: ENDBRANCH   2  18
DOCKED: TORSDOF 5
DOCKED: TER
DOCKED: ENDMDL
________________________________________________________________________________


    FINAL DOCKED STATE:
    ________________________


Run:   54 / 512
Time taken for this run:   0.002s

DOCKED: MODEL        54
DOCKED: USER    Run = 54
DOCKED: USER
DOCKED: USER    Estimated Free Energy of Binding    =  -5.23 kcal/mol  [=(1)+(2)+(3)-(4)]
DOCKED: USER
DOCKED: USER    (1) Final Intermolecular Energy     =  -6.72 kcal/mol
DOCKED: USER        vdW + Hbond + desolv Energy     =  -6.72 kcal/mol
DOCKED: USER        Electrostatic Energy            =  +0.00 kcal/mol
DOCKED: USER        Moving Ligand-Fixed Receptor    =  -6.72 kcal/mol
DOCKED: USER        Moving Ligand-Moving Receptor   =  +0.00 kcal/mol
DOCKED: USER    (2) Final Total Internal Energy     =  -1.09 kcal/mol
DOCKED: USER    (3) Torsional Free Energy           =  +1.49 kcal/mol
DOCKED: USER    (4) Unbound System's Energy         =  -1.09 kcal/mol
DOCKED: USER
DOCKED: USER
DOCKED: REMARK  5 active torsions:
DOCKED: REMARK  status: ('A' for Active; 'I' for Inactive)
DOCKED: REMARK    1  A    between atoms: C_2  and  C_19 
DOCKED: REMARK    2  A    between atoms: C_2  and  C_11 
DOCKED: REMARK    3  A    between atoms: C_19  and  C_20 
DOCKED: REMARK    4  A    between atoms: C_20  and  C_21 
DOCKED: REMARK    5  A    between atoms: C_21  and  N_22 
DOCKED: USER                              x       y       z     vdW  Elec       q    Type
DOCKED: USER                           _______ _______ _______ _____ _____    ______ ____
DOCKED: ROOT
DOCKED: ATOM      1  O   UNL     1     -41.691 -18.237  11.719 -0.02 -0.00    -0.346 OA 
DOCKED: ATOM      2  C   UNL     1     -40.741 -17.258  11.188 -0.13 +0.00    +0.130 C  
DOCKED: ATOM      3  C   UNL     1     -40.668 -17.586   9.725 -0.28 +0.00    +0.004 A  
DOCKED: ATOM      4  C   UNL     1     -41.577 -18.590   9.425 -0.30 +0.00    +0.006 A  
DOCKED: ATOM      5  C   UNL     1     -42.314 -18.982  10.648 -0.16 +0.00    +0.169 C  
DOCKED: ATOM      6  C   UNL     1     -39.868 -17.031   8.736 -0.30 -0.00    -0.001 A  
DOCKED: ATOM      7  C   UNL     1     -41.716 -19.075   8.136 -0.39 +0.00    +0.008 A  
DOCKED: ATOM      8  C   UNL     1     -39.993 -17.513   7.432 -0.15 +0.00    +0.010 A  
DOCKED: ATOM      9  C   UNL     1     -40.913 -18.530   7.133 -0.38 +0.00    +0.068 A  
DOCKED: ATOM     10  N   UNL     1     -41.123 -19.398   4.701 -2.70 -0.00    -0.191 NA 
DOCKED: ATOM     11  C   UNL     1     -41.028 -19.009   5.792 -0.29 +0.00    +0.101 C  
DOCKED: ENDROOT
DOCKED: BRANCH   2  12
DOCKED: ATOM     12  C   UNL     1     -41.288 -15.861  11.457 -0.14 +0.00    +0.038 C  
DOCKED: BRANCH  12  13
DOCKED: ATOM     13  C   UNL     1     -40.220 -14.792  11.231 -0.15 +0.00    +0.038 C  
DOCKED: BRANCH  13  14
DOCKED: ATOM     14  C   UNL     1     -40.621 -13.845  10.102 -0.16 +0.00    +0.251 C  
DOCKED: BRANCH  14  15
DOCKED: ATOM     15  N   UNL     1     -39.493 -13.003   9.721 -0.14 +0.00    +0.141 N  
DOCKED: ATOM     16  C   UNL     1     -39.446 -11.797  10.551 -0.06 +0.00    +0.285 C  
DOCKED: ATOM     17  C   UNL     1     -38.235 -13.744   9.832 -0.12 +0.00    +0.285 C  
DOCKED: ENDBRANCH  14  15
DOCKED: ENDBRANCH  13  14
DOCKED: ENDBRANCH  12  13
DOCKED: ENDBRANCH   2  12
DOCKED: BRANCH   2  18
DOCKED: ATOM     18  C   UNL     1     -39.447 -17.475  11.898 -0.14 +0.00    +0.006 A  
DOCKED: ATOM     19  C   UNL     1     -39.411 -17.490  13.292 -0.09 +0.00    +0.001 A  
DOCKED: ATOM     20  C   UNL     1     -38.200 -17.694  13.955 -0.10 +0.00    +0.029 A  
DOCKED: ATOM     21  C   UNL     1     -37.028 -17.882  13.224 -0.05 +0.00    +0.140 A  
DOCKED: ATOM     22  C   UNL     1     -37.065 -17.867  11.830 -0.19 +0.00    +0.029 A  
DOCKED: ATOM     23  F   UNL     1     -35.866 -18.079  13.860 -0.02 -0.00    -0.204 F  
DOCKED: ATOM     24  C   UNL     1     -38.276 -17.664  11.166 -0.26 +0.00    +0.001 A  
DOCKED: ENDBRANCH   2  18
DOCKED: TORSDOF 5
DOCKED: TER
DOCKED: ENDMDL
________________________________________________________________________________


    FINAL DOCKED STATE:
    ________________________


Run:   55 / 512
Time taken for this run:   0.002s

DOCKED: MODEL        55
DOCKED: USER    Run = 55
DOCKED: USER
DOCKED: USER    Estimated Free Energy of Binding    =  -4.25 kcal/mol  [=(1)+(2)+(3)-(4)]
DOCKED: USER
DOCKED: USER    (1) Final Intermolecular Energy     =  -5.75 kcal/mol
DOCKED: USER        vdW + Hbond + desolv Energy     =  -5.75 kcal/mol
DOCKED: USER        Electrostatic Energy            =  +0.00 kcal/mol
DOCKED: USER        Moving Ligand-Fixed Receptor    =  -5.75 kcal/mol
DOCKED: USER        Moving Ligand-Moving Receptor   =  +0.00 kcal/mol
DOCKED: USER    (2) Final Total Internal Energy     =  -1.21 kcal/mol
DOCKED: USER    (3) Torsional Free Energy           =  +1.49 kcal/mol
DOCKED: USER    (4) Unbound System's Energy         =  -1.21 kcal/mol
DOCKED: USER
DOCKED: USER
DOCKED: REMARK  5 active torsions:
DOCKED: REMARK  status: ('A' for Active; 'I' for Inactive)
DOCKED: REMARK    1  A    between atoms: C_2  and  C_19 
DOCKED: REMARK    2  A    between atoms: C_2  and  C_11 
DOCKED: REMARK    3  A    between atoms: C_19  and  C_20 
DOCKED: REMARK    4  A    between atoms: C_20  and  C_21 
DOCKED: REMARK    5  A    between atoms: C_21  and  N_22 
DOCKED: USER                              x       y       z     vdW  Elec       q    Type
DOCKED: USER                           _______ _______ _______ _____ _____    ______ ____
DOCKED: ROOT
DOCKED: ATOM      1  O   UNL     1     -36.893 -15.127  11.499 -0.06 -0.00    -0.346 OA 
DOCKED: ATOM      2  C   UNL     1     -38.138 -14.566  10.975 -0.13 +0.00    +0.130 C  
DOCKED: ATOM      3  C   UNL     1     -38.852 -15.753  10.395 -0.24 +0.00    +0.004 A  
DOCKED: ATOM      4  C   UNL     1     -38.130 -16.908  10.663 -0.23 +0.00    +0.006 A  
DOCKED: ATOM      5  C   UNL     1     -36.914 -16.572  11.437 -0.14 +0.00    +0.169 C  
DOCKED: ATOM      6  C   UNL     1     -40.050 -15.807   9.698 -0.23 -0.00    -0.001 A  
DOCKED: ATOM      7  C   UNL     1     -38.575 -18.149  10.241 -0.32 +0.00    +0.008 A  
DOCKED: ATOM      8  C   UNL     1     -40.509 -17.051   9.262 -0.26 +0.00    +0.010 A  
DOCKED: ATOM      9  C   UNL     1     -39.776 -18.216   9.533 -0.31 +0.00    +0.068 A  
DOCKED: ATOM     10  N   UNL     1     -40.660 -20.510   8.713 -2.62 -0.00    -0.191 NA 
DOCKED: ATOM     11  C   UNL     1     -40.263 -19.481   9.080 -0.33 +0.00    +0.101 C  
DOCKED: ENDROOT
DOCKED: BRANCH   2  12
DOCKED: ATOM     12  C   UNL     1     -38.899 -13.920  12.127 -0.06 +0.00    +0.038 C  
DOCKED: BRANCH  12  13
DOCKED: ATOM     13  C   UNL     1     -38.923 -14.827  13.356 -0.03 +0.00    +0.038 C  
DOCKED: BRANCH  13  14
DOCKED: ATOM     14  C   UNL     1     -40.354 -15.212  13.728 -0.01 +0.00    +0.251 C  
DOCKED: BRANCH  14  15
DOCKED: ATOM     15  N   UNL     1     -40.350 -16.256  14.745 -0.01 +0.00    +0.141 N  
DOCKED: ATOM     16  C   UNL     1     -41.683 -16.414  15.328 +0.00 +0.00    +0.285 C  
DOCKED: ATOM     17  C   UNL     1     -39.890 -17.525  14.179 -0.03 +0.00    +0.285 C  
DOCKED: ENDBRANCH  14  15
DOCKED: ENDBRANCH  13  14
DOCKED: ENDBRANCH  12  13
DOCKED: ENDBRANCH   2  12
DOCKED: BRANCH   2  18
DOCKED: ATOM     18  C   UNL     1     -37.761 -13.554   9.945 -0.16 +0.00    +0.006 A  
DOCKED: ATOM     19  C   UNL     1     -38.521 -12.394   9.797 -0.13 +0.00    +0.001 A  
DOCKED: ATOM     20  C   UNL     1     -38.167 -11.449   8.833 -0.10 +0.00    +0.029 A  
DOCKED: ATOM     21  C   UNL     1     -37.056 -11.664   8.020 -0.06 +0.00    +0.140 A  
DOCKED: ATOM     22  C   UNL     1     -36.297 -12.825   8.168 -0.12 +0.00    +0.029 A  
DOCKED: ATOM     23  F   UNL     1     -36.716 -10.756   7.096 -0.02 -0.00    -0.204 F  
DOCKED: ATOM     24  C   UNL     1     -36.650 -13.771   9.132 -0.16 +0.00    +0.001 A  
DOCKED: ENDBRANCH   2  18
DOCKED: TORSDOF 5
DOCKED: TER
DOCKED: ENDMDL
________________________________________________________________________________


    FINAL DOCKED STATE:
    ________________________


Run:   56 / 512
Time taken for this run:   0.002s

DOCKED: MODEL        56
DOCKED: USER    Run = 56
DOCKED: USER
DOCKED: USER    Estimated Free Energy of Binding    =  -4.14 kcal/mol  [=(1)+(2)+(3)-(4)]
DOCKED: USER
DOCKED: USER    (1) Final Intermolecular Energy     =  -5.63 kcal/mol
DOCKED: USER        vdW + Hbond + desolv Energy     =  -5.63 kcal/mol
DOCKED: USER        Electrostatic Energy            =  +0.00 kcal/mol
DOCKED: USER        Moving Ligand-Fixed Receptor    =  -5.63 kcal/mol
DOCKED: USER        Moving Ligand-Moving Receptor   =  +0.00 kcal/mol
DOCKED: USER    (2) Final Total Internal Energy     =  -1.43 kcal/mol
DOCKED: USER    (3) Torsional Free Energy           =  +1.49 kcal/mol
DOCKED: USER    (4) Unbound System's Energy         =  -1.43 kcal/mol
DOCKED: USER
DOCKED: USER
DOCKED: REMARK  5 active torsions:
DOCKED: REMARK  status: ('A' for Active; 'I' for Inactive)
DOCKED: REMARK    1  A    between atoms: C_2  and  C_19 
DOCKED: REMARK    2  A    between atoms: C_2  and  C_11 
DOCKED: REMARK    3  A    between atoms: C_19  and  C_20 
DOCKED: REMARK    4  A    between atoms: C_20  and  C_21 
DOCKED: REMARK    5  A    between atoms: C_21  and  N_22 
DOCKED: USER                              x       y       z     vdW  Elec       q    Type
DOCKED: USER                           _______ _______ _______ _____ _____    ______ ____
DOCKED: ROOT
DOCKED: ATOM      1  O   UNL     1     -37.250 -14.952  11.561 -0.04 -0.00    -0.346 OA 
DOCKED: ATOM      2  C   UNL     1     -38.588 -14.495  11.185 -0.11 +0.00    +0.130 C  
DOCKED: ATOM      3  C   UNL     1     -39.224 -15.710  10.573 -0.22 +0.00    +0.004 A  
DOCKED: ATOM      4  C   UNL     1     -38.365 -16.795  10.688 -0.24 +0.00    +0.006 A  
DOCKED: ATOM      5  C   UNL     1     -37.127 -16.383  11.386 -0.15 +0.00    +0.169 C  
DOCKED: ATOM      6  C   UNL     1     -40.466 -15.847   9.972 -0.24 -0.00    -0.001 A  
DOCKED: ATOM      7  C   UNL     1     -38.715 -18.045  10.207 -0.32 +0.00    +0.008 A  
DOCKED: ATOM      8  C   UNL     1     -40.831 -17.101   9.477 -0.26 +0.00    +0.010 A  
DOCKED: ATOM      9  C   UNL     1     -39.960 -18.194   9.595 -0.30 +0.00    +0.068 A  
DOCKED: ATOM     10  N   UNL     1     -40.671 -20.507   8.670 -2.59 -0.00    -0.191 NA 
DOCKED: ATOM     11  C   UNL     1     -40.352 -19.469   9.084 -0.34 +0.00    +0.101 C  
DOCKED: ENDROOT
DOCKED: BRANCH   2  12
DOCKED: ATOM     12  C   UNL     1     -39.307 -14.020  12.442 -0.05 +0.00    +0.038 C  
DOCKED: BRANCH  12  13
DOCKED: ATOM     13  C   UNL     1     -38.315 -13.628  13.536 -0.02 +0.00    +0.038 C  
DOCKED: BRANCH  13  14
DOCKED: ATOM     14  C   UNL     1     -38.481 -12.161  13.928 -0.00 +0.00    +0.251 C  
DOCKED: BRANCH  14  15
DOCKED: ATOM     15  N   UNL     1     -37.338 -11.381  13.469 -0.00 +0.00    +0.141 N  
DOCKED: ATOM     16  C   UNL     1     -36.425 -12.215  12.686 -0.00 +0.00    +0.285 C  
DOCKED: ATOM     17  C   UNL     1     -37.782 -10.232  12.678 +0.00 +0.00    +0.285 C  
DOCKED: ENDBRANCH  14  15
DOCKED: ENDBRANCH  13  14
DOCKED: ENDBRANCH  12  13
DOCKED: ENDBRANCH   2  12
DOCKED: BRANCH   2  18
DOCKED: ATOM     18  C   UNL     1     -38.411 -13.379  10.211 -0.15 +0.00    +0.006 A  
DOCKED: ATOM     19  C   UNL     1     -39.487 -12.548   9.900 -0.16 +0.00    +0.001 A  
DOCKED: ATOM     20  C   UNL     1     -39.320 -11.505   8.989 -0.13 +0.00    +0.029 A  
DOCKED: ATOM     21  C   UNL     1     -38.078 -11.292   8.392 -0.06 +0.00    +0.140 A  
DOCKED: ATOM     22  C   UNL     1     -37.002 -12.123   8.704 -0.10 +0.00    +0.029 A  
DOCKED: ATOM     23  F   UNL     1     -37.918 -10.289   7.519 -0.02 -0.00    -0.204 F  
DOCKED: ATOM     24  C   UNL     1     -37.169 -13.168   9.615 -0.14 +0.00    +0.001 A  
DOCKED: ENDBRANCH   2  18
DOCKED: TORSDOF 5
DOCKED: TER
DOCKED: ENDMDL
________________________________________________________________________________


    FINAL DOCKED STATE:
    ________________________


Run:   57 / 512
Time taken for this run:   0.002s

DOCKED: MODEL        57
DOCKED: USER    Run = 57
DOCKED: USER
DOCKED: USER    Estimated Free Energy of Binding    =  -4.29 kcal/mol  [=(1)+(2)+(3)-(4)]
DOCKED: USER
DOCKED: USER    (1) Final Intermolecular Energy     =  -5.78 kcal/mol
DOCKED: USER        vdW + Hbond + desolv Energy     =  -5.78 kcal/mol
DOCKED: USER        Electrostatic Energy            =  +0.00 kcal/mol
DOCKED: USER        Moving Ligand-Fixed Receptor    =  -5.78 kcal/mol
DOCKED: USER        Moving Ligand-Moving Receptor   =  +0.00 kcal/mol
DOCKED: USER    (2) Final Total Internal Energy     =  -1.38 kcal/mol
DOCKED: USER    (3) Torsional Free Energy           =  +1.49 kcal/mol
DOCKED: USER    (4) Unbound System's Energy         =  -1.38 kcal/mol
DOCKED: USER
DOCKED: USER
DOCKED: REMARK  5 active torsions:
DOCKED: REMARK  status: ('A' for Active; 'I' for Inactive)
DOCKED: REMARK    1  A    between atoms: C_2  and  C_19 
DOCKED: REMARK    2  A    between atoms: C_2  and  C_11 
DOCKED: REMARK    3  A    between atoms: C_19  and  C_20 
DOCKED: REMARK    4  A    between atoms: C_20  and  C_21 
DOCKED: REMARK    5  A    between atoms: C_21  and  N_22 
DOCKED: USER                              x       y       z     vdW  Elec       q    Type
DOCKED: USER                           _______ _______ _______ _____ _____    ______ ____
DOCKED: ROOT
DOCKED: ATOM      1  O   UNL     1     -36.724 -15.351  11.631 -0.06 -0.00    -0.346 OA 
DOCKED: ATOM      2  C   UNL     1     -37.903 -14.715  11.041 -0.13 +0.00    +0.130 C  
DOCKED: ATOM      3  C   UNL     1     -38.664 -15.860  10.438 -0.23 +0.00    +0.004 A  
DOCKED: ATOM      4  C   UNL     1     -38.034 -17.056  10.751 -0.24 +0.00    +0.006 A  
DOCKED: ATOM      5  C   UNL     1     -36.838 -16.792  11.581 -0.15 +0.00    +0.169 C  
DOCKED: ATOM      6  C   UNL     1     -39.828 -15.845   9.682 -0.25 -0.00    -0.001 A  
DOCKED: ATOM      7  C   UNL     1     -38.539 -18.271  10.319 -0.33 +0.00    +0.008 A  
DOCKED: ATOM      8  C   UNL     1     -40.347 -17.061   9.236 -0.29 +0.00    +0.010 A  
DOCKED: ATOM      9  C   UNL     1     -39.706 -18.268   9.553 -0.31 +0.00    +0.068 A  
DOCKED: ATOM     10  N   UNL     1     -40.699 -20.509   8.712 -2.61 -0.00    -0.191 NA 
DOCKED: ATOM     11  C   UNL     1     -40.253 -19.504   9.089 -0.32 +0.00    +0.101 C  
DOCKED: ENDROOT
DOCKED: BRANCH   2  12
DOCKED: ATOM     12  C   UNL     1     -38.674 -14.007  12.148 -0.06 +0.00    +0.038 C  
DOCKED: BRANCH  12  13
DOCKED: ATOM     13  C   UNL     1     -38.285 -14.539  13.526 -0.02 +0.00    +0.038 C  
DOCKED: BRANCH  13  14
DOCKED: ATOM     14  C   UNL     1     -39.400 -15.398  14.119 -0.01 +0.00    +0.251 C  
DOCKED: BRANCH  14  15
DOCKED: ATOM     15  N   UNL     1     -38.838 -16.557  14.802 -0.02 +0.00    +0.141 N  
DOCKED: ATOM     16  C   UNL     1     -39.199 -17.792  14.103 -0.05 +0.00    +0.285 C  
DOCKED: ATOM     17  C   UNL     1     -37.383 -16.439  14.906 -0.02 +0.00    +0.285 C  
DOCKED: ENDBRANCH  14  15
DOCKED: ENDBRANCH  13  14
DOCKED: ENDBRANCH  12  13
DOCKED: ENDBRANCH   2  12
DOCKED: BRANCH   2  18
DOCKED: ATOM     18  C   UNL     1     -37.410 -13.743  10.021 -0.16 +0.00    +0.006 A  
DOCKED: ATOM     19  C   UNL     1     -38.017 -12.494   9.900 -0.12 +0.00    +0.001 A  
DOCKED: ATOM     20  C   UNL     1     -37.556 -11.586   8.946 -0.09 +0.00    +0.029 A  
DOCKED: ATOM     21  C   UNL     1     -36.489 -11.928   8.116 -0.08 +0.00    +0.140 A  
DOCKED: ATOM     22  C   UNL     1     -35.882 -13.178   8.239 -0.14 +0.00    +0.029 A  
DOCKED: ATOM     23  F   UNL     1     -36.045 -11.056   7.202 -0.01 -0.00    -0.204 F  
DOCKED: ATOM     24  C   UNL     1     -36.343 -14.087   9.192 -0.11 +0.00    +0.001 A  
DOCKED: ENDBRANCH   2  18
DOCKED: TORSDOF 5
DOCKED: TER
DOCKED: ENDMDL
________________________________________________________________________________


    FINAL DOCKED STATE:
    ________________________


Run:   58 / 512
Time taken for this run:   0.002s

DOCKED: MODEL        58
DOCKED: USER    Run = 58
DOCKED: USER
DOCKED: USER    Estimated Free Energy of Binding    =  -3.96 kcal/mol  [=(1)+(2)+(3)-(4)]
DOCKED: USER
DOCKED: USER    (1) Final Intermolecular Energy     =  -5.45 kcal/mol
DOCKED: USER        vdW + Hbond + desolv Energy     =  -5.45 kcal/mol
DOCKED: USER        Electrostatic Energy            =  +0.00 kcal/mol
DOCKED: USER        Moving Ligand-Fixed Receptor    =  -5.45 kcal/mol
DOCKED: USER        Moving Ligand-Moving Receptor   =  +0.00 kcal/mol
DOCKED: USER    (2) Final Total Internal Energy     =  -1.16 kcal/mol
DOCKED: USER    (3) Torsional Free Energy           =  +1.49 kcal/mol
DOCKED: USER    (4) Unbound System's Energy         =  -1.16 kcal/mol
DOCKED: USER
DOCKED: USER
DOCKED: REMARK  5 active torsions:
DOCKED: REMARK  status: ('A' for Active; 'I' for Inactive)
DOCKED: REMARK    1  A    between atoms: C_2  and  C_19 
DOCKED: REMARK    2  A    between atoms: C_2  and  C_11 
DOCKED: REMARK    3  A    between atoms: C_19  and  C_20 
DOCKED: REMARK    4  A    between atoms: C_20  and  C_21 
DOCKED: REMARK    5  A    between atoms: C_21  and  N_22 
DOCKED: USER                              x       y       z     vdW  Elec       q    Type
DOCKED: USER                           _______ _______ _______ _____ _____    ______ ____
DOCKED: ROOT
DOCKED: ATOM      1  O   UNL     1     -32.210 -10.201  -0.033 +0.01 -0.00    -0.346 OA 
DOCKED: ATOM      2  C   UNL     1     -33.129 -10.149   1.105 -0.04 +0.00    +0.130 C  
DOCKED: ATOM      3  C   UNL     1     -34.306  -9.377   0.582 -0.14 +0.00    +0.004 A  
DOCKED: ATOM      4  C   UNL     1     -34.125  -9.108  -0.767 -0.14 +0.00    +0.006 A  
DOCKED: ATOM      5  C   UNL     1     -32.842  -9.684  -1.227 -0.04 +0.00    +0.169 C  
DOCKED: ATOM      6  C   UNL     1     -35.450  -8.958   1.245 -0.24 -0.00    -0.001 A  
DOCKED: ATOM      7  C   UNL     1     -35.073  -8.410  -1.496 -0.23 +0.00    +0.008 A  
DOCKED: ATOM      8  C   UNL     1     -36.413  -8.249   0.525 -0.33 +0.00    +0.010 A  
DOCKED: ATOM      9  C   UNL     1     -36.226  -7.978  -0.839 -0.26 +0.00    +0.068 A  
DOCKED: ATOM     10  N   UNL     1     -38.037  -6.665  -2.147 -2.56 -0.00    -0.191 NA 
DOCKED: ATOM     11  C   UNL     1     -37.224  -7.253  -1.560 -0.34 +0.00    +0.101 C  
DOCKED: ENDROOT
DOCKED: BRANCH   2  12
DOCKED: ATOM     12  C   UNL     1     -33.484 -11.576   1.504 -0.07 +0.00    +0.038 C  
DOCKED: BRANCH  12  13
DOCKED: ATOM     13  C   UNL     1     -34.224 -12.300   0.381 -0.19 +0.00    +0.038 C  
DOCKED: BRANCH  13  14
DOCKED: ATOM     14  C   UNL     1     -33.478 -13.564  -0.043 -0.13 +0.00    +0.251 C  
DOCKED: BRANCH  14  15
DOCKED: ATOM     15  N   UNL     1     -33.597 -13.765  -1.482 -0.14 +0.00    +0.141 N  
DOCKED: ATOM     16  C   UNL     1     -34.624 -14.764  -1.780 -0.23 +0.00    +0.285 C  
DOCKED: ATOM     17  C   UNL     1     -33.907 -12.502  -2.155 -0.09 +0.00    +0.285 C  
DOCKED: ENDBRANCH  14  15
DOCKED: ENDBRANCH  13  14
DOCKED: ENDBRANCH  12  13
DOCKED: ENDBRANCH   2  12
DOCKED: BRANCH   2  18
DOCKED: ATOM     18  C   UNL     1     -32.415  -9.443   2.210 -0.03 +0.00    +0.006 A  
DOCKED: ATOM     19  C   UNL     1     -32.448  -8.051   2.283 -0.08 +0.00    +0.001 A  
DOCKED: ATOM     20  C   UNL     1     -31.781  -7.393   3.317 -0.09 +0.00    +0.029 A  
DOCKED: ATOM     21  C   UNL     1     -31.082  -8.126   4.275 -0.04 +0.00    +0.140 A  
DOCKED: ATOM     22  C   UNL     1     -31.050  -9.518   4.201 -0.02 +0.00    +0.029 A  
DOCKED: ATOM     23  F   UNL     1     -30.443  -7.494   5.267 -0.01 -0.00    -0.204 F  
DOCKED: ATOM     24  C   UNL     1     -31.717 -10.178   3.167 -0.02 +0.00    +0.001 A  
DOCKED: ENDBRANCH   2  18
DOCKED: TORSDOF 5
DOCKED: TER
DOCKED: ENDMDL
________________________________________________________________________________


    FINAL DOCKED STATE:
    ________________________


Run:   59 / 512
Time taken for this run:   0.002s

DOCKED: MODEL        59
DOCKED: USER    Run = 59
DOCKED: USER
DOCKED: USER    Estimated Free Energy of Binding    =  -4.19 kcal/mol  [=(1)+(2)+(3)-(4)]
DOCKED: USER
DOCKED: USER    (1) Final Intermolecular Energy     =  -5.69 kcal/mol
DOCKED: USER        vdW + Hbond + desolv Energy     =  -5.69 kcal/mol
DOCKED: USER        Electrostatic Energy            =  +0.00 kcal/mol
DOCKED: USER        Moving Ligand-Fixed Receptor    =  -5.69 kcal/mol
DOCKED: USER        Moving Ligand-Moving Receptor   =  +0.00 kcal/mol
DOCKED: USER    (2) Final Total Internal Energy     =  -1.10 kcal/mol
DOCKED: USER    (3) Torsional Free Energy           =  +1.49 kcal/mol
DOCKED: USER    (4) Unbound System's Energy         =  -1.10 kcal/mol
DOCKED: USER
DOCKED: USER
DOCKED: REMARK  5 active torsions:
DOCKED: REMARK  status: ('A' for Active; 'I' for Inactive)
DOCKED: REMARK    1  A    between atoms: C_2  and  C_19 
DOCKED: REMARK    2  A    between atoms: C_2  and  C_11 
DOCKED: REMARK    3  A    between atoms: C_19  and  C_20 
DOCKED: REMARK    4  A    between atoms: C_20  and  C_21 
DOCKED: REMARK    5  A    between atoms: C_21  and  N_22 
DOCKED: USER                              x       y       z     vdW  Elec       q    Type
DOCKED: USER                           _______ _______ _______ _____ _____    ______ ____
DOCKED: ROOT
DOCKED: ATOM      1  O   UNL     1     -32.045  -9.412   0.611 +0.01 -0.00    -0.346 OA 
DOCKED: ATOM      2  C   UNL     1     -33.083  -9.503   1.639 -0.05 +0.00    +0.130 C  
DOCKED: ATOM      3  C   UNL     1     -34.290  -8.895   0.987 -0.14 +0.00    +0.004 A  
DOCKED: ATOM      4  C   UNL     1     -34.001  -8.584  -0.335 -0.12 +0.00    +0.006 A  
DOCKED: ATOM      5  C   UNL     1     -32.607  -8.972  -0.648 -0.02 +0.00    +0.169 C  
DOCKED: ATOM      6  C   UNL     1     -35.548  -8.646   1.517 -0.23 -0.00    -0.001 A  
DOCKED: ATOM      7  C   UNL     1     -34.950  -8.015  -1.166 -0.22 +0.00    +0.008 A  
DOCKED: ATOM      8  C   UNL     1     -36.515  -8.068   0.693 -0.35 +0.00    +0.010 A  
DOCKED: ATOM      9  C   UNL     1     -36.218  -7.755  -0.642 -0.32 +0.00    +0.068 A  
DOCKED: ATOM     10  N   UNL     1     -38.037  -6.687  -2.146 -2.55 -0.00    -0.191 NA 
DOCKED: ATOM     11  C   UNL     1     -37.221  -7.165  -1.471 -0.39 +0.00    +0.101 C  
DOCKED: ENDROOT
DOCKED: BRANCH   2  12
DOCKED: ATOM     12  C   UNL     1     -33.278 -10.971   1.998 -0.05 +0.00    +0.038 C  
DOCKED: BRANCH  12  13
DOCKED: ATOM     13  C   UNL     1     -34.760 -11.337   2.058 -0.16 +0.00    +0.038 C  
DOCKED: BRANCH  13  14
DOCKED: ATOM     14  C   UNL     1     -35.172 -12.162   0.840 -0.17 +0.00    +0.251 C  
DOCKED: BRANCH  14  15
DOCKED: ATOM     15  N   UNL     1     -33.994 -12.697   0.168 -0.15 +0.00    +0.141 N  
DOCKED: ATOM     16  C   UNL     1     -34.015 -14.160   0.175 -0.20 +0.00    +0.285 C  
DOCKED: ATOM     17  C   UNL     1     -33.913 -12.197  -1.206 -0.10 +0.00    +0.285 C  
DOCKED: ENDBRANCH  14  15
DOCKED: ENDBRANCH  13  14
DOCKED: ENDBRANCH  12  13
DOCKED: ENDBRANCH   2  12
DOCKED: BRANCH   2  18
DOCKED: ATOM     18  C   UNL     1     -32.601  -8.721   2.815 -0.08 +0.00    +0.006 A  
DOCKED: ATOM     19  C   UNL     1     -33.225  -8.868   4.053 -0.12 +0.00    +0.001 A  
DOCKED: ATOM     20  C   UNL     1     -32.774  -8.135   5.152 -0.06 +0.00    +0.029 A  
DOCKED: ATOM     21  C   UNL     1     -31.700  -7.258   5.011 -0.07 +0.00    +0.140 A  
DOCKED: ATOM     22  C   UNL     1     -31.075  -7.112   3.773 -0.06 +0.00    +0.029 A  
DOCKED: ATOM     23  F   UNL     1     -31.266  -6.557   6.066 -0.03 -0.00    -0.204 F  
DOCKED: ATOM     24  C   UNL     1     -31.526  -7.844   2.673 -0.05 +0.00    +0.001 A  
DOCKED: ENDBRANCH   2  18
DOCKED: TORSDOF 5
DOCKED: TER
DOCKED: ENDMDL
________________________________________________________________________________


    FINAL DOCKED STATE:
    ________________________


Run:   60 / 512
Time taken for this run:   0.002s

DOCKED: MODEL        60
DOCKED: USER    Run = 60
DOCKED: USER
DOCKED: USER    Estimated Free Energy of Binding    =  -5.39 kcal/mol  [=(1)+(2)+(3)-(4)]
DOCKED: USER
DOCKED: USER    (1) Final Intermolecular Energy     =  -6.88 kcal/mol
DOCKED: USER        vdW + Hbond + desolv Energy     =  -6.88 kcal/mol
DOCKED: USER        Electrostatic Energy            =  +0.00 kcal/mol
DOCKED: USER        Moving Ligand-Fixed Receptor    =  -6.88 kcal/mol
DOCKED: USER        Moving Ligand-Moving Receptor   =  +0.00 kcal/mol
DOCKED: USER    (2) Final Total Internal Energy     =  -1.43 kcal/mol
DOCKED: USER    (3) Torsional Free Energy           =  +1.49 kcal/mol
DOCKED: USER    (4) Unbound System's Energy         =  -1.43 kcal/mol
DOCKED: USER
DOCKED: USER
DOCKED: REMARK  5 active torsions:
DOCKED: REMARK  status: ('A' for Active; 'I' for Inactive)
DOCKED: REMARK    1  A    between atoms: C_2  and  C_19 
DOCKED: REMARK    2  A    between atoms: C_2  and  C_11 
DOCKED: REMARK    3  A    between atoms: C_19  and  C_20 
DOCKED: REMARK    4  A    between atoms: C_20  and  C_21 
DOCKED: REMARK    5  A    between atoms: C_21  and  N_22 
DOCKED: USER                              x       y       z     vdW  Elec       q    Type
DOCKED: USER                           _______ _______ _______ _____ _____    ______ ____
DOCKED: ROOT
DOCKED: ATOM      1  O   UNL     1     -38.742 -16.114  11.196 -0.06 -0.00    -0.346 OA 
DOCKED: ATOM      2  C   UNL     1     -38.388 -17.534  11.249 -0.22 +0.00    +0.130 C  
DOCKED: ATOM      3  C   UNL     1     -38.939 -18.089   9.967 -0.33 +0.00    +0.004 A  
DOCKED: ATOM      4  C   UNL     1     -39.463 -17.059   9.199 -0.33 +0.00    +0.006 A  
DOCKED: ATOM      5  C   UNL     1     -39.287 -15.769   9.901 -0.23 +0.00    +0.169 C  
DOCKED: ATOM      6  C   UNL     1     -38.964 -19.400   9.513 -0.42 -0.00    -0.001 A  
DOCKED: ATOM      7  C   UNL     1     -40.030 -17.302   7.959 -0.05 +0.00    +0.008 A  
DOCKED: ATOM      8  C   UNL     1     -39.537 -19.661   8.267 -0.46 +0.00    +0.010 A  
DOCKED: ATOM      9  C   UNL     1     -40.067 -18.617   7.494 -0.41 +0.00    +0.068 A  
DOCKED: ATOM     10  N   UNL     1     -41.118 -19.136   5.184 -2.66 -0.00    -0.191 NA 
DOCKED: ATOM     11  C   UNL     1     -40.647 -18.903   6.220 -0.45 +0.00    +0.101 C  
DOCKED: ENDROOT
DOCKED: BRANCH   2  12
DOCKED: ATOM     12  C   UNL     1     -36.872 -17.650  11.343 -0.20 +0.00    +0.038 C  
DOCKED: BRANCH  12  13
DOCKED: ATOM     13  C   UNL     1     -36.349 -17.070  12.655 -0.17 +0.00    +0.038 C  
DOCKED: BRANCH  13  14
DOCKED: ATOM     14  C   UNL     1     -35.384 -15.913  12.399 -0.07 +0.00    +0.251 C  
DOCKED: BRANCH  14  15
DOCKED: ATOM     15  N   UNL     1     -36.068 -14.636  12.563 -0.03 +0.00    +0.141 N  
DOCKED: ATOM     16  C   UNL     1     -36.514 -14.119  11.268 -0.06 +0.00    +0.285 C  
DOCKED: ATOM     17  C   UNL     1     -37.207 -14.774  13.473 -0.01 +0.00    +0.285 C  
DOCKED: ENDBRANCH  14  15
DOCKED: ENDBRANCH  13  14
DOCKED: ENDBRANCH  12  13
DOCKED: ENDBRANCH   2  12
DOCKED: BRANCH   2  18
DOCKED: ATOM     18  C   UNL     1     -39.048 -18.103  12.460 -0.17 +0.00    +0.006 A  
DOCKED: ATOM     19  C   UNL     1     -39.913 -17.315  13.217 -0.08 +0.00    +0.001 A  
DOCKED: ATOM     20  C   UNL     1     -40.529 -17.848  14.350 -0.07 +0.00    +0.029 A  
DOCKED: ATOM     21  C   UNL     1     -40.280 -19.168  14.724 -0.11 +0.00    +0.140 A  
DOCKED: ATOM     22  C   UNL     1     -39.414 -19.956  13.965 -0.05 +0.00    +0.029 A  
DOCKED: ATOM     23  F   UNL     1     -40.872 -19.680  15.810 -0.02 -0.00    -0.204 F  
DOCKED: ATOM     24  C   UNL     1     -38.797 -19.423  12.832 -0.21 +0.00    +0.001 A  
DOCKED: ENDBRANCH   2  18
DOCKED: TORSDOF 5
DOCKED: TER
DOCKED: ENDMDL
________________________________________________________________________________


    FINAL DOCKED STATE:
    ________________________


Run:   61 / 512
Time taken for this run:   0.002s

DOCKED: MODEL        61
DOCKED: USER    Run = 61
DOCKED: USER
DOCKED: USER    Estimated Free Energy of Binding    =  -4.03 kcal/mol  [=(1)+(2)+(3)-(4)]
DOCKED: USER
DOCKED: USER    (1) Final Intermolecular Energy     =  -5.52 kcal/mol
DOCKED: USER        vdW + Hbond + desolv Energy     =  -5.52 kcal/mol
DOCKED: USER        Electrostatic Energy            =  +0.00 kcal/mol
DOCKED: USER        Moving Ligand-Fixed Receptor    =  -5.52 kcal/mol
DOCKED: USER        Moving Ligand-Moving Receptor   =  +0.00 kcal/mol
DOCKED: USER    (2) Final Total Internal Energy     =  -1.60 kcal/mol
DOCKED: USER    (3) Torsional Free Energy           =  +1.49 kcal/mol
DOCKED: USER    (4) Unbound System's Energy         =  -1.60 kcal/mol
DOCKED: USER
DOCKED: USER
DOCKED: REMARK  5 active torsions:
DOCKED: REMARK  status: ('A' for Active; 'I' for Inactive)
DOCKED: REMARK    1  A    between atoms: C_2  and  C_19 
DOCKED: REMARK    2  A    between atoms: C_2  and  C_11 
DOCKED: REMARK    3  A    between atoms: C_19  and  C_20 
DOCKED: REMARK    4  A    between atoms: C_20  and  C_21 
DOCKED: REMARK    5  A    between atoms: C_21  and  N_22 
DOCKED: USER                              x       y       z     vdW  Elec       q    Type
DOCKED: USER                           _______ _______ _______ _____ _____    ______ ____
DOCKED: ROOT
DOCKED: ATOM      1  O   UNL     1     -41.741 -13.752  10.755 -0.09 -0.00    -0.346 OA 
DOCKED: ATOM      2  C   UNL     1     -40.300 -13.928  10.567 -0.18 +0.00    +0.130 C  
DOCKED: ATOM      3  C   UNL     1     -40.163 -15.367  10.164 -0.23 +0.00    +0.004 A  
DOCKED: ATOM      4  C   UNL     1     -41.422 -15.935  10.025 -0.18 +0.00    +0.006 A  
DOCKED: ATOM      5  C   UNL     1     -42.464 -14.923  10.310 -0.19 +0.00    +0.169 C  
DOCKED: ATOM      6  C   UNL     1     -39.017 -16.112   9.928 -0.28 -0.00    -0.001 A  
DOCKED: ATOM      7  C   UNL     1     -41.578 -17.259   9.652 -0.23 +0.00    +0.008 A  
DOCKED: ATOM      8  C   UNL     1     -39.157 -17.450   9.556 -0.33 +0.00    +0.010 A  
DOCKED: ATOM      9  C   UNL     1     -40.431 -18.020   9.418 -0.28 +0.00    +0.068 A  
DOCKED: ATOM     10  N   UNL     1     -40.657 -20.505   8.720 -2.61 -0.00    -0.191 NA 
DOCKED: ATOM     11  C   UNL     1     -40.556 -19.391   9.034 -0.38 +0.00    +0.101 C  
DOCKED: ENDROOT
DOCKED: BRANCH   2  12
DOCKED: ATOM     12  C   UNL     1     -39.833 -12.962   9.485 -0.11 +0.00    +0.038 C  
DOCKED: BRANCH  12  13
DOCKED: ATOM     13  C   UNL     1     -40.781 -11.772   9.354 -0.18 +0.00    +0.038 C  
DOCKED: BRANCH  13  14
DOCKED: ATOM     14  C   UNL     1     -40.518 -10.736  10.445 -0.05 +0.00    +0.251 C  
DOCKED: BRANCH  14  15
DOCKED: ATOM     15  N   UNL     1     -41.384 -10.978  11.593 -0.02 +0.00    +0.141 N  
DOCKED: ATOM     16  C   UNL     1     -41.079 -10.041  12.676 -0.00 +0.00    +0.285 C  
DOCKED: ATOM     17  C   UNL     1     -42.792 -10.870  11.209 -0.02 +0.00    +0.285 C  
DOCKED: ENDBRANCH  14  15
DOCKED: ENDBRANCH  13  14
DOCKED: ENDBRANCH  12  13
DOCKED: ENDBRANCH   2  12
DOCKED: BRANCH   2  18
DOCKED: ATOM     18  C   UNL     1     -39.650 -13.626  11.876 -0.06 +0.00    +0.006 A  
DOCKED: ATOM     19  C   UNL     1     -40.389 -13.705  13.056 -0.02 +0.00    +0.001 A  
DOCKED: ATOM     20  C   UNL     1     -39.780 -13.422  14.279 -0.00 +0.00    +0.029 A  
DOCKED: ATOM     21  C   UNL     1     -38.434 -13.061  14.321 -0.00 +0.00    +0.140 A  
DOCKED: ATOM     22  C   UNL     1     -37.695 -12.982  13.141 -0.01 +0.00    +0.029 A  
DOCKED: ATOM     23  F   UNL     1     -37.849 -12.792  15.495 +0.00 -0.00    -0.204 F  
DOCKED: ATOM     24  C   UNL     1     -38.304 -13.265  11.916 -0.05 +0.00    +0.001 A  
DOCKED: ENDBRANCH   2  18
DOCKED: TORSDOF 5
DOCKED: TER
DOCKED: ENDMDL
________________________________________________________________________________


    FINAL DOCKED STATE:
    ________________________


Run:   62 / 512
Time taken for this run:   0.002s

DOCKED: MODEL        62
DOCKED: USER    Run = 62
DOCKED: USER
DOCKED: USER    Estimated Free Energy of Binding    =  -4.30 kcal/mol  [=(1)+(2)+(3)-(4)]
DOCKED: USER
DOCKED: USER    (1) Final Intermolecular Energy     =  -5.79 kcal/mol
DOCKED: USER        vdW + Hbond + desolv Energy     =  -5.79 kcal/mol
DOCKED: USER        Electrostatic Energy            =  +0.00 kcal/mol
DOCKED: USER        Moving Ligand-Fixed Receptor    =  -5.79 kcal/mol
DOCKED: USER        Moving Ligand-Moving Receptor   =  +0.00 kcal/mol
DOCKED: USER    (2) Final Total Internal Energy     =  -1.20 kcal/mol
DOCKED: USER    (3) Torsional Free Energy           =  +1.49 kcal/mol
DOCKED: USER    (4) Unbound System's Energy         =  -1.20 kcal/mol
DOCKED: USER
DOCKED: USER
DOCKED: REMARK  5 active torsions:
DOCKED: REMARK  status: ('A' for Active; 'I' for Inactive)
DOCKED: REMARK    1  A    between atoms: C_2  and  C_19 
DOCKED: REMARK    2  A    between atoms: C_2  and  C_11 
DOCKED: REMARK    3  A    between atoms: C_19  and  C_20 
DOCKED: REMARK    4  A    between atoms: C_20  and  C_21 
DOCKED: REMARK    5  A    between atoms: C_21  and  N_22 
DOCKED: USER                              x       y       z     vdW  Elec       q    Type
DOCKED: USER                           _______ _______ _______ _____ _____    ______ ____
DOCKED: ROOT
DOCKED: ATOM      1  O   UNL     1     -33.600 -11.112   1.419 +0.01 -0.00    -0.346 OA 
DOCKED: ATOM      2  C   UNL     1     -34.691 -10.798   2.342 -0.12 +0.00    +0.130 C  
DOCKED: ATOM      3  C   UNL     1     -35.555  -9.845   1.568 -0.23 +0.00    +0.004 A  
DOCKED: ATOM      4  C   UNL     1     -35.062  -9.711   0.277 -0.19 +0.00    +0.006 A  
DOCKED: ATOM      5  C   UNL     1     -33.864 -10.564   0.107 -0.10 +0.00    +0.169 C  
DOCKED: ATOM      6  C   UNL     1     -36.692  -9.159   1.969 -0.30 -0.00    -0.001 A  
DOCKED: ATOM      7  C   UNL     1     -35.681  -8.891  -0.649 -0.07 +0.00    +0.008 A  
DOCKED: ATOM      8  C   UNL     1     -37.325  -8.324   1.048 -0.32 +0.00    +0.010 A  
DOCKED: ATOM      9  C   UNL     1     -36.823  -8.191  -0.255 -0.08 +0.00    +0.068 A  
DOCKED: ATOM     10  N   UNL     1     -38.026  -6.636  -1.943 -2.43 -0.00    -0.191 NA 
DOCKED: ATOM     11  C   UNL     1     -37.486  -7.333  -1.186 -0.36 +0.00    +0.101 C  
DOCKED: ENDROOT
DOCKED: BRANCH   2  12
DOCKED: ATOM     12  C   UNL     1     -35.410 -12.094   2.698 -0.20 +0.00    +0.038 C  
DOCKED: BRANCH  12  13
DOCKED: ATOM     13  C   UNL     1     -34.557 -13.315   2.360 -0.20 +0.00    +0.038 C  
DOCKED: BRANCH  13  14
DOCKED: ATOM     14  C   UNL     1     -34.661 -13.664   0.877 -0.17 +0.00    +0.251 C  
DOCKED: BRANCH  14  15
DOCKED: ATOM     15  N   UNL     1     -33.642 -14.641   0.513 -0.21 +0.00    +0.141 N  
DOCKED: ATOM     16  C   UNL     1     -33.745 -14.991  -0.905 -0.20 +0.00    +0.285 C  
DOCKED: ATOM     17  C   UNL     1     -32.304 -14.126   0.812 -0.05 +0.00    +0.285 C  
DOCKED: ENDBRANCH  14  15
DOCKED: ENDBRANCH  13  14
DOCKED: ENDBRANCH  12  13
DOCKED: ENDBRANCH   2  12
DOCKED: BRANCH   2  18
DOCKED: ATOM     18  C   UNL     1     -34.075 -10.175   3.550 -0.09 +0.00    +0.006 A  
DOCKED: ATOM     19  C   UNL     1     -34.802 -10.087   4.737 -0.12 +0.00    +0.001 A  
DOCKED: ATOM     20  C   UNL     1     -34.225  -9.504   5.865 -0.11 +0.00    +0.029 A  
DOCKED: ATOM     21  C   UNL     1     -32.923  -9.009   5.806 -0.08 +0.00    +0.140 A  
DOCKED: ATOM     22  C   UNL     1     -32.196  -9.098   4.619 -0.07 +0.00    +0.029 A  
DOCKED: ATOM     23  F   UNL     1     -32.368  -8.451   6.890 -0.03 -0.00    -0.204 F  
DOCKED: ATOM     24  C   UNL     1     -32.773  -9.681   3.489 -0.06 +0.00    +0.001 A  
DOCKED: ENDBRANCH   2  18
DOCKED: TORSDOF 5
DOCKED: TER
DOCKED: ENDMDL
________________________________________________________________________________


    FINAL DOCKED STATE:
    ________________________


Run:   63 / 512
Time taken for this run:   0.002s

DOCKED: MODEL        63
DOCKED: USER    Run = 63
DOCKED: USER
DOCKED: USER    Estimated Free Energy of Binding    =  -6.25 kcal/mol  [=(1)+(2)+(3)-(4)]
DOCKED: USER
DOCKED: USER    (1) Final Intermolecular Energy     =  -7.75 kcal/mol
DOCKED: USER        vdW + Hbond + desolv Energy     =  -7.75 kcal/mol
DOCKED: USER        Electrostatic Energy            =  +0.00 kcal/mol
DOCKED: USER        Moving Ligand-Fixed Receptor    =  -7.75 kcal/mol
DOCKED: USER        Moving Ligand-Moving Receptor   =  +0.00 kcal/mol
DOCKED: USER    (2) Final Total Internal Energy     =  -1.24 kcal/mol
DOCKED: USER    (3) Torsional Free Energy           =  +1.49 kcal/mol
DOCKED: USER    (4) Unbound System's Energy         =  -1.24 kcal/mol
DOCKED: USER
DOCKED: USER
DOCKED: REMARK  5 active torsions:
DOCKED: REMARK  status: ('A' for Active; 'I' for Inactive)
DOCKED: REMARK    1  A    between atoms: C_2  and  C_19 
DOCKED: REMARK    2  A    between atoms: C_2  and  C_11 
DOCKED: REMARK    3  A    between atoms: C_19  and  C_20 
DOCKED: REMARK    4  A    between atoms: C_20  and  C_21 
DOCKED: REMARK    5  A    between atoms: C_21  and  N_22 
DOCKED: USER                              x       y       z     vdW  Elec       q    Type
DOCKED: USER                           _______ _______ _______ _____ _____    ______ ____
DOCKED: ROOT
DOCKED: ATOM      1  O   UNL     1     -37.798 -19.934  11.125 -0.21 -0.00    -0.346 OA 
DOCKED: ATOM      2  C   UNL     1     -38.600 -18.723  11.304 -0.27 +0.00    +0.130 C  
DOCKED: ATOM      3  C   UNL     1     -39.250 -18.520   9.966 -0.36 +0.00    +0.004 A  
DOCKED: ATOM      4  C   UNL     1     -38.936 -19.581   9.129 -0.39 +0.00    +0.006 A  
DOCKED: ATOM      5  C   UNL     1     -38.080 -20.552   9.847 -0.24 +0.00    +0.169 C  
DOCKED: ATOM      6  C   UNL     1     -40.063 -17.485   9.529 -0.33 -0.00    -0.001 A  
DOCKED: ATOM      7  C   UNL     1     -39.417 -19.643   7.832 -0.22 +0.00    +0.008 A  
DOCKED: ATOM      8  C   UNL     1     -40.552 -17.530   8.222 -0.13 +0.00    +0.010 A  
DOCKED: ATOM      9  C   UNL     1     -40.231 -18.604   7.379 -0.43 +0.00    +0.068 A  
DOCKED: ATOM     10  N   UNL     1     -41.160 -18.660   4.961 -3.15 -0.00    -0.191 NA 
DOCKED: ATOM     11  C   UNL     1     -40.743 -18.634   6.045 -0.39 +0.00    +0.101 C  
DOCKED: ENDROOT
DOCKED: BRANCH   2  12
DOCKED: ATOM     12  C   UNL     1     -39.607 -18.972  12.421 -0.25 +0.00    +0.038 C  
DOCKED: BRANCH  12  13
DOCKED: ATOM     13  C   UNL     1     -40.901 -19.575  11.880 -0.27 +0.00    +0.038 C  
DOCKED: BRANCH  13  14
DOCKED: ATOM     14  C   UNL     1     -42.036 -18.553  11.905 -0.08 +0.00    +0.251 C  
DOCKED: BRANCH  14  15
DOCKED: ATOM     15  N   UNL     1     -43.003 -18.843  10.852 -0.15 +0.00    +0.141 N  
DOCKED: ATOM     16  C   UNL     1     -43.856 -19.970  11.231 -0.08 +0.00    +0.285 C  
DOCKED: ATOM     17  C   UNL     1     -43.820 -17.663  10.564 -0.08 +0.00    +0.285 C  
DOCKED: ENDBRANCH  14  15
DOCKED: ENDBRANCH  13  14
DOCKED: ENDBRANCH  12  13
DOCKED: ENDBRANCH   2  12
DOCKED: BRANCH   2  18
DOCKED: ATOM     18  C   UNL     1     -37.656 -17.624  11.665 -0.23 +0.00    +0.006 A  
DOCKED: ATOM     19  C   UNL     1     -36.281 -17.818  11.541 -0.07 +0.00    +0.001 A  
DOCKED: ATOM     20  C   UNL     1     -35.400 -16.790  11.879 -0.15 +0.00    +0.029 A  
DOCKED: ATOM     21  C   UNL     1     -35.895 -15.571  12.340 -0.07 +0.00    +0.140 A  
DOCKED: ATOM     22  C   UNL     1     -37.270 -15.378  12.463 -0.07 +0.00    +0.029 A  
DOCKED: ATOM     23  F   UNL     1     -35.049 -14.584  12.662 -0.00 -0.00    -0.204 F  
DOCKED: ATOM     24  C   UNL     1     -38.153 -16.406  12.126 -0.12 +0.00    +0.001 A  
DOCKED: ENDBRANCH   2  18
DOCKED: TORSDOF 5
DOCKED: TER
DOCKED: ENDMDL
________________________________________________________________________________


    FINAL DOCKED STATE:
    ________________________


Run:   64 / 512
Time taken for this run:   0.002s

DOCKED: MODEL        64
DOCKED: USER    Run = 64
DOCKED: USER
DOCKED: USER    Estimated Free Energy of Binding    =  -5.64 kcal/mol  [=(1)+(2)+(3)-(4)]
DOCKED: USER
DOCKED: USER    (1) Final Intermolecular Energy     =  -7.13 kcal/mol
DOCKED: USER        vdW + Hbond + desolv Energy     =  -7.13 kcal/mol
DOCKED: USER        Electrostatic Energy            =  +0.00 kcal/mol
DOCKED: USER        Moving Ligand-Fixed Receptor    =  -7.13 kcal/mol
DOCKED: USER        Moving Ligand-Moving Receptor   =  +0.00 kcal/mol
DOCKED: USER    (2) Final Total Internal Energy     =  -0.98 kcal/mol
DOCKED: USER    (3) Torsional Free Energy           =  +1.49 kcal/mol
DOCKED: USER    (4) Unbound System's Energy         =  -0.98 kcal/mol
DOCKED: USER
DOCKED: USER
DOCKED: REMARK  5 active torsions:
DOCKED: REMARK  status: ('A' for Active; 'I' for Inactive)
DOCKED: REMARK    1  A    between atoms: C_2  and  C_19 
DOCKED: REMARK    2  A    between atoms: C_2  and  C_11 
DOCKED: REMARK    3  A    between atoms: C_19  and  C_20 
DOCKED: REMARK    4  A    between atoms: C_20  and  C_21 
DOCKED: REMARK    5  A    between atoms: C_21  and  N_22 
DOCKED: USER                              x       y       z     vdW  Elec       q    Type
DOCKED: USER                           _______ _______ _______ _____ _____    ______ ____
DOCKED: ROOT
DOCKED: ATOM      1  O   UNL     1     -42.448 -17.515  11.721 -0.00 -0.00    -0.346 OA 
DOCKED: ATOM      2  C   UNL     1     -41.013 -17.321  11.508 -0.11 +0.00    +0.130 C  
DOCKED: ATOM      3  C   UNL     1     -40.814 -17.666  10.060 -0.25 +0.00    +0.004 A  
DOCKED: ATOM      4  C   UNL     1     -42.042 -17.927   9.469 -0.28 +0.00    +0.006 A  
DOCKED: ATOM      5  C   UNL     1     -43.124 -17.763  10.466 -0.17 +0.00    +0.169 C  
DOCKED: ATOM      6  C   UNL     1     -39.641 -17.732   9.323 -0.36 -0.00    -0.001 A  
DOCKED: ATOM      7  C   UNL     1     -42.141 -18.265   8.131 -0.26 +0.00    +0.008 A  
DOCKED: ATOM      8  C   UNL     1     -39.723 -18.076   7.972 -0.29 +0.00    +0.010 A  
DOCKED: ATOM      9  C   UNL     1     -40.967 -18.341   7.379 -0.34 +0.00    +0.068 A  
DOCKED: ATOM     10  N   UNL     1     -41.084 -18.971   4.869 -3.02 -0.00    -0.191 NA 
DOCKED: ATOM     11  C   UNL     1     -41.031 -18.689   5.995 -0.26 +0.00    +0.101 C  
DOCKED: ENDROOT
DOCKED: BRANCH   2  12
DOCKED: ATOM     12  C   UNL     1     -40.670 -15.871  11.825 -0.10 +0.00    +0.038 C  
DOCKED: BRANCH  12  13
DOCKED: ATOM     13  C   UNL     1     -41.755 -14.919  11.324 -0.15 +0.00    +0.038 C  
DOCKED: BRANCH  13  14
DOCKED: ATOM     14  C   UNL     1     -41.545 -14.574   9.851 -0.08 +0.00    +0.251 C  
DOCKED: BRANCH  14  15
DOCKED: ATOM     15  N   UNL     1     -41.854 -13.170   9.610 -0.20 +0.00    +0.141 N  
DOCKED: ATOM     16  C   UNL     1     -43.028 -12.760  10.382 -0.12 +0.00    +0.285 C  
DOCKED: ATOM     17  C   UNL     1     -40.706 -12.325   9.944 -0.14 +0.00    +0.285 C  
DOCKED: ENDBRANCH  14  15
DOCKED: ENDBRANCH  13  14
DOCKED: ENDBRANCH  12  13
DOCKED: ENDBRANCH   2  12
DOCKED: BRANCH   2  18
DOCKED: ATOM     18  C   UNL     1     -40.305 -18.256  12.431 -0.14 +0.00    +0.006 A  
DOCKED: ATOM     19  C   UNL     1     -40.390 -18.071  13.810 -0.10 +0.00    +0.001 A  
DOCKED: ATOM     20  C   UNL     1     -39.727 -18.945  14.672 -0.15 +0.00    +0.029 A  
DOCKED: ATOM     21  C   UNL     1     -38.981 -20.003  14.154 -0.14 +0.00    +0.140 A  
DOCKED: ATOM     22  C   UNL     1     -38.897 -20.188  12.774 -0.09 +0.00    +0.029 A  
DOCKED: ATOM     23  F   UNL     1     -38.346 -20.843  14.982 -0.11 -0.00    -0.204 F  
DOCKED: ATOM     24  C   UNL     1     -39.559 -19.313  11.911 -0.28 +0.00    +0.001 A  
DOCKED: ENDBRANCH   2  18
DOCKED: TORSDOF 5
DOCKED: TER
DOCKED: ENDMDL
________________________________________________________________________________


    FINAL DOCKED STATE:
    ________________________


Run:   65 / 512
Time taken for this run:   0.002s

DOCKED: MODEL        65
DOCKED: USER    Run = 65
DOCKED: USER
DOCKED: USER    Estimated Free Energy of Binding    =  -4.37 kcal/mol  [=(1)+(2)+(3)-(4)]
DOCKED: USER
DOCKED: USER    (1) Final Intermolecular Energy     =  -5.86 kcal/mol
DOCKED: USER        vdW + Hbond + desolv Energy     =  -5.86 kcal/mol
DOCKED: USER        Electrostatic Energy            =  +0.00 kcal/mol
DOCKED: USER        Moving Ligand-Fixed Receptor    =  -5.86 kcal/mol
DOCKED: USER        Moving Ligand-Moving Receptor   =  +0.00 kcal/mol
DOCKED: USER    (2) Final Total Internal Energy     =  -1.52 kcal/mol
DOCKED: USER    (3) Torsional Free Energy           =  +1.49 kcal/mol
DOCKED: USER    (4) Unbound System's Energy         =  -1.52 kcal/mol
DOCKED: USER
DOCKED: USER
DOCKED: REMARK  5 active torsions:
DOCKED: REMARK  status: ('A' for Active; 'I' for Inactive)
DOCKED: REMARK    1  A    between atoms: C_2  and  C_19 
DOCKED: REMARK    2  A    between atoms: C_2  and  C_11 
DOCKED: REMARK    3  A    between atoms: C_19  and  C_20 
DOCKED: REMARK    4  A    between atoms: C_20  and  C_21 
DOCKED: REMARK    5  A    between atoms: C_21  and  N_22 
DOCKED: USER                              x       y       z     vdW  Elec       q    Type
DOCKED: USER                           _______ _______ _______ _____ _____    ______ ____
DOCKED: ROOT
DOCKED: ATOM      1  O   UNL     1     -38.243 -13.790  10.364 -0.06 -0.00    -0.346 OA 
DOCKED: ATOM      2  C   UNL     1     -39.657 -13.758  10.740 -0.14 +0.00    +0.130 C  
DOCKED: ATOM      3  C   UNL     1     -40.164 -15.115  10.343 -0.22 +0.00    +0.004 A  
DOCKED: ATOM      4  C   UNL     1     -39.111 -15.892   9.884 -0.28 +0.00    +0.006 A  
DOCKED: ATOM      5  C   UNL     1     -37.849 -15.121   9.956 -0.14 +0.00    +0.169 C  
DOCKED: ATOM      6  C   UNL     1     -41.454 -15.624  10.396 -0.22 -0.00    -0.001 A  
DOCKED: ATOM      7  C   UNL     1     -39.308 -17.195   9.460 -0.34 +0.00    +0.008 A  
DOCKED: ATOM      8  C   UNL     1     -41.670 -16.934   9.967 -0.22 +0.00    +0.010 A  
DOCKED: ATOM      9  C   UNL     1     -40.602 -17.716   9.502 -0.26 +0.00    +0.068 A  
DOCKED: ATOM     10  N   UNL     1     -41.036 -20.148   8.720 -2.57 -0.00    -0.191 NA 
DOCKED: ATOM     11  C   UNL     1     -40.841 -19.057   9.070 -0.36 +0.00    +0.101 C  
DOCKED: ENDROOT
DOCKED: BRANCH   2  12
DOCKED: ATOM     12  C   UNL     1     -39.752 -13.504  12.239 -0.05 +0.00    +0.038 C  
DOCKED: BRANCH  12  13
DOCKED: ATOM     13  C   UNL     1     -38.382 -13.197  12.840 -0.02 +0.00    +0.038 C  
DOCKED: BRANCH  13  14
DOCKED: ATOM     14  C   UNL     1     -38.103 -11.695  12.832 -0.00 +0.00    +0.251 C  
DOCKED: BRANCH  14  15
DOCKED: ATOM     15  N   UNL     1     -37.642 -11.272  11.515 -0.01 +0.00    +0.141 N  
DOCKED: ATOM     16  C   UNL     1     -37.826  -9.830  11.342 -0.00 +0.00    +0.285 C  
DOCKED: ATOM     17  C   UNL     1     -36.236 -11.631  11.321 -0.01 +0.00    +0.285 C  
DOCKED: ENDBRANCH  14  15
DOCKED: ENDBRANCH  13  14
DOCKED: ENDBRANCH  12  13
DOCKED: ENDBRANCH   2  12
DOCKED: BRANCH   2  18
DOCKED: ATOM     18  C   UNL     1     -40.289 -12.651   9.964 -0.18 +0.00    +0.006 A  
DOCKED: ATOM     19  C   UNL     1     -41.649 -12.383  10.116 -0.20 +0.00    +0.001 A  
DOCKED: ATOM     20  C   UNL     1     -42.239 -11.348   9.390 -0.16 +0.00    +0.029 A  
DOCKED: ATOM     21  C   UNL     1     -41.470 -10.583   8.515 -0.11 +0.00    +0.140 A  
DOCKED: ATOM     22  C   UNL     1     -40.110 -10.851   8.364 -0.16 +0.00    +0.029 A  
DOCKED: ATOM     23  F   UNL     1     -42.037  -9.588   7.820 -0.02 -0.00    -0.204 F  
DOCKED: ATOM     24  C   UNL     1     -39.519 -11.887   9.089 -0.12 +0.00    +0.001 A  
DOCKED: ENDBRANCH   2  18
DOCKED: TORSDOF 5
DOCKED: TER
DOCKED: ENDMDL
________________________________________________________________________________


    FINAL DOCKED STATE:
    ________________________


Run:   66 / 512
Time taken for this run:   0.002s

DOCKED: MODEL        66
DOCKED: USER    Run = 66
DOCKED: USER
DOCKED: USER    Estimated Free Energy of Binding    =  -4.75 kcal/mol  [=(1)+(2)+(3)-(4)]
DOCKED: USER
DOCKED: USER    (1) Final Intermolecular Energy     =  -6.24 kcal/mol
DOCKED: USER        vdW + Hbond + desolv Energy     =  -6.24 kcal/mol
DOCKED: USER        Electrostatic Energy            =  +0.00 kcal/mol
DOCKED: USER        Moving Ligand-Fixed Receptor    =  -6.24 kcal/mol
DOCKED: USER        Moving Ligand-Moving Receptor   =  +0.00 kcal/mol
DOCKED: USER    (2) Final Total Internal Energy     =  -1.32 kcal/mol
DOCKED: USER    (3) Torsional Free Energy           =  +1.49 kcal/mol
DOCKED: USER    (4) Unbound System's Energy         =  -1.32 kcal/mol
DOCKED: USER
DOCKED: USER
DOCKED: REMARK  5 active torsions:
DOCKED: REMARK  status: ('A' for Active; 'I' for Inactive)
DOCKED: REMARK    1  A    between atoms: C_2  and  C_19 
DOCKED: REMARK    2  A    between atoms: C_2  and  C_11 
DOCKED: REMARK    3  A    between atoms: C_19  and  C_20 
DOCKED: REMARK    4  A    between atoms: C_20  and  C_21 
DOCKED: REMARK    5  A    between atoms: C_21  and  N_22 
DOCKED: USER                              x       y       z     vdW  Elec       q    Type
DOCKED: USER                           _______ _______ _______ _____ _____    ______ ____
DOCKED: ROOT
DOCKED: ATOM      1  O   UNL     1     -40.336 -16.294  11.993 -0.01 -0.00    -0.346 OA 
DOCKED: ATOM      2  C   UNL     1     -39.273 -17.294  11.875 -0.13 +0.00    +0.130 C  
DOCKED: ATOM      3  C   UNL     1     -39.502 -17.904  10.523 -0.27 +0.00    +0.004 A  
DOCKED: ATOM      4  C   UNL     1     -40.535 -17.238   9.878 -0.27 +0.00    +0.006 A  
DOCKED: ATOM      5  C   UNL     1     -41.045 -16.148  10.740 -0.15 +0.00    +0.169 C  
DOCKED: ATOM      6  C   UNL     1     -38.842 -18.958   9.907 -0.40 -0.00    -0.001 A  
DOCKED: ATOM      7  C   UNL     1     -40.944 -17.601   8.606 -0.15 +0.00    +0.008 A  
DOCKED: ATOM      8  C   UNL     1     -39.246 -19.339   8.627 -0.38 +0.00    +0.010 A  
DOCKED: ATOM      9  C   UNL     1     -40.292 -18.663   7.979 -0.41 +0.00    +0.068 A  
DOCKED: ATOM     10  N   UNL     1     -41.013 -19.393   5.600 -2.10 -0.00    -0.191 NA 
DOCKED: ATOM     11  C   UNL     1     -40.690 -19.066   6.668 -0.51 +0.00    +0.101 C  
DOCKED: ENDROOT
DOCKED: BRANCH   2  12
DOCKED: ATOM     12  C   UNL     1     -37.929 -16.584  11.986 -0.16 +0.00    +0.038 C  
DOCKED: BRANCH  12  13
DOCKED: ATOM     13  C   UNL     1     -38.108 -15.084  12.209 -0.08 +0.00    +0.038 C  
DOCKED: BRANCH  13  14
DOCKED: ATOM     14  C   UNL     1     -37.992 -14.315  10.895 -0.11 +0.00    +0.251 C  
DOCKED: BRANCH  14  15
DOCKED: ATOM     15  N   UNL     1     -39.248 -13.639  10.590 -0.12 +0.00    +0.141 N  
DOCKED: ATOM     16  C   UNL     1     -39.820 -13.043  11.799 -0.03 +0.00    +0.285 C  
DOCKED: ATOM     17  C   UNL     1     -39.047 -12.614   9.565 -0.07 +0.00    +0.285 C  
DOCKED: ENDBRANCH  14  15
DOCKED: ENDBRANCH  13  14
DOCKED: ENDBRANCH  12  13
DOCKED: ENDBRANCH   2  12
DOCKED: BRANCH   2  18
DOCKED: ATOM     18  C   UNL     1     -39.463 -18.266  12.991 -0.15 +0.00    +0.006 A  
DOCKED: ATOM     19  C   UNL     1     -38.361 -18.926  13.535 -0.14 +0.00    +0.001 A  
DOCKED: ATOM     20  C   UNL     1     -38.540 -19.834  14.579 -0.23 +0.00    +0.029 A  
DOCKED: ATOM     21  C   UNL     1     -39.818 -20.081  15.077 -0.05 +0.00    +0.140 A  
DOCKED: ATOM     22  C   UNL     1     -40.920 -19.421  14.533 -0.14 +0.00    +0.029 A  
DOCKED: ATOM     23  F   UNL     1     -39.989 -20.952  16.080 -0.05 -0.00    -0.204 F  
DOCKED: ATOM     24  C   UNL     1     -40.742 -18.512  13.489 -0.13 +0.00    +0.001 A  
DOCKED: ENDBRANCH   2  18
DOCKED: TORSDOF 5
DOCKED: TER
DOCKED: ENDMDL
________________________________________________________________________________


    FINAL DOCKED STATE:
    ________________________


Run:   67 / 512
Time taken for this run:   0.002s

DOCKED: MODEL        67
DOCKED: USER    Run = 67
DOCKED: USER
DOCKED: USER    Estimated Free Energy of Binding    =  -5.50 kcal/mol  [=(1)+(2)+(3)-(4)]
DOCKED: USER
DOCKED: USER    (1) Final Intermolecular Energy     =  -7.00 kcal/mol
DOCKED: USER        vdW + Hbond + desolv Energy     =  -7.00 kcal/mol
DOCKED: USER        Electrostatic Energy            =  +0.00 kcal/mol
DOCKED: USER        Moving Ligand-Fixed Receptor    =  -7.00 kcal/mol
DOCKED: USER        Moving Ligand-Moving Receptor   =  +0.00 kcal/mol
DOCKED: USER    (2) Final Total Internal Energy     =  -1.10 kcal/mol
DOCKED: USER    (3) Torsional Free Energy           =  +1.49 kcal/mol
DOCKED: USER    (4) Unbound System's Energy         =  -1.10 kcal/mol
DOCKED: USER
DOCKED: USER
DOCKED: REMARK  5 active torsions:
DOCKED: REMARK  status: ('A' for Active; 'I' for Inactive)
DOCKED: REMARK    1  A    between atoms: C_2  and  C_19 
DOCKED: REMARK    2  A    between atoms: C_2  and  C_11 
DOCKED: REMARK    3  A    between atoms: C_19  and  C_20 
DOCKED: REMARK    4  A    between atoms: C_20  and  C_21 
DOCKED: REMARK    5  A    between atoms: C_21  and  N_22 
DOCKED: USER                              x       y       z     vdW  Elec       q    Type
DOCKED: USER                           _______ _______ _______ _____ _____    ______ ____
DOCKED: ROOT
DOCKED: ATOM      1  O   UNL     1     -42.327 -18.406  11.935 -0.02 -0.00    -0.346 OA 
DOCKED: ATOM      2  C   UNL     1     -41.185 -17.541  11.636 -0.11 +0.00    +0.130 C  
DOCKED: ATOM      3  C   UNL     1     -40.973 -17.723  10.161 -0.23 +0.00    +0.004 A  
DOCKED: ATOM      4  C   UNL     1     -41.972 -18.534   9.642 -0.28 +0.00    +0.006 A  
DOCKED: ATOM      5  C   UNL     1     -42.908 -18.929  10.718 -0.16 +0.00    +0.169 C  
DOCKED: ATOM      6  C   UNL     1     -39.981 -17.203   9.342 -0.34 -0.00    -0.001 A  
DOCKED: ATOM      7  C   UNL     1     -42.012 -18.856   8.296 -0.36 +0.00    +0.008 A  
DOCKED: ATOM      8  C   UNL     1     -40.005 -17.522   7.983 -0.29 +0.00    +0.010 A  
DOCKED: ATOM      9  C   UNL     1     -41.016 -18.344   7.463 -0.33 +0.00    +0.068 A  
DOCKED: ATOM     10  N   UNL     1     -41.034 -18.912   4.935 -3.03 -0.00    -0.191 NA 
DOCKED: ATOM     11  C   UNL     1     -41.026 -18.658   6.069 -0.25 +0.00    +0.101 C  
DOCKED: ENDROOT
DOCKED: BRANCH   2  12
DOCKED: ATOM     12  C   UNL     1     -41.554 -16.110  12.010 -0.10 +0.00    +0.038 C  
DOCKED: BRANCH  12  13
DOCKED: ATOM     13  C   UNL     1     -42.426 -15.461  10.937 -0.20 +0.00    +0.038 C  
DOCKED: BRANCH  13  14
DOCKED: ATOM     14  C   UNL     1     -42.607 -13.968  11.204 -0.10 +0.00    +0.251 C  
DOCKED: BRANCH  14  15
DOCKED: ATOM     15  N   UNL     1     -42.081 -13.186  10.091 -0.20 +0.00    +0.141 N  
DOCKED: ATOM     16  C   UNL     1     -42.531 -11.796  10.180 -0.11 +0.00    +0.285 C  
DOCKED: ATOM     17  C   UNL     1     -40.619 -13.246  10.064 -0.15 +0.00    +0.285 C  
DOCKED: ENDBRANCH  14  15
DOCKED: ENDBRANCH  13  14
DOCKED: ENDBRANCH  12  13
DOCKED: ENDBRANCH   2  12
DOCKED: BRANCH   2  18
DOCKED: ATOM     18  C   UNL     1     -40.038 -18.032  12.454 -0.13 +0.00    +0.006 A  
DOCKED: ATOM     19  C   UNL     1     -39.080 -17.134  12.921 -0.09 +0.00    +0.001 A  
DOCKED: ATOM     20  C   UNL     1     -38.008 -17.595  13.686 -0.10 +0.00    +0.029 A  
DOCKED: ATOM     21  C   UNL     1     -37.896 -18.953  13.983 +0.03 +0.00    +0.140 A  
DOCKED: ATOM     22  C   UNL     1     -38.855 -19.851  13.515 -0.19 +0.00    +0.029 A  
DOCKED: ATOM     23  F   UNL     1     -36.868 -19.395  14.718 +0.01 -0.00    -0.204 F  
DOCKED: ATOM     24  C   UNL     1     -39.928 -19.390  12.750 -0.24 +0.00    +0.001 A  
DOCKED: ENDBRANCH   2  18
DOCKED: TORSDOF 5
DOCKED: TER
DOCKED: ENDMDL
________________________________________________________________________________


    FINAL DOCKED STATE:
    ________________________


Run:   68 / 512
Time taken for this run:   0.002s

DOCKED: MODEL        68
DOCKED: USER    Run = 68
DOCKED: USER
DOCKED: USER    Estimated Free Energy of Binding    =  -4.47 kcal/mol  [=(1)+(2)+(3)-(4)]
DOCKED: USER
DOCKED: USER    (1) Final Intermolecular Energy     =  -5.97 kcal/mol
DOCKED: USER        vdW + Hbond + desolv Energy     =  -5.97 kcal/mol
DOCKED: USER        Electrostatic Energy            =  +0.00 kcal/mol
DOCKED: USER        Moving Ligand-Fixed Receptor    =  -5.97 kcal/mol
DOCKED: USER        Moving Ligand-Moving Receptor   =  +0.00 kcal/mol
DOCKED: USER    (2) Final Total Internal Energy     =  -1.53 kcal/mol
DOCKED: USER    (3) Torsional Free Energy           =  +1.49 kcal/mol
DOCKED: USER    (4) Unbound System's Energy         =  -1.53 kcal/mol
DOCKED: USER
DOCKED: USER
DOCKED: REMARK  5 active torsions:
DOCKED: REMARK  status: ('A' for Active; 'I' for Inactive)
DOCKED: REMARK    1  A    between atoms: C_2  and  C_19 
DOCKED: REMARK    2  A    between atoms: C_2  and  C_11 
DOCKED: REMARK    3  A    between atoms: C_19  and  C_20 
DOCKED: REMARK    4  A    between atoms: C_20  and  C_21 
DOCKED: REMARK    5  A    between atoms: C_21  and  N_22 
DOCKED: USER                              x       y       z     vdW  Elec       q    Type
DOCKED: USER                           _______ _______ _______ _____ _____    ______ ____
DOCKED: ROOT
DOCKED: ATOM      1  O   UNL     1     -36.469 -10.440   3.812 -0.08 -0.00    -0.346 OA 
DOCKED: ATOM      2  C   UNL     1     -35.208  -9.948   3.258 -0.15 +0.00    +0.130 C  
DOCKED: ATOM      3  C   UNL     1     -35.626  -9.183   2.035 -0.23 +0.00    +0.004 A  
DOCKED: ATOM      4  C   UNL     1     -37.011  -9.148   1.958 -0.29 +0.00    +0.006 A  
DOCKED: ATOM      5  C   UNL     1     -37.597  -9.864   3.113 -0.15 +0.00    +0.169 C  
DOCKED: ATOM      6  C   UNL     1     -34.844  -8.559   1.074 -0.19 -0.00    -0.001 A  
DOCKED: ATOM      7  C   UNL     1     -37.659  -8.496   0.922 -0.34 +0.00    +0.008 A  
DOCKED: ATOM      8  C   UNL     1     -35.482  -7.901   0.022 -0.27 +0.00    +0.010 A  
DOCKED: ATOM      9  C   UNL     1     -36.882  -7.869  -0.054 -0.33 +0.00    +0.068 A  
DOCKED: ATOM     10  N   UNL     1     -38.035  -6.635  -2.018 -2.49 -0.00    -0.191 NA 
DOCKED: ATOM     11  C   UNL     1     -37.518  -7.189  -1.137 -0.35 +0.00    +0.101 C  
DOCKED: ENDROOT
DOCKED: BRANCH   2  12
DOCKED: ATOM     12  C   UNL     1     -34.531  -9.070   4.304 -0.15 +0.00    +0.038 C  
DOCKED: BRANCH  12  13
DOCKED: ATOM     13  C   UNL     1     -35.027  -9.397   5.711 -0.16 +0.00    +0.038 C  
DOCKED: BRANCH  13  14
DOCKED: ATOM     14  C   UNL     1     -34.514 -10.761   6.170 -0.04 +0.00    +0.251 C  
DOCKED: BRANCH  14  15
DOCKED: ATOM     15  N   UNL     1     -35.569 -11.494   6.860 -0.06 +0.00    +0.141 N  
DOCKED: ATOM     16  C   UNL     1     -36.824 -10.741   6.831 -0.07 +0.00    +0.285 C  
DOCKED: ATOM     17  C   UNL     1     -35.756 -12.816   6.260 -0.09 +0.00    +0.285 C  
DOCKED: ENDBRANCH  14  15
DOCKED: ENDBRANCH  13  14
DOCKED: ENDBRANCH  12  13
DOCKED: ENDBRANCH   2  12
DOCKED: BRANCH   2  18
DOCKED: ATOM     18  C   UNL     1     -34.374 -11.144   2.938 -0.09 +0.00    +0.006 A  
DOCKED: ATOM     19  C   UNL     1     -34.985 -12.376   2.705 -0.17 +0.00    +0.001 A  
DOCKED: ATOM     20  C   UNL     1     -34.204 -13.493   2.407 -0.17 +0.00    +0.029 A  
DOCKED: ATOM     21  C   UNL     1     -32.816 -13.378   2.343 -0.05 +0.00    +0.140 A  
DOCKED: ATOM     22  C   UNL     1     -32.207 -12.145   2.576 -0.01 +0.00    +0.029 A  
DOCKED: ATOM     23  F   UNL     1     -32.068 -14.451   2.055 -0.01 -0.00    -0.204 F  
DOCKED: ATOM     24  C   UNL     1     -32.987 -11.027   2.875 -0.03 +0.00    +0.001 A  
DOCKED: ENDBRANCH   2  18
DOCKED: TORSDOF 5
DOCKED: TER
DOCKED: ENDMDL
________________________________________________________________________________


    FINAL DOCKED STATE:
    ________________________


Run:   69 / 512
Time taken for this run:   0.002s

DOCKED: MODEL        69
DOCKED: USER    Run = 69
DOCKED: USER
DOCKED: USER    Estimated Free Energy of Binding    =  -3.66 kcal/mol  [=(1)+(2)+(3)-(4)]
DOCKED: USER
DOCKED: USER    (1) Final Intermolecular Energy     =  -5.15 kcal/mol
DOCKED: USER        vdW + Hbond + desolv Energy     =  -5.15 kcal/mol
DOCKED: USER        Electrostatic Energy            =  +0.00 kcal/mol
DOCKED: USER        Moving Ligand-Fixed Receptor    =  -5.15 kcal/mol
DOCKED: USER        Moving Ligand-Moving Receptor   =  +0.00 kcal/mol
DOCKED: USER    (2) Final Total Internal Energy     =  -1.25 kcal/mol
DOCKED: USER    (3) Torsional Free Energy           =  +1.49 kcal/mol
DOCKED: USER    (4) Unbound System's Energy         =  -1.25 kcal/mol
DOCKED: USER
DOCKED: USER
DOCKED: REMARK  5 active torsions:
DOCKED: REMARK  status: ('A' for Active; 'I' for Inactive)
DOCKED: REMARK    1  A    between atoms: C_2  and  C_19 
DOCKED: REMARK    2  A    between atoms: C_2  and  C_11 
DOCKED: REMARK    3  A    between atoms: C_19  and  C_20 
DOCKED: REMARK    4  A    between atoms: C_20  and  C_21 
DOCKED: REMARK    5  A    between atoms: C_21  and  N_22 
DOCKED: USER                              x       y       z     vdW  Elec       q    Type
DOCKED: USER                           _______ _______ _______ _____ _____    ______ ____
DOCKED: ROOT
DOCKED: ATOM      1  O   UNL     1     -33.171 -13.618   5.151 +0.00 -0.00    -0.346 OA 
DOCKED: ATOM      2  C   UNL     1     -33.837 -14.773   4.547 -0.15 +0.00    +0.130 C  
DOCKED: ATOM      3  C   UNL     1     -33.374 -15.932   5.381 -0.20 +0.00    +0.004 A  
DOCKED: ATOM      4  C   UNL     1     -32.601 -15.469   6.436 -0.11 +0.00    +0.006 A  
DOCKED: ATOM      5  C   UNL     1     -32.510 -13.993   6.383 -0.04 +0.00    +0.169 C  
DOCKED: ATOM      6  C   UNL     1     -33.627 -17.287   5.225 -0.30 -0.00    -0.001 A  
DOCKED: ATOM      7  C   UNL     1     -32.053 -16.338   7.364 -0.13 +0.00    +0.008 A  
DOCKED: ATOM      8  C   UNL     1     -33.077 -18.177   6.150 -0.29 +0.00    +0.010 A  
DOCKED: ATOM      9  C   UNL     1     -32.295 -17.705   7.214 -0.18 +0.00    +0.068 A  
DOCKED: ATOM     10  N   UNL     1     -31.294 -19.383   8.916 -1.90 -0.00    -0.191 NA 
DOCKED: ATOM     11  C   UNL     1     -31.743 -18.630   8.152 -0.17 +0.00    +0.101 C  
DOCKED: ENDROOT
DOCKED: BRANCH   2  12
DOCKED: ATOM     12  C   UNL     1     -35.343 -14.553   4.620 -0.31 +0.00    +0.038 C  
DOCKED: BRANCH  12  13
DOCKED: ATOM     13  C   UNL     1     -35.679 -13.166   5.164 -0.20 +0.00    +0.038 C  
DOCKED: BRANCH  13  14
DOCKED: ATOM     14  C   UNL     1     -36.851 -12.547   4.405 -0.16 +0.00    +0.251 C  
DOCKED: BRANCH  14  15
DOCKED: ATOM     15  N   UNL     1     -36.396 -11.422   3.598 -0.17 +0.00    +0.141 N  
DOCKED: ATOM     16  C   UNL     1     -36.697 -10.153   4.264 -0.16 +0.00    +0.285 C  
DOCKED: ATOM     17  C   UNL     1     -34.961 -11.526   3.330 -0.08 +0.00    +0.285 C  
DOCKED: ENDBRANCH  14  15
DOCKED: ENDBRANCH  13  14
DOCKED: ENDBRANCH  12  13
DOCKED: ENDBRANCH   2  12
DOCKED: BRANCH   2  18
DOCKED: ATOM     18  C   UNL     1     -33.372 -14.853   3.131 -0.15 +0.00    +0.006 A  
DOCKED: ATOM     19  C   UNL     1     -34.293 -14.748   2.089 -0.02 +0.00    +0.001 A  
DOCKED: ATOM     20  C   UNL     1     -33.857 -14.823   0.766 -0.17 +0.00    +0.029 A  
DOCKED: ATOM     21  C   UNL     1     -32.503 -15.002   0.486 -0.12 +0.00    +0.140 A  
DOCKED: ATOM     22  C   UNL     1     -31.583 -15.106   1.529 -0.06 +0.00    +0.029 A  
DOCKED: ATOM     23  F   UNL     1     -32.085 -15.073  -0.784 -0.01 -0.00    -0.204 F  
DOCKED: ATOM     24  C   UNL     1     -32.018 -15.032   2.854 -0.07 +0.00    +0.001 A  
DOCKED: ENDBRANCH   2  18
DOCKED: TORSDOF 5
DOCKED: TER
DOCKED: ENDMDL
________________________________________________________________________________


    FINAL DOCKED STATE:
    ________________________


Run:   70 / 512
Time taken for this run:   0.002s

DOCKED: MODEL        70
DOCKED: USER    Run = 70
DOCKED: USER
DOCKED: USER    Estimated Free Energy of Binding    =  -3.83 kcal/mol  [=(1)+(2)+(3)-(4)]
DOCKED: USER
DOCKED: USER    (1) Final Intermolecular Energy     =  -5.32 kcal/mol
DOCKED: USER        vdW + Hbond + desolv Energy     =  -5.32 kcal/mol
DOCKED: USER        Electrostatic Energy            =  +0.00 kcal/mol
DOCKED: USER        Moving Ligand-Fixed Receptor    =  -5.32 kcal/mol
DOCKED: USER        Moving Ligand-Moving Receptor   =  +0.00 kcal/mol
DOCKED: USER    (2) Final Total Internal Energy     =  -1.23 kcal/mol
DOCKED: USER    (3) Torsional Free Energy           =  +1.49 kcal/mol
DOCKED: USER    (4) Unbound System's Energy         =  -1.23 kcal/mol
DOCKED: USER
DOCKED: USER
DOCKED: REMARK  5 active torsions:
DOCKED: REMARK  status: ('A' for Active; 'I' for Inactive)
DOCKED: REMARK    1  A    between atoms: C_2  and  C_19 
DOCKED: REMARK    2  A    between atoms: C_2  and  C_11 
DOCKED: REMARK    3  A    between atoms: C_19  and  C_20 
DOCKED: REMARK    4  A    between atoms: C_20  and  C_21 
DOCKED: REMARK    5  A    between atoms: C_21  and  N_22 
DOCKED: USER                              x       y       z     vdW  Elec       q    Type
DOCKED: USER                           _______ _______ _______ _____ _____    ______ ____
DOCKED: ROOT
DOCKED: ATOM      1  O   UNL     1     -35.090  -9.563   3.115 -0.07 -0.00    -0.346 OA 
DOCKED: ATOM      2  C   UNL     1     -34.065  -8.918   2.294 -0.12 +0.00    +0.130 C  
DOCKED: ATOM      3  C   UNL     1     -34.836  -8.353   1.136 -0.19 +0.00    +0.004 A  
DOCKED: ATOM      4  C   UNL     1     -36.194  -8.559   1.334 -0.28 +0.00    +0.006 A  
DOCKED: ATOM      5  C   UNL     1     -36.414  -9.253   2.622 -0.21 +0.00    +0.169 C  
DOCKED: ATOM      6  C   UNL     1     -34.373  -7.697   0.004 -0.16 -0.00    -0.001 A  
DOCKED: ATOM      7  C   UNL     1     -37.131  -8.125   0.412 -0.38 +0.00    +0.008 A  
DOCKED: ATOM      8  C   UNL     1     -35.305  -7.258  -0.937 -0.29 +0.00    +0.010 A  
DOCKED: ATOM      9  C   UNL     1     -36.677  -7.470  -0.734 -0.37 +0.00    +0.068 A  
DOCKED: ATOM     10  N   UNL     1     -38.380  -6.636  -2.499 -2.58 -0.00    -0.191 NA 
DOCKED: ATOM     11  C   UNL     1     -37.616  -7.011  -1.708 -0.23 +0.00    +0.101 C  
DOCKED: ENDROOT
DOCKED: BRANCH   2  12
DOCKED: ATOM     12  C   UNL     1     -33.380  -7.845   3.131 -0.14 +0.00    +0.038 C  
DOCKED: BRANCH  12  13
DOCKED: ATOM     13  C   UNL     1     -32.509  -6.936   2.266 -0.13 +0.00    +0.038 C  
DOCKED: BRANCH  13  14
DOCKED: ATOM     14  C   UNL     1     -31.026  -7.152   2.562 -0.02 +0.00    +0.251 C  
DOCKED: BRANCH  14  15
DOCKED: ATOM     15  N   UNL     1     -30.261  -7.187   1.321 -0.01 +0.00    +0.141 N  
DOCKED: ATOM     16  C   UNL     1     -29.396  -8.368   1.281 +0.00 +0.00    +0.285 C  
DOCKED: ATOM     17  C   UNL     1     -31.156  -7.174   0.163 +0.00 +0.00    +0.285 C  
DOCKED: ENDBRANCH  14  15
DOCKED: ENDBRANCH  13  14
DOCKED: ENDBRANCH  12  13
DOCKED: ENDBRANCH   2  12
DOCKED: BRANCH   2  18
DOCKED: ATOM     18  C   UNL     1     -33.100  -9.981   1.886 -0.05 +0.00    +0.006 A  
DOCKED: ATOM     19  C   UNL     1     -32.419 -10.713   2.857 -0.02 +0.00    +0.001 A  
DOCKED: ATOM     20  C   UNL     1     -31.516 -11.707   2.474 -0.01 +0.00    +0.029 A  
DOCKED: ATOM     21  C   UNL     1     -31.297 -11.966   1.122 +0.00 +0.00    +0.140 A  
DOCKED: ATOM     22  C   UNL     1     -31.979 -11.233   0.151 -0.01 +0.00    +0.029 A  
DOCKED: ATOM     23  F   UNL     1     -30.433 -12.921   0.755 +0.00 -0.00    -0.204 F  
DOCKED: ATOM     24  C   UNL     1     -32.882 -10.239   0.533 -0.04 +0.00    +0.001 A  
DOCKED: ENDBRANCH   2  18
DOCKED: TORSDOF 5
DOCKED: TER
DOCKED: ENDMDL
________________________________________________________________________________


    FINAL DOCKED STATE:
    ________________________


Run:   71 / 512
Time taken for this run:   0.002s

DOCKED: MODEL        71
DOCKED: USER    Run = 71
DOCKED: USER
DOCKED: USER    Estimated Free Energy of Binding    =  -3.75 kcal/mol  [=(1)+(2)+(3)-(4)]
DOCKED: USER
DOCKED: USER    (1) Final Intermolecular Energy     =  -5.24 kcal/mol
DOCKED: USER        vdW + Hbond + desolv Energy     =  -5.24 kcal/mol
DOCKED: USER        Electrostatic Energy            =  +0.00 kcal/mol
DOCKED: USER        Moving Ligand-Fixed Receptor    =  -5.24 kcal/mol
DOCKED: USER        Moving Ligand-Moving Receptor   =  +0.00 kcal/mol
DOCKED: USER    (2) Final Total Internal Energy     =  -1.03 kcal/mol
DOCKED: USER    (3) Torsional Free Energy           =  +1.49 kcal/mol
DOCKED: USER    (4) Unbound System's Energy         =  -1.03 kcal/mol
DOCKED: USER
DOCKED: USER
DOCKED: REMARK  5 active torsions:
DOCKED: REMARK  status: ('A' for Active; 'I' for Inactive)
DOCKED: REMARK    1  A    between atoms: C_2  and  C_19 
DOCKED: REMARK    2  A    between atoms: C_2  and  C_11 
DOCKED: REMARK    3  A    between atoms: C_19  and  C_20 
DOCKED: REMARK    4  A    between atoms: C_20  and  C_21 
DOCKED: REMARK    5  A    between atoms: C_21  and  N_22 
DOCKED: USER                              x       y       z     vdW  Elec       q    Type
DOCKED: USER                           _______ _______ _______ _____ _____    ______ ____
DOCKED: ROOT
DOCKED: ATOM      1  O   UNL     1     -29.801 -17.800   2.406 +0.01 -0.00    -0.346 OA 
DOCKED: ATOM      2  C   UNL     1     -30.802 -16.831   2.852 -0.05 +0.00    +0.130 C  
DOCKED: ATOM      3  C   UNL     1     -31.562 -17.564   3.919 -0.10 +0.00    +0.004 A  
DOCKED: ATOM      4  C   UNL     1     -30.977 -18.802   4.142 -0.10 +0.00    +0.006 A  
DOCKED: ATOM      5  C   UNL     1     -29.799 -18.967   3.260 -0.03 +0.00    +0.169 C  
DOCKED: ATOM      6  C   UNL     1     -32.675 -17.162   4.643 -0.18 -0.00    -0.001 A  
DOCKED: ATOM      7  C   UNL     1     -31.482 -19.679   5.087 -0.20 +0.00    +0.008 A  
DOCKED: ATOM      8  C   UNL     1     -33.200 -18.037   5.596 -0.30 +0.00    +0.010 A  
DOCKED: ATOM      9  C   UNL     1     -32.606 -19.288   5.817 -0.29 +0.00    +0.068 A  
DOCKED: ATOM     10  N   UNL     1     -33.601 -20.886   7.598 -2.62 -0.00    -0.191 NA 
DOCKED: ATOM     11  C   UNL     1     -33.155 -20.170   6.799 -0.40 +0.00    +0.101 C  
DOCKED: ENDROOT
DOCKED: BRANCH   2  12
DOCKED: ATOM     12  C   UNL     1     -30.079 -15.597   3.379 -0.01 +0.00    +0.038 C  
DOCKED: BRANCH  12  13
DOCKED: ATOM     13  C   UNL     1     -29.497 -15.844   4.770 -0.01 +0.00    +0.038 C  
DOCKED: BRANCH  13  14
DOCKED: ATOM     14  C   UNL     1     -28.241 -15.006   4.997 -0.00 +0.00    +0.251 C  
DOCKED: BRANCH  14  15
DOCKED: ATOM     15  N   UNL     1     -28.598 -13.611   5.231 -0.00 +0.00    +0.141 N  
DOCKED: ATOM     16  C   UNL     1     -29.605 -13.507   6.288 -0.00 +0.00    +0.285 C  
DOCKED: ATOM     17  C   UNL     1     -27.412 -12.828   5.581 +0.00 +0.00    +0.285 C  
DOCKED: ENDBRANCH  14  15
DOCKED: ENDBRANCH  13  14
DOCKED: ENDBRANCH  12  13
DOCKED: ENDBRANCH   2  12
DOCKED: BRANCH   2  18
DOCKED: ATOM     18  C   UNL     1     -31.643 -16.495   1.665 -0.11 +0.00    +0.006 A  
DOCKED: ATOM     19  C   UNL     1     -32.516 -15.409   1.715 -0.13 +0.00    +0.001 A  
DOCKED: ATOM     20  C   UNL     1     -33.302 -15.097   0.605 -0.19 +0.00    +0.029 A  
DOCKED: ATOM     21  C   UNL     1     -33.214 -15.870  -0.552 -0.17 +0.00    +0.140 A  
DOCKED: ATOM     22  C   UNL     1     -32.341 -16.957  -0.600 -0.11 +0.00    +0.029 A  
DOCKED: ATOM     23  F   UNL     1     -33.967 -15.570  -1.618 -0.11 -0.00    -0.204 F  
DOCKED: ATOM     24  C   UNL     1     -31.554 -17.270   0.510 -0.12 +0.00    +0.001 A  
DOCKED: ENDBRANCH   2  18
DOCKED: TORSDOF 5
DOCKED: TER
DOCKED: ENDMDL
________________________________________________________________________________


    FINAL DOCKED STATE:
    ________________________


Run:   72 / 512
Time taken for this run:   0.002s

DOCKED: MODEL        72
DOCKED: USER    Run = 72
DOCKED: USER
DOCKED: USER    Estimated Free Energy of Binding    =  -5.23 kcal/mol  [=(1)+(2)+(3)-(4)]
DOCKED: USER
DOCKED: USER    (1) Final Intermolecular Energy     =  -6.72 kcal/mol
DOCKED: USER        vdW + Hbond + desolv Energy     =  -6.72 kcal/mol
DOCKED: USER        Electrostatic Energy            =  +0.00 kcal/mol
DOCKED: USER        Moving Ligand-Fixed Receptor    =  -6.72 kcal/mol
DOCKED: USER        Moving Ligand-Moving Receptor   =  +0.00 kcal/mol
DOCKED: USER    (2) Final Total Internal Energy     =  -1.16 kcal/mol
DOCKED: USER    (3) Torsional Free Energy           =  +1.49 kcal/mol
DOCKED: USER    (4) Unbound System's Energy         =  -1.16 kcal/mol
DOCKED: USER
DOCKED: USER
DOCKED: REMARK  5 active torsions:
DOCKED: REMARK  status: ('A' for Active; 'I' for Inactive)
DOCKED: REMARK    1  A    between atoms: C_2  and  C_19 
DOCKED: REMARK    2  A    between atoms: C_2  and  C_11 
DOCKED: REMARK    3  A    between atoms: C_19  and  C_20 
DOCKED: REMARK    4  A    between atoms: C_20  and  C_21 
DOCKED: REMARK    5  A    between atoms: C_21  and  N_22 
DOCKED: USER                              x       y       z     vdW  Elec       q    Type
DOCKED: USER                           _______ _______ _______ _____ _____    ______ ____
DOCKED: ROOT
DOCKED: ATOM      1  O   UNL     1     -42.114 -17.134  11.670 -0.00 -0.00    -0.346 OA 
DOCKED: ATOM      2  C   UNL     1     -40.707 -16.910  11.335 -0.12 +0.00    +0.130 C  
DOCKED: ATOM      3  C   UNL     1     -40.590 -17.404   9.922 -0.27 +0.00    +0.004 A  
DOCKED: ATOM      4  C   UNL     1     -41.842 -17.776   9.452 -0.27 +0.00    +0.006 A  
DOCKED: ATOM      5  C   UNL     1     -42.861 -17.544  10.501 -0.17 +0.00    +0.169 C  
DOCKED: ATOM      6  C   UNL     1     -39.467 -17.507   9.114 -0.36 -0.00    -0.001 A  
DOCKED: ATOM      7  C   UNL     1     -42.014 -18.264   8.168 -0.28 +0.00    +0.008 A  
DOCKED: ATOM      8  C   UNL     1     -39.624 -18.001   7.818 -0.11 +0.00    +0.010 A  
DOCKED: ATOM      9  C   UNL     1     -40.891 -18.377   7.347 -0.36 +0.00    +0.068 A  
DOCKED: ATOM     10  N   UNL     1     -41.147 -19.286   4.935 -2.77 -0.00    -0.191 NA 
DOCKED: ATOM     11  C   UNL     1     -41.032 -18.879   6.017 -0.28 +0.00    +0.101 C  
DOCKED: ENDROOT
DOCKED: BRANCH   2  12
DOCKED: ATOM     12  C   UNL     1     -40.411 -15.421  11.468 -0.13 +0.00    +0.038 C  
DOCKED: BRANCH  12  13
DOCKED: ATOM     13  C   UNL     1     -40.731 -14.671  10.177 -0.24 +0.00    +0.038 C  
DOCKED: BRANCH  13  14
DOCKED: ATOM     14  C   UNL     1     -42.162 -14.137  10.192 -0.17 +0.00    +0.251 C  
DOCKED: BRANCH  14  15
DOCKED: ATOM     15  N   UNL     1     -42.186 -12.764  10.683 -0.13 +0.00    +0.141 N  
DOCKED: ATOM     16  C   UNL     1     -42.445 -12.735  12.123 -0.02 +0.00    +0.285 C  
DOCKED: ATOM     17  C   UNL     1     -40.924 -12.087  10.381 -0.11 +0.00    +0.285 C  
DOCKED: ENDBRANCH  14  15
DOCKED: ENDBRANCH  13  14
DOCKED: ENDBRANCH  12  13
DOCKED: ENDBRANCH   2  12
DOCKED: BRANCH   2  18
DOCKED: ATOM     18  C   UNL     1     -39.896 -17.708  12.300 -0.12 +0.00    +0.006 A  
DOCKED: ATOM     19  C   UNL     1     -39.985 -19.100  12.300 -0.23 +0.00    +0.001 A  
DOCKED: ATOM     20  C   UNL     1     -39.226 -19.846  13.203 -0.21 +0.00    +0.029 A  
DOCKED: ATOM     21  C   UNL     1     -38.380 -19.200  14.103 -0.12 +0.00    +0.140 A  
DOCKED: ATOM     22  C   UNL     1     -38.292 -17.808  14.103 -0.10 +0.00    +0.029 A  
DOCKED: ATOM     23  F   UNL     1     -37.651 -19.916  14.969 -0.07 -0.00    -0.204 F  
DOCKED: ATOM     24  C   UNL     1     -39.051 -17.061  13.200 -0.08 +0.00    +0.001 A  
DOCKED: ENDBRANCH   2  18
DOCKED: TORSDOF 5
DOCKED: TER
DOCKED: ENDMDL
________________________________________________________________________________


    FINAL DOCKED STATE:
    ________________________


Run:   73 / 512
Time taken for this run:   0.002s

DOCKED: MODEL        73
DOCKED: USER    Run = 73
DOCKED: USER
DOCKED: USER    Estimated Free Energy of Binding    =  -5.69 kcal/mol  [=(1)+(2)+(3)-(4)]
DOCKED: USER
DOCKED: USER    (1) Final Intermolecular Energy     =  -7.18 kcal/mol
DOCKED: USER        vdW + Hbond + desolv Energy     =  -7.18 kcal/mol
DOCKED: USER        Electrostatic Energy            =  +0.00 kcal/mol
DOCKED: USER        Moving Ligand-Fixed Receptor    =  -7.18 kcal/mol
DOCKED: USER        Moving Ligand-Moving Receptor   =  +0.00 kcal/mol
DOCKED: USER    (2) Final Total Internal Energy     =  -1.04 kcal/mol
DOCKED: USER    (3) Torsional Free Energy           =  +1.49 kcal/mol
DOCKED: USER    (4) Unbound System's Energy         =  -1.04 kcal/mol
DOCKED: USER
DOCKED: USER
DOCKED: REMARK  5 active torsions:
DOCKED: REMARK  status: ('A' for Active; 'I' for Inactive)
DOCKED: REMARK    1  A    between atoms: C_2  and  C_19 
DOCKED: REMARK    2  A    between atoms: C_2  and  C_11 
DOCKED: REMARK    3  A    between atoms: C_19  and  C_20 
DOCKED: REMARK    4  A    between atoms: C_20  and  C_21 
DOCKED: REMARK    5  A    between atoms: C_21  and  N_22 
DOCKED: USER                              x       y       z     vdW  Elec       q    Type
DOCKED: USER                           _______ _______ _______ _____ _____    ______ ____
DOCKED: ROOT
DOCKED: ATOM      1  O   UNL     1     -39.206 -16.303  11.371 -0.04 -0.00    -0.346 OA 
DOCKED: ATOM      2  C   UNL     1     -38.693 -17.673  11.335 -0.21 +0.00    +0.130 C  
DOCKED: ATOM      3  C   UNL     1     -39.147 -18.191  10.001 -0.34 +0.00    +0.004 A  
DOCKED: ATOM      4  C   UNL     1     -39.769 -17.174   9.291 -0.34 +0.00    +0.006 A  
DOCKED: ATOM      5  C   UNL     1     -39.758 -15.926  10.088 -0.22 +0.00    +0.169 C  
DOCKED: ATOM      6  C   UNL     1     -39.011 -19.459   9.455 -0.40 -0.00    -0.001 A  
DOCKED: ATOM      7  C   UNL     1     -40.277 -17.387   8.021 -0.04 +0.00    +0.008 A  
DOCKED: ATOM      8  C   UNL     1     -39.522 -19.692   8.177 -0.44 +0.00    +0.010 A  
DOCKED: ATOM      9  C   UNL     1     -40.151 -18.660   7.464 -0.43 +0.00    +0.068 A  
DOCKED: ATOM     10  N   UNL     1     -41.084 -19.124   5.092 -2.75 -0.00    -0.191 NA 
DOCKED: ATOM     11  C   UNL     1     -40.667 -18.916   6.156 -0.44 +0.00    +0.101 C  
DOCKED: ENDROOT
DOCKED: BRANCH   2  12
DOCKED: ATOM     12  C   UNL     1     -37.175 -17.624  11.466 -0.25 +0.00    +0.038 C  
DOCKED: BRANCH  12  13
DOCKED: ATOM     13  C   UNL     1     -36.727 -16.422  12.296 -0.15 +0.00    +0.038 C  
DOCKED: BRANCH  13  14
DOCKED: ATOM     14  C   UNL     1     -35.995 -15.398  11.430 -0.09 +0.00    +0.251 C  
DOCKED: BRANCH  14  15
DOCKED: ATOM     15  N   UNL     1     -34.576 -15.375  11.761 -0.07 +0.00    +0.141 N  
DOCKED: ATOM     16  C   UNL     1     -33.793 -16.053  10.726 -0.03 +0.00    +0.285 C  
DOCKED: ATOM     17  C   UNL     1     -34.108 -13.999  11.931 -0.02 +0.00    +0.285 C  
DOCKED: ENDBRANCH  14  15
DOCKED: ENDBRANCH  13  14
DOCKED: ENDBRANCH  12  13
DOCKED: ENDBRANCH   2  12
DOCKED: BRANCH   2  18
DOCKED: ATOM     18  C   UNL     1     -39.309 -18.400  12.483 -0.18 +0.00    +0.006 A  
DOCKED: ATOM     19  C   UNL     1     -38.498 -19.032  13.424 -0.16 +0.00    +0.001 A  
DOCKED: ATOM     20  C   UNL     1     -39.076 -19.712  14.496 -0.23 +0.00    +0.029 A  
DOCKED: ATOM     21  C   UNL     1     -40.463 -19.759  14.627 -0.03 +0.00    +0.140 A  
DOCKED: ATOM     22  C   UNL     1     -41.274 -19.126  13.685 -0.14 +0.00    +0.029 A  
DOCKED: ATOM     23  F   UNL     1     -41.017 -20.410  15.657 -0.03 -0.00    -0.204 F  
DOCKED: ATOM     24  C   UNL     1     -40.697 -18.446  12.611 -0.15 +0.00    +0.001 A  
DOCKED: ENDBRANCH   2  18
DOCKED: TORSDOF 5
DOCKED: TER
DOCKED: ENDMDL
________________________________________________________________________________


    FINAL DOCKED STATE:
    ________________________


Run:   74 / 512
Time taken for this run:   0.002s

DOCKED: MODEL        74
DOCKED: USER    Run = 74
DOCKED: USER
DOCKED: USER    Estimated Free Energy of Binding    =  -4.86 kcal/mol  [=(1)+(2)+(3)-(4)]
DOCKED: USER
DOCKED: USER    (1) Final Intermolecular Energy     =  -6.35 kcal/mol
DOCKED: USER        vdW + Hbond + desolv Energy     =  -6.35 kcal/mol
DOCKED: USER        Electrostatic Energy            =  +0.00 kcal/mol
DOCKED: USER        Moving Ligand-Fixed Receptor    =  -6.35 kcal/mol
DOCKED: USER        Moving Ligand-Moving Receptor   =  +0.00 kcal/mol
DOCKED: USER    (2) Final Total Internal Energy     =  -0.84 kcal/mol
DOCKED: USER    (3) Torsional Free Energy           =  +1.49 kcal/mol
DOCKED: USER    (4) Unbound System's Energy         =  -0.84 kcal/mol
DOCKED: USER
DOCKED: USER
DOCKED: REMARK  5 active torsions:
DOCKED: REMARK  status: ('A' for Active; 'I' for Inactive)
DOCKED: REMARK    1  A    between atoms: C_2  and  C_19 
DOCKED: REMARK    2  A    between atoms: C_2  and  C_11 
DOCKED: REMARK    3  A    between atoms: C_19  and  C_20 
DOCKED: REMARK    4  A    between atoms: C_20  and  C_21 
DOCKED: REMARK    5  A    between atoms: C_21  and  N_22 
DOCKED: USER                              x       y       z     vdW  Elec       q    Type
DOCKED: USER                           _______ _______ _______ _____ _____    ______ ____
DOCKED: ROOT
DOCKED: ATOM      1  O   UNL     1     -33.277  -8.644   3.062 -0.05 -0.00    -0.346 OA 
DOCKED: ATOM      2  C   UNL     1     -34.456  -9.497   3.217 -0.13 +0.00    +0.130 C  
DOCKED: ATOM      3  C   UNL     1     -35.404  -8.996   2.166 -0.20 +0.00    +0.004 A  
DOCKED: ATOM      4  C   UNL     1     -34.781  -8.018   1.404 -0.18 +0.00    +0.006 A  
DOCKED: ATOM      5  C   UNL     1     -33.395  -7.815   1.882 -0.11 +0.00    +0.169 C  
DOCKED: ATOM      6  C   UNL     1     -36.708  -9.383   1.898 -0.28 -0.00    -0.001 A  
DOCKED: ATOM      7  C   UNL     1     -35.437  -7.393   0.357 -0.28 +0.00    +0.008 A  
DOCKED: ATOM      8  C   UNL     1     -37.385  -8.759   0.848 -0.13 +0.00    +0.010 A  
DOCKED: ATOM      9  C   UNL     1     -36.752  -7.769   0.081 -0.37 +0.00    +0.068 A  
DOCKED: ATOM     10  N   UNL     1     -38.035  -6.635  -1.863 -2.41 -0.00    -0.191 NA 
DOCKED: ATOM     11  C   UNL     1     -37.460  -7.143  -0.991 -0.38 +0.00    +0.101 C  
DOCKED: ENDROOT
DOCKED: BRANCH   2  12
DOCKED: ATOM     12  C   UNL     1     -34.036 -10.945   2.996 -0.08 +0.00    +0.038 C  
DOCKED: BRANCH  12  13
DOCKED: ATOM     13  C   UNL     1     -35.246 -11.844   2.750 -0.18 +0.00    +0.038 C  
DOCKED: BRANCH  13  14
DOCKED: ATOM     14  C   UNL     1     -35.687 -12.537   4.038 -0.13 +0.00    +0.251 C  
DOCKED: BRANCH  14  15
DOCKED: ATOM     15  N   UNL     1     -34.954 -13.784   4.220 -0.16 +0.00    +0.141 N  
DOCKED: ATOM     16  C   UNL     1     -35.788 -14.780   4.893 -0.23 +0.00    +0.285 C  
DOCKED: ATOM     17  C   UNL     1     -34.485 -14.300   2.933 -0.14 +0.00    +0.285 C  
DOCKED: ENDBRANCH  14  15
DOCKED: ENDBRANCH  13  14
DOCKED: ENDBRANCH  12  13
DOCKED: ENDBRANCH   2  12
DOCKED: BRANCH   2  18
DOCKED: ATOM     18  C   UNL     1     -34.965  -9.290   4.605 -0.16 +0.00    +0.006 A  
DOCKED: ATOM     19  C   UNL     1     -36.338  -9.284   4.850 -0.19 +0.00    +0.001 A  
DOCKED: ATOM     20  C   UNL     1     -36.812  -9.090   6.148 -0.20 +0.00    +0.029 A  
DOCKED: ATOM     21  C   UNL     1     -35.915  -8.903   7.197 -0.12 +0.00    +0.140 A  
DOCKED: ATOM     22  C   UNL     1     -34.542  -8.909   6.952 -0.11 +0.00    +0.029 A  
DOCKED: ATOM     23  F   UNL     1     -36.370  -8.718   8.443 -0.02 -0.00    -0.204 F  
DOCKED: ATOM     24  C   UNL     1     -34.066  -9.102   5.654 -0.12 +0.00    +0.001 A  
DOCKED: ENDBRANCH   2  18
DOCKED: TORSDOF 5
DOCKED: TER
DOCKED: ENDMDL
________________________________________________________________________________


    FINAL DOCKED STATE:
    ________________________


Run:   75 / 512
Time taken for this run:   0.002s

DOCKED: MODEL        75
DOCKED: USER    Run = 75
DOCKED: USER
DOCKED: USER    Estimated Free Energy of Binding    =  -3.85 kcal/mol  [=(1)+(2)+(3)-(4)]
DOCKED: USER
DOCKED: USER    (1) Final Intermolecular Energy     =  -5.34 kcal/mol
DOCKED: USER        vdW + Hbond + desolv Energy     =  -5.34 kcal/mol
DOCKED: USER        Electrostatic Energy            =  +0.00 kcal/mol
DOCKED: USER        Moving Ligand-Fixed Receptor    =  -5.34 kcal/mol
DOCKED: USER        Moving Ligand-Moving Receptor   =  +0.00 kcal/mol
DOCKED: USER    (2) Final Total Internal Energy     =  -1.54 kcal/mol
DOCKED: USER    (3) Torsional Free Energy           =  +1.49 kcal/mol
DOCKED: USER    (4) Unbound System's Energy         =  -1.54 kcal/mol
DOCKED: USER
DOCKED: USER
DOCKED: REMARK  5 active torsions:
DOCKED: REMARK  status: ('A' for Active; 'I' for Inactive)
DOCKED: REMARK    1  A    between atoms: C_2  and  C_19 
DOCKED: REMARK    2  A    between atoms: C_2  and  C_11 
DOCKED: REMARK    3  A    between atoms: C_19  and  C_20 
DOCKED: REMARK    4  A    between atoms: C_20  and  C_21 
DOCKED: REMARK    5  A    between atoms: C_21  and  N_22 
DOCKED: USER                              x       y       z     vdW  Elec       q    Type
DOCKED: USER                           _______ _______ _______ _____ _____    ______ ____
DOCKED: ROOT
DOCKED: ATOM      1  O   UNL     1     -41.506 -14.115  11.719 -0.02 -0.00    -0.346 OA 
DOCKED: ATOM      2  C   UNL     1     -40.304 -14.067  10.886 -0.15 +0.00    +0.130 C  
DOCKED: ATOM      3  C   UNL     1     -40.218 -15.446  10.298 -0.23 +0.00    +0.004 A  
DOCKED: ATOM      4  C   UNL     1     -41.332 -16.183  10.673 -0.19 +0.00    +0.006 A  
DOCKED: ATOM      5  C   UNL     1     -42.225 -15.353  11.511 -0.10 +0.00    +0.169 C  
DOCKED: ATOM      6  C   UNL     1     -39.237 -15.999   9.487 -0.27 -0.00    -0.001 A  
DOCKED: ATOM      7  C   UNL     1     -41.502 -17.493  10.257 -0.21 +0.00    +0.008 A  
DOCKED: ATOM      8  C   UNL     1     -39.393 -17.320   9.063 -0.33 +0.00    +0.010 A  
DOCKED: ATOM      9  C   UNL     1     -40.520 -18.062   9.446 -0.27 +0.00    +0.068 A  
DOCKED: ATOM     10  N   UNL     1     -40.780 -20.510   8.637 -2.55 -0.00    -0.191 NA 
DOCKED: ATOM     11  C   UNL     1     -40.663 -19.412   9.000 -0.37 +0.00    +0.101 C  
DOCKED: ENDROOT
DOCKED: BRANCH   2  12
DOCKED: ATOM     12  C   UNL     1     -40.490 -12.983   9.831 -0.22 +0.00    +0.038 C  
DOCKED: BRANCH  12  13
DOCKED: ATOM     13  C   UNL     1     -41.676 -12.079  10.165 -0.19 +0.00    +0.038 C  
DOCKED: BRANCH  13  14
DOCKED: ATOM     14  C   UNL     1     -41.289 -11.028  11.204 -0.03 +0.00    +0.251 C  
DOCKED: BRANCH  14  15
DOCKED: ATOM     15  N   UNL     1     -41.814 -11.393  12.515 -0.01 +0.00    +0.141 N  
DOCKED: ATOM     16  C   UNL     1     -41.382 -10.431  13.530 -0.00 +0.00    +0.285 C  
DOCKED: ATOM     17  C   UNL     1     -43.275 -11.475  12.481 -0.00 +0.00    +0.285 C  
DOCKED: ENDBRANCH  14  15
DOCKED: ENDBRANCH  13  14
DOCKED: ENDBRANCH  12  13
DOCKED: ENDBRANCH   2  12
DOCKED: BRANCH   2  18
DOCKED: ATOM     18  C   UNL     1     -39.160 -13.747  11.790 -0.06 +0.00    +0.006 A  
DOCKED: ATOM     19  C   UNL     1     -38.044 -13.076  11.290 -0.07 +0.00    +0.001 A  
DOCKED: ATOM     20  C   UNL     1     -36.975 -12.778  12.136 -0.02 +0.00    +0.029 A  
DOCKED: ATOM     21  C   UNL     1     -37.023 -13.151  13.479 -0.00 +0.00    +0.140 A  
DOCKED: ATOM     22  C   UNL     1     -38.139 -13.822  13.977 -0.01 +0.00    +0.029 A  
DOCKED: ATOM     23  F   UNL     1     -35.997 -12.864  14.291 +0.00 -0.00    -0.204 F  
DOCKED: ATOM     24  C   UNL     1     -39.209 -14.121  13.132 -0.02 +0.00    +0.001 A  
DOCKED: ENDBRANCH   2  18
DOCKED: TORSDOF 5
DOCKED: TER
DOCKED: ENDMDL
________________________________________________________________________________


    FINAL DOCKED STATE:
    ________________________


Run:   76 / 512
Time taken for this run:   0.002s

DOCKED: MODEL        76
DOCKED: USER    Run = 76
DOCKED: USER
DOCKED: USER    Estimated Free Energy of Binding    =  -4.83 kcal/mol  [=(1)+(2)+(3)-(4)]
DOCKED: USER
DOCKED: USER    (1) Final Intermolecular Energy     =  -6.32 kcal/mol
DOCKED: USER        vdW + Hbond + desolv Energy     =  -6.32 kcal/mol
DOCKED: USER        Electrostatic Energy            =  +0.00 kcal/mol
DOCKED: USER        Moving Ligand-Fixed Receptor    =  -6.32 kcal/mol
DOCKED: USER        Moving Ligand-Moving Receptor   =  +0.00 kcal/mol
DOCKED: USER    (2) Final Total Internal Energy     =  -1.19 kcal/mol
DOCKED: USER    (3) Torsional Free Energy           =  +1.49 kcal/mol
DOCKED: USER    (4) Unbound System's Energy         =  -1.19 kcal/mol
DOCKED: USER
DOCKED: USER
DOCKED: REMARK  5 active torsions:
DOCKED: REMARK  status: ('A' for Active; 'I' for Inactive)
DOCKED: REMARK    1  A    between atoms: C_2  and  C_19 
DOCKED: REMARK    2  A    between atoms: C_2  and  C_11 
DOCKED: REMARK    3  A    between atoms: C_19  and  C_20 
DOCKED: REMARK    4  A    between atoms: C_20  and  C_21 
DOCKED: REMARK    5  A    between atoms: C_21  and  N_22 
DOCKED: USER                              x       y       z     vdW  Elec       q    Type
DOCKED: USER                           _______ _______ _______ _____ _____    ______ ____
DOCKED: ROOT
DOCKED: ATOM      1  O   UNL     1     -36.174 -10.490   3.739 -0.07 -0.00    -0.346 OA 
DOCKED: ATOM      2  C   UNL     1     -34.973 -10.328   2.919 -0.13 +0.00    +0.130 C  
DOCKED: ATOM      3  C   UNL     1     -35.453  -9.552   1.727 -0.23 +0.00    +0.004 A  
DOCKED: ATOM      4  C   UNL     1     -36.786  -9.206   1.901 -0.30 +0.00    +0.006 A  
DOCKED: ATOM      5  C   UNL     1     -37.268  -9.708   3.207 -0.27 +0.00    +0.169 C  
DOCKED: ATOM      6  C   UNL     1     -34.764  -9.174   0.584 -0.18 -0.00    -0.001 A  
DOCKED: ATOM      7  C   UNL     1     -37.472  -8.477   0.945 -0.35 +0.00    +0.008 A  
DOCKED: ATOM      8  C   UNL     1     -35.443  -8.443  -0.392 -0.24 +0.00    +0.010 A  
DOCKED: ATOM      9  C   UNL     1     -36.791  -8.096  -0.212 -0.22 +0.00    +0.068 A  
DOCKED: ATOM     10  N   UNL     1     -38.021  -6.735  -2.041 -2.48 -0.00    -0.191 NA 
DOCKED: ATOM     11  C   UNL     1     -37.470  -7.346  -1.221 -0.35 +0.00    +0.101 C  
DOCKED: ENDROOT
DOCKED: BRANCH   2  12
DOCKED: ATOM     12  C   UNL     1     -33.929  -9.575   3.735 -0.12 +0.00    +0.038 C  
DOCKED: BRANCH  12  13
DOCKED: ATOM     13  C   UNL     1     -34.493  -9.125   5.081 -0.14 +0.00    +0.038 C  
DOCKED: BRANCH  13  14
DOCKED: ATOM     14  C   UNL     1     -34.611 -10.302   6.048 -0.06 +0.00    +0.251 C  
DOCKED: BRANCH  14  15
DOCKED: ATOM     15  N   UNL     1     -35.573  -9.999   7.101 -0.06 +0.00    +0.141 N  
DOCKED: ATOM     16  C   UNL     1     -36.675  -9.191   6.576 -0.13 +0.00    +0.285 C  
DOCKED: ATOM     17  C   UNL     1     -36.087 -11.232   7.699 -0.05 +0.00    +0.285 C  
DOCKED: ENDBRANCH  14  15
DOCKED: ENDBRANCH  13  14
DOCKED: ENDBRANCH  12  13
DOCKED: ENDBRANCH   2  12
DOCKED: BRANCH   2  18
DOCKED: ATOM     18  C   UNL     1     -34.496 -11.698   2.568 -0.11 +0.00    +0.006 A  
DOCKED: ATOM     19  C   UNL     1     -33.956 -12.522   3.555 -0.07 +0.00    +0.001 A  
DOCKED: ATOM     20  C   UNL     1     -33.510 -13.802   3.225 -0.11 +0.00    +0.029 A  
DOCKED: ATOM     21  C   UNL     1     -33.606 -14.257   1.911 -0.15 +0.00    +0.140 A  
DOCKED: ATOM     22  C   UNL     1     -34.146 -13.433   0.924 -0.21 +0.00    +0.029 A  
DOCKED: ATOM     23  F   UNL     1     -33.179 -15.487   1.595 -0.07 -0.00    -0.204 F  
DOCKED: ATOM     24  C   UNL     1     -34.592 -12.151   1.253 -0.19 +0.00    +0.001 A  
DOCKED: ENDBRANCH   2  18
DOCKED: TORSDOF 5
DOCKED: TER
DOCKED: ENDMDL
________________________________________________________________________________


    FINAL DOCKED STATE:
    ________________________


Run:   77 / 512
Time taken for this run:   0.002s

DOCKED: MODEL        77
DOCKED: USER    Run = 77
DOCKED: USER
DOCKED: USER    Estimated Free Energy of Binding    =  -3.59 kcal/mol  [=(1)+(2)+(3)-(4)]
DOCKED: USER
DOCKED: USER    (1) Final Intermolecular Energy     =  -5.09 kcal/mol
DOCKED: USER        vdW + Hbond + desolv Energy     =  -5.09 kcal/mol
DOCKED: USER        Electrostatic Energy            =  +0.00 kcal/mol
DOCKED: USER        Moving Ligand-Fixed Receptor    =  -5.09 kcal/mol
DOCKED: USER        Moving Ligand-Moving Receptor   =  +0.00 kcal/mol
DOCKED: USER    (2) Final Total Internal Energy     =  -1.06 kcal/mol
DOCKED: USER    (3) Torsional Free Energy           =  +1.49 kcal/mol
DOCKED: USER    (4) Unbound System's Energy         =  -1.06 kcal/mol
DOCKED: USER
DOCKED: USER
DOCKED: REMARK  5 active torsions:
DOCKED: REMARK  status: ('A' for Active; 'I' for Inactive)
DOCKED: REMARK    1  A    between atoms: C_2  and  C_19 
DOCKED: REMARK    2  A    between atoms: C_2  and  C_11 
DOCKED: REMARK    3  A    between atoms: C_19  and  C_20 
DOCKED: REMARK    4  A    between atoms: C_20  and  C_21 
DOCKED: REMARK    5  A    between atoms: C_21  and  N_22 
DOCKED: USER                              x       y       z     vdW  Elec       q    Type
DOCKED: USER                           _______ _______ _______ _____ _____    ______ ____
DOCKED: ROOT
DOCKED: ATOM      1  O   UNL     1     -39.151 -15.462  13.214 -0.00 -0.00    -0.346 OA 
DOCKED: ATOM      2  C   UNL     1     -39.067 -14.843  11.890 -0.07 +0.00    +0.130 C  
DOCKED: ATOM      3  C   UNL     1     -39.376 -15.969  10.947 -0.18 +0.00    +0.004 A  
DOCKED: ATOM      4  C   UNL     1     -39.715 -17.104  11.669 -0.13 +0.00    +0.006 A  
DOCKED: ATOM      5  C   UNL     1     -39.667 -16.809  13.119 -0.05 +0.00    +0.169 C  
DOCKED: ATOM      6  C   UNL     1     -39.368 -15.984   9.559 -0.27 -0.00    -0.001 A  
DOCKED: ATOM      7  C   UNL     1     -40.052 -18.287  11.035 -0.21 +0.00    +0.008 A  
DOCKED: ATOM      8  C   UNL     1     -39.702 -17.171   8.905 -0.34 +0.00    +0.010 A  
DOCKED: ATOM      9  C   UNL     1     -40.042 -18.317   9.640 -0.29 +0.00    +0.068 A  
DOCKED: ATOM     10  N   UNL     1     -40.661 -20.503   8.394 -2.41 -0.00    -0.191 NA 
DOCKED: ATOM     11  C   UNL     1     -40.383 -19.522   8.953 -0.35 +0.00    +0.101 C  
DOCKED: ENDROOT
DOCKED: BRANCH   2  12
DOCKED: ATOM     12  C   UNL     1     -40.087 -13.713  11.821 -0.07 +0.00    +0.038 C  
DOCKED: BRANCH  12  13
DOCKED: ATOM     13  C   UNL     1     -41.516 -14.246  11.915 -0.09 +0.00    +0.038 C  
DOCKED: BRANCH  13  14
DOCKED: ATOM     14  C   UNL     1     -42.535 -13.128  11.701 -0.05 +0.00    +0.251 C  
DOCKED: BRANCH  14  15
DOCKED: ATOM     15  N   UNL     1     -41.925 -12.018  10.979 -0.07 +0.00    +0.141 N  
DOCKED: ATOM     16  C   UNL     1     -42.545 -11.855   9.663 -0.11 +0.00    +0.285 C  
DOCKED: ATOM     17  C   UNL     1     -42.037 -10.778  11.750 -0.01 +0.00    +0.285 C  
DOCKED: ENDBRANCH  14  15
DOCKED: ENDBRANCH  13  14
DOCKED: ENDBRANCH  12  13
DOCKED: ENDBRANCH   2  12
DOCKED: BRANCH   2  18
DOCKED: ATOM     18  C   UNL     1     -37.676 -14.322  11.740 -0.08 +0.00    +0.006 A  
DOCKED: ATOM     19  C   UNL     1     -36.690 -15.125  11.168 -0.13 +0.00    +0.001 A  
DOCKED: ATOM     20  C   UNL     1     -35.390 -14.637  11.028 -0.10 +0.00    +0.029 A  
DOCKED: ATOM     21  C   UNL     1     -35.079 -13.348  11.458 -0.03 +0.00    +0.140 A  
DOCKED: ATOM     22  C   UNL     1     -36.066 -12.545  12.029 -0.02 +0.00    +0.029 A  
DOCKED: ATOM     23  F   UNL     1     -33.832 -12.879  11.322 -0.00 -0.00    -0.204 F  
DOCKED: ATOM     24  C   UNL     1     -37.367 -13.033  12.170 -0.03 +0.00    +0.001 A  
DOCKED: ENDBRANCH   2  18
DOCKED: TORSDOF 5
DOCKED: TER
DOCKED: ENDMDL
________________________________________________________________________________


    FINAL DOCKED STATE:
    ________________________


Run:   78 / 512
Time taken for this run:   0.002s

DOCKED: MODEL        78
DOCKED: USER    Run = 78
DOCKED: USER
DOCKED: USER    Estimated Free Energy of Binding    =  -5.34 kcal/mol  [=(1)+(2)+(3)-(4)]
DOCKED: USER
DOCKED: USER    (1) Final Intermolecular Energy     =  -6.84 kcal/mol
DOCKED: USER        vdW + Hbond + desolv Energy     =  -6.84 kcal/mol
DOCKED: USER        Electrostatic Energy            =  +0.00 kcal/mol
DOCKED: USER        Moving Ligand-Fixed Receptor    =  -6.84 kcal/mol
DOCKED: USER        Moving Ligand-Moving Receptor   =  +0.00 kcal/mol
DOCKED: USER    (2) Final Total Internal Energy     =  -0.96 kcal/mol
DOCKED: USER    (3) Torsional Free Energy           =  +1.49 kcal/mol
DOCKED: USER    (4) Unbound System's Energy         =  -0.96 kcal/mol
DOCKED: USER
DOCKED: USER
DOCKED: REMARK  5 active torsions:
DOCKED: REMARK  status: ('A' for Active; 'I' for Inactive)
DOCKED: REMARK    1  A    between atoms: C_2  and  C_19 
DOCKED: REMARK    2  A    between atoms: C_2  and  C_11 
DOCKED: REMARK    3  A    between atoms: C_19  and  C_20 
DOCKED: REMARK    4  A    between atoms: C_20  and  C_21 
DOCKED: REMARK    5  A    between atoms: C_21  and  N_22 
DOCKED: USER                              x       y       z     vdW  Elec       q    Type
DOCKED: USER                           _______ _______ _______ _____ _____    ______ ____
DOCKED: ROOT
DOCKED: ATOM      1  O   UNL     1     -42.739 -17.927  11.536 -0.01 -0.00    -0.346 OA 
DOCKED: ATOM      2  C   UNL     1     -41.479 -17.226  11.284 -0.12 +0.00    +0.130 C  
DOCKED: ATOM      3  C   UNL     1     -41.178 -17.535   9.846 -0.25 +0.00    +0.004 A  
DOCKED: ATOM      4  C   UNL     1     -42.227 -18.255   9.293 -0.30 +0.00    +0.006 A  
DOCKED: ATOM      5  C   UNL     1     -43.286 -18.460  10.308 -0.17 +0.00    +0.169 C  
DOCKED: ATOM      6  C   UNL     1     -40.069 -17.195   9.085 -0.34 -0.00    -0.001 A  
DOCKED: ATOM      7  C   UNL     1     -42.204 -18.663   7.970 -0.25 +0.00    +0.008 A  
DOCKED: ATOM      8  C   UNL     1     -40.028 -17.603   7.750 -0.26 +0.00    +0.010 A  
DOCKED: ATOM      9  C   UNL     1     -41.091 -18.332   7.196 -0.28 +0.00    +0.068 A  
DOCKED: ATOM     10  N   UNL     1     -40.986 -19.069   4.714 -2.86 -0.00    -0.191 NA 
DOCKED: ATOM     11  C   UNL     1     -41.033 -18.739   5.827 -0.27 +0.00    +0.101 C  
DOCKED: ENDROOT
DOCKED: BRANCH   2  12
DOCKED: ATOM     12  C   UNL     1     -41.694 -15.739  11.539 -0.13 +0.00    +0.038 C  
DOCKED: BRANCH  12  13
DOCKED: ATOM     13  C   UNL     1     -41.923 -14.978  10.235 -0.25 +0.00    +0.038 C  
DOCKED: BRANCH  13  14
DOCKED: ATOM     14  C   UNL     1     -42.733 -13.705  10.477 -0.15 +0.00    +0.251 C  
DOCKED: BRANCH  14  15
DOCKED: ATOM     15  N   UNL     1     -41.858 -12.539  10.470 -0.14 +0.00    +0.141 N  
DOCKED: ATOM     16  C   UNL     1     -42.298 -11.559  11.465 -0.03 +0.00    +0.285 C  
DOCKED: ATOM     17  C   UNL     1     -40.472 -12.932  10.724 -0.11 +0.00    +0.285 C  
DOCKED: ENDBRANCH  14  15
DOCKED: ENDBRANCH  13  14
DOCKED: ENDBRANCH  12  13
DOCKED: ENDBRANCH   2  12
DOCKED: BRANCH   2  18
DOCKED: ATOM     18  C   UNL     1     -40.469 -17.794  12.224 -0.12 +0.00    +0.006 A  
DOCKED: ATOM     19  C   UNL     1     -39.220 -17.187  12.354 -0.12 +0.00    +0.001 A  
DOCKED: ATOM     20  C   UNL     1     -38.276 -17.719  13.233 -0.12 +0.00    +0.029 A  
DOCKED: ATOM     21  C   UNL     1     -38.582 -18.854  13.982 -0.13 +0.00    +0.140 A  
DOCKED: ATOM     22  C   UNL     1     -39.831 -19.460  13.852 -0.18 +0.00    +0.029 A  
DOCKED: ATOM     23  F   UNL     1     -37.676 -19.363  14.827 -0.06 -0.00    -0.204 F  
DOCKED: ATOM     24  C   UNL     1     -40.776 -18.929  12.972 -0.18 +0.00    +0.001 A  
DOCKED: ENDBRANCH   2  18
DOCKED: TORSDOF 5
DOCKED: TER
DOCKED: ENDMDL
________________________________________________________________________________


    FINAL DOCKED STATE:
    ________________________


Run:   79 / 512
Time taken for this run:   0.002s

DOCKED: MODEL        79
DOCKED: USER    Run = 79
DOCKED: USER
DOCKED: USER    Estimated Free Energy of Binding    =  -5.09 kcal/mol  [=(1)+(2)+(3)-(4)]
DOCKED: USER
DOCKED: USER    (1) Final Intermolecular Energy     =  -6.58 kcal/mol
DOCKED: USER        vdW + Hbond + desolv Energy     =  -6.58 kcal/mol
DOCKED: USER        Electrostatic Energy            =  +0.00 kcal/mol
DOCKED: USER        Moving Ligand-Fixed Receptor    =  -6.58 kcal/mol
DOCKED: USER        Moving Ligand-Moving Receptor   =  +0.00 kcal/mol
DOCKED: USER    (2) Final Total Internal Energy     =  -0.97 kcal/mol
DOCKED: USER    (3) Torsional Free Energy           =  +1.49 kcal/mol
DOCKED: USER    (4) Unbound System's Energy         =  -0.97 kcal/mol
DOCKED: USER
DOCKED: USER
DOCKED: REMARK  5 active torsions:
DOCKED: REMARK  status: ('A' for Active; 'I' for Inactive)
DOCKED: REMARK    1  A    between atoms: C_2  and  C_19 
DOCKED: REMARK    2  A    between atoms: C_2  and  C_11 
DOCKED: REMARK    3  A    between atoms: C_19  and  C_20 
DOCKED: REMARK    4  A    between atoms: C_20  and  C_21 
DOCKED: REMARK    5  A    between atoms: C_21  and  N_22 
DOCKED: USER                              x       y       z     vdW  Elec       q    Type
DOCKED: USER                           _______ _______ _______ _____ _____    ______ ____
DOCKED: ROOT
DOCKED: ATOM      1  O   UNL     1     -41.869 -17.091  11.755 -0.00 -0.00    -0.346 OA 
DOCKED: ATOM      2  C   UNL     1     -40.443 -17.066  11.425 -0.11 +0.00    +0.130 C  
DOCKED: ATOM      3  C   UNL     1     -40.395 -17.547  10.003 -0.27 +0.00    +0.004 A  
DOCKED: ATOM      4  C   UNL     1     -41.686 -17.725   9.526 -0.27 +0.00    +0.006 A  
DOCKED: ATOM      5  C   UNL     1     -42.664 -17.368  10.579 -0.16 +0.00    +0.169 C  
DOCKED: ATOM      6  C   UNL     1     -39.296 -17.795   9.193 -0.35 -0.00    -0.001 A  
DOCKED: ATOM      7  C   UNL     1     -41.923 -18.159   8.233 -0.23 +0.00    +0.008 A  
DOCKED: ATOM      8  C   UNL     1     -39.519 -18.238   7.888 -0.08 +0.00    +0.010 A  
DOCKED: ATOM      9  C   UNL     1     -40.826 -18.418   7.411 -0.37 +0.00    +0.068 A  
DOCKED: ATOM     10  N   UNL     1     -41.204 -19.236   4.982 -2.82 -0.00    -0.191 NA 
DOCKED: ATOM     11  C   UNL     1     -41.034 -18.870   6.071 -0.27 +0.00    +0.101 C  
DOCKED: ENDROOT
DOCKED: BRANCH   2  12
DOCKED: ATOM     12  C   UNL     1     -39.935 -15.638  11.586 -0.12 +0.00    +0.038 C  
DOCKED: BRANCH  12  13
DOCKED: ATOM     13  C   UNL     1     -38.484 -15.508  11.127 -0.18 +0.00    +0.038 C  
DOCKED: BRANCH  13  14
DOCKED: ATOM     14  C   UNL     1     -38.381 -14.656   9.864 -0.16 +0.00    +0.251 C  
DOCKED: BRANCH  14  15
DOCKED: ATOM     15  N   UNL     1     -37.334 -13.652  10.013 -0.13 +0.00    +0.141 N  
DOCKED: ATOM     16  C   UNL     1     -36.207 -13.948   9.128 -0.08 +0.00    +0.285 C  
DOCKED: ATOM     17  C   UNL     1     -37.860 -12.314   9.736 -0.08 +0.00    +0.285 C  
DOCKED: ENDBRANCH  14  15
DOCKED: ENDBRANCH  13  14
DOCKED: ENDBRANCH  12  13
DOCKED: ENDBRANCH   2  12
DOCKED: BRANCH   2  18
DOCKED: ATOM     18  C   UNL     1     -39.759 -17.991  12.375 -0.14 +0.00    +0.006 A  
DOCKED: ATOM     19  C   UNL     1     -39.573 -19.330  12.032 -0.27 +0.00    +0.001 A  
DOCKED: ATOM     20  C   UNL     1     -38.933 -20.194  12.922 -0.09 +0.00    +0.029 A  
DOCKED: ATOM     21  C   UNL     1     -38.480 -19.719  14.151 -0.12 +0.00    +0.140 A  
DOCKED: ATOM     22  C   UNL     1     -38.666 -18.380  14.494 -0.13 +0.00    +0.029 A  
DOCKED: ATOM     23  F   UNL     1     -37.865 -20.548  15.004 -0.07 -0.00    -0.204 F  
DOCKED: ATOM     24  C   UNL     1     -39.306 -17.515  13.605 -0.09 +0.00    +0.001 A  
DOCKED: ENDBRANCH   2  18
DOCKED: TORSDOF 5
DOCKED: TER
DOCKED: ENDMDL
________________________________________________________________________________


    FINAL DOCKED STATE:
    ________________________


Run:   80 / 512
Time taken for this run:   0.002s

DOCKED: MODEL        80
DOCKED: USER    Run = 80
DOCKED: USER
DOCKED: USER    Estimated Free Energy of Binding    =  -4.15 kcal/mol  [=(1)+(2)+(3)-(4)]
DOCKED: USER
DOCKED: USER    (1) Final Intermolecular Energy     =  -5.64 kcal/mol
DOCKED: USER        vdW + Hbond + desolv Energy     =  -5.64 kcal/mol
DOCKED: USER        Electrostatic Energy            =  +0.00 kcal/mol
DOCKED: USER        Moving Ligand-Fixed Receptor    =  -5.64 kcal/mol
DOCKED: USER        Moving Ligand-Moving Receptor   =  +0.00 kcal/mol
DOCKED: USER    (2) Final Total Internal Energy     =  -1.48 kcal/mol
DOCKED: USER    (3) Torsional Free Energy           =  +1.49 kcal/mol
DOCKED: USER    (4) Unbound System's Energy         =  -1.48 kcal/mol
DOCKED: USER
DOCKED: USER
DOCKED: REMARK  5 active torsions:
DOCKED: REMARK  status: ('A' for Active; 'I' for Inactive)
DOCKED: REMARK    1  A    between atoms: C_2  and  C_19 
DOCKED: REMARK    2  A    between atoms: C_2  and  C_11 
DOCKED: REMARK    3  A    between atoms: C_19  and  C_20 
DOCKED: REMARK    4  A    between atoms: C_20  and  C_21 
DOCKED: REMARK    5  A    between atoms: C_21  and  N_22 
DOCKED: USER                              x       y       z     vdW  Elec       q    Type
DOCKED: USER                           _______ _______ _______ _____ _____    ______ ____
DOCKED: ROOT
DOCKED: ATOM      1  O   UNL     1     -36.968 -15.173  11.586 -0.05 -0.00    -0.346 OA 
DOCKED: ATOM      2  C   UNL     1     -38.320 -14.671  11.336 -0.11 +0.00    +0.130 C  
DOCKED: ATOM      3  C   UNL     1     -39.029 -15.840  10.717 -0.21 +0.00    +0.004 A  
DOCKED: ATOM      4  C   UNL     1     -38.192 -16.947  10.714 -0.24 +0.00    +0.006 A  
DOCKED: ATOM      5  C   UNL     1     -36.894 -16.596  11.334 -0.13 +0.00    +0.169 C  
DOCKED: ATOM      6  C   UNL     1     -40.317 -15.921  10.207 -0.24 -0.00    -0.001 A  
DOCKED: ATOM      7  C   UNL     1     -38.607 -18.164  10.202 -0.32 +0.00    +0.008 A  
DOCKED: ATOM      8  C   UNL     1     -40.749 -17.141   9.683 -0.27 +0.00    +0.010 A  
DOCKED: ATOM      9  C   UNL     1     -39.898 -18.256   9.681 -0.29 +0.00    +0.068 A  
DOCKED: ATOM     10  N   UNL     1     -40.734 -20.506   8.704 -2.59 -0.00    -0.191 NA 
DOCKED: ATOM     11  C   UNL     1     -40.359 -19.497   9.142 -0.29 +0.00    +0.101 C  
DOCKED: ENDROOT
DOCKED: BRANCH   2  12
DOCKED: ATOM     12  C   UNL     1     -38.929 -14.243  12.666 -0.04 +0.00    +0.038 C  
DOCKED: BRANCH  12  13
DOCKED: ATOM     13  C   UNL     1     -38.812 -15.348  13.713 -0.03 +0.00    +0.038 C  
DOCKED: BRANCH  13  14
DOCKED: ATOM     14  C   UNL     1     -40.191 -15.804  14.187 -0.01 +0.00    +0.251 C  
DOCKED: BRANCH  14  15
DOCKED: ATOM     15  N   UNL     1     -40.703 -16.858  13.320 -0.03 +0.00    +0.141 N  
DOCKED: ATOM     16  C   UNL     1     -40.356 -18.177  13.850 -0.05 +0.00    +0.285 C  
DOCKED: ATOM     17  C   UNL     1     -42.154 -16.739  13.165 -0.01 +0.00    +0.285 C  
DOCKED: ENDBRANCH  14  15
DOCKED: ENDBRANCH  13  14
DOCKED: ENDBRANCH  12  13
DOCKED: ENDBRANCH   2  12
DOCKED: BRANCH   2  18
DOCKED: ATOM     18  C   UNL     1     -38.189 -13.511  10.406 -0.14 +0.00    +0.006 A  
DOCKED: ATOM     19  C   UNL     1     -37.102 -13.434   9.536 -0.15 +0.00    +0.001 A  
DOCKED: ATOM     20  C   UNL     1     -36.980 -12.349   8.667 -0.10 +0.00    +0.029 A  
DOCKED: ATOM     21  C   UNL     1     -37.946 -11.344   8.668 -0.08 +0.00    +0.140 A  
DOCKED: ATOM     22  C   UNL     1     -39.034 -11.421   9.538 -0.12 +0.00    +0.029 A  
DOCKED: ATOM     23  F   UNL     1     -37.831 -10.303   7.833 -0.02 -0.00    -0.204 F  
DOCKED: ATOM     24  C   UNL     1     -39.155 -12.506  10.408 -0.12 +0.00    +0.001 A  
DOCKED: ENDBRANCH   2  18
DOCKED: TORSDOF 5
DOCKED: TER
DOCKED: ENDMDL
________________________________________________________________________________


    FINAL DOCKED STATE:
    ________________________


Run:   81 / 512
Time taken for this run:   0.002s

DOCKED: MODEL        81
DOCKED: USER    Run = 81
DOCKED: USER
DOCKED: USER    Estimated Free Energy of Binding    =  -4.30 kcal/mol  [=(1)+(2)+(3)-(4)]
DOCKED: USER
DOCKED: USER    (1) Final Intermolecular Energy     =  -5.79 kcal/mol
DOCKED: USER        vdW + Hbond + desolv Energy     =  -5.79 kcal/mol
DOCKED: USER        Electrostatic Energy            =  +0.00 kcal/mol
DOCKED: USER        Moving Ligand-Fixed Receptor    =  -5.79 kcal/mol
DOCKED: USER        Moving Ligand-Moving Receptor   =  +0.00 kcal/mol
DOCKED: USER    (2) Final Total Internal Energy     =  -1.22 kcal/mol
DOCKED: USER    (3) Torsional Free Energy           =  +1.49 kcal/mol
DOCKED: USER    (4) Unbound System's Energy         =  -1.22 kcal/mol
DOCKED: USER
DOCKED: USER
DOCKED: REMARK  5 active torsions:
DOCKED: REMARK  status: ('A' for Active; 'I' for Inactive)
DOCKED: REMARK    1  A    between atoms: C_2  and  C_19 
DOCKED: REMARK    2  A    between atoms: C_2  and  C_11 
DOCKED: REMARK    3  A    between atoms: C_19  and  C_20 
DOCKED: REMARK    4  A    between atoms: C_20  and  C_21 
DOCKED: REMARK    5  A    between atoms: C_21  and  N_22 
DOCKED: USER                              x       y       z     vdW  Elec       q    Type
DOCKED: USER                           _______ _______ _______ _____ _____    ______ ____
DOCKED: ROOT
DOCKED: ATOM      1  O   UNL     1     -36.052 -16.401  12.044 -0.08 -0.00    -0.346 OA 
DOCKED: ATOM      2  C   UNL     1     -37.012 -15.466  11.457 -0.13 +0.00    +0.130 C  
DOCKED: ATOM      3  C   UNL     1     -38.004 -16.356  10.766 -0.21 +0.00    +0.004 A  
DOCKED: ATOM      4  C   UNL     1     -37.701 -17.685  11.028 -0.25 +0.00    +0.006 A  
DOCKED: ATOM      5  C   UNL     1     -36.513 -17.765  11.908 -0.11 +0.00    +0.169 C  
DOCKED: ATOM      6  C   UNL     1     -39.095 -16.017   9.978 -0.28 -0.00    -0.001 A  
DOCKED: ATOM      7  C   UNL     1     -38.470 -18.714  10.512 -0.35 +0.00    +0.008 A  
DOCKED: ATOM      8  C   UNL     1     -39.877 -17.044   9.447 -0.32 +0.00    +0.010 A  
DOCKED: ATOM      9  C   UNL     1     -39.566 -18.386   9.713 -0.31 +0.00    +0.068 A  
DOCKED: ATOM     10  N   UNL     1     -41.041 -20.268   8.716 -2.55 -0.00    -0.191 NA 
DOCKED: ATOM     11  C   UNL     1     -40.379 -19.424   9.163 -0.34 +0.00    +0.101 C  
DOCKED: ENDROOT
DOCKED: BRANCH   2  12
DOCKED: ATOM     12  C   UNL     1     -37.633 -14.643  12.579 -0.05 +0.00    +0.038 C  
DOCKED: BRANCH  12  13
DOCKED: ATOM     13  C   UNL     1     -38.890 -13.915  12.106 -0.06 +0.00    +0.038 C  
DOCKED: BRANCH  13  14
DOCKED: ATOM     14  C   UNL     1     -40.114 -14.354  12.908 -0.01 +0.00    +0.251 C  
DOCKED: BRANCH  14  15
DOCKED: ATOM     15  N   UNL     1     -40.146 -15.806  13.030 -0.03 +0.00    +0.141 N  
DOCKED: ATOM     16  C   UNL     1     -39.983 -16.210  14.428 -0.00 +0.00    +0.285 C  
DOCKED: ATOM     17  C   UNL     1     -41.396 -16.343  12.489 -0.01 +0.00    +0.285 C  
DOCKED: ENDBRANCH  14  15
DOCKED: ENDBRANCH  13  14
DOCKED: ENDBRANCH  12  13
DOCKED: ENDBRANCH   2  12
DOCKED: BRANCH   2  18
DOCKED: ATOM     18  C   UNL     1     -36.252 -14.597  10.510 -0.12 +0.00    +0.006 A  
DOCKED: ATOM     19  C   UNL     1     -36.921 -13.943   9.476 -0.17 +0.00    +0.001 A  
DOCKED: ATOM     20  C   UNL     1     -36.209 -13.132   8.591 -0.14 +0.00    +0.029 A  
DOCKED: ATOM     21  C   UNL     1     -34.832 -12.976   8.742 -0.07 +0.00    +0.140 A  
DOCKED: ATOM     22  C   UNL     1     -34.164 -13.630   9.777 -0.08 +0.00    +0.029 A  
DOCKED: ATOM     23  F   UNL     1     -34.149 -12.195   7.894 -0.00 -0.00    -0.204 F  
DOCKED: ATOM     24  C   UNL     1     -34.875 -14.442  10.662 -0.10 +0.00    +0.001 A  
DOCKED: ENDBRANCH   2  18
DOCKED: TORSDOF 5
DOCKED: TER
DOCKED: ENDMDL
________________________________________________________________________________


    FINAL DOCKED STATE:
    ________________________


Run:   82 / 512
Time taken for this run:   0.002s

DOCKED: MODEL        82
DOCKED: USER    Run = 82
DOCKED: USER
DOCKED: USER    Estimated Free Energy of Binding    =  -5.72 kcal/mol  [=(1)+(2)+(3)-(4)]
DOCKED: USER
DOCKED: USER    (1) Final Intermolecular Energy     =  -7.21 kcal/mol
DOCKED: USER        vdW + Hbond + desolv Energy     =  -7.21 kcal/mol
DOCKED: USER        Electrostatic Energy            =  +0.00 kcal/mol
DOCKED: USER        Moving Ligand-Fixed Receptor    =  -7.21 kcal/mol
DOCKED: USER        Moving Ligand-Moving Receptor   =  +0.00 kcal/mol
DOCKED: USER    (2) Final Total Internal Energy     =  -1.37 kcal/mol
DOCKED: USER    (3) Torsional Free Energy           =  +1.49 kcal/mol
DOCKED: USER    (4) Unbound System's Energy         =  -1.37 kcal/mol
DOCKED: USER
DOCKED: USER
DOCKED: REMARK  5 active torsions:
DOCKED: REMARK  status: ('A' for Active; 'I' for Inactive)
DOCKED: REMARK    1  A    between atoms: C_2  and  C_19 
DOCKED: REMARK    2  A    between atoms: C_2  and  C_11 
DOCKED: REMARK    3  A    between atoms: C_19  and  C_20 
DOCKED: REMARK    4  A    between atoms: C_20  and  C_21 
DOCKED: REMARK    5  A    between atoms: C_21  and  N_22 
DOCKED: USER                              x       y       z     vdW  Elec       q    Type
DOCKED: USER                           _______ _______ _______ _____ _____    ______ ____
DOCKED: ROOT
DOCKED: ATOM      1  O   UNL     1     -38.730 -16.166  11.165 -0.06 -0.00    -0.346 OA 
DOCKED: ATOM      2  C   UNL     1     -38.638 -17.624  11.246 -0.22 +0.00    +0.130 C  
DOCKED: ATOM      3  C   UNL     1     -39.164 -18.092   9.920 -0.34 +0.00    +0.004 A  
DOCKED: ATOM      4  C   UNL     1     -39.428 -16.997   9.110 -0.32 +0.00    +0.006 A  
DOCKED: ATOM      5  C   UNL     1     -39.089 -15.748   9.828 -0.23 +0.00    +0.169 C  
DOCKED: ATOM      6  C   UNL     1     -39.380 -19.384   9.463 -0.39 -0.00    -0.001 A  
DOCKED: ATOM      7  C   UNL     1     -39.919 -17.153   7.825 +0.10 +0.00    +0.008 A  
DOCKED: ATOM      8  C   UNL     1     -39.878 -19.557   8.171 -0.50 +0.00    +0.010 A  
DOCKED: ATOM      9  C   UNL     1     -40.146 -18.447   7.356 -0.40 +0.00    +0.068 A  
DOCKED: ATOM     10  N   UNL     1     -41.066 -18.805   4.960 -3.08 -0.00    -0.191 NA 
DOCKED: ATOM     11  C   UNL     1     -40.654 -18.644   6.035 -0.41 +0.00    +0.101 C  
DOCKED: ENDROOT
DOCKED: BRANCH   2  12
DOCKED: ATOM     12  C   UNL     1     -37.180 -18.005  11.474 -0.23 +0.00    +0.038 C  
DOCKED: BRANCH  12  13
DOCKED: ATOM     13  C   UNL     1     -36.375 -16.825  12.017 -0.19 +0.00    +0.038 C  
DOCKED: BRANCH  13  14
DOCKED: ATOM     14  C   UNL     1     -35.407 -17.277  13.109 -0.09 +0.00    +0.251 C  
DOCKED: BRANCH  14  15
DOCKED: ATOM     15  N   UNL     1     -35.906 -16.886  14.422 -0.05 +0.00    +0.141 N  
DOCKED: ATOM     16  C   UNL     1     -37.039 -15.968  14.292 -0.02 +0.00    +0.285 C  
DOCKED: ATOM     17  C   UNL     1     -36.295 -18.065  15.198 -0.07 +0.00    +0.285 C  
DOCKED: ENDBRANCH  14  15
DOCKED: ENDBRANCH  13  14
DOCKED: ENDBRANCH  12  13
DOCKED: ENDBRANCH   2  12
DOCKED: BRANCH   2  18
DOCKED: ATOM     18  C   UNL     1     -39.492 -18.052  12.394 -0.15 +0.00    +0.006 A  
DOCKED: ATOM     19  C   UNL     1     -39.288 -19.296  12.988 -0.25 +0.00    +0.001 A  
DOCKED: ATOM     20  C   UNL     1     -40.087 -19.695  14.060 -0.08 +0.00    +0.029 A  
DOCKED: ATOM     21  C   UNL     1     -41.087 -18.849  14.537 -0.08 +0.00    +0.140 A  
DOCKED: ATOM     22  C   UNL     1     -41.290 -17.604  13.942 -0.06 +0.00    +0.029 A  
DOCKED: ATOM     23  F   UNL     1     -41.853 -19.231  15.567 -0.01 -0.00    -0.204 F  
DOCKED: ATOM     24  C   UNL     1     -40.492 -17.204  12.869 -0.08 +0.00    +0.001 A  
DOCKED: ENDBRANCH   2  18
DOCKED: TORSDOF 5
DOCKED: TER
DOCKED: ENDMDL
________________________________________________________________________________


    FINAL DOCKED STATE:
    ________________________


Run:   83 / 512
Time taken for this run:   0.002s

DOCKED: MODEL        83
DOCKED: USER    Run = 83
DOCKED: USER
DOCKED: USER    Estimated Free Energy of Binding    =  -3.94 kcal/mol  [=(1)+(2)+(3)-(4)]
DOCKED: USER
DOCKED: USER    (1) Final Intermolecular Energy     =  -5.43 kcal/mol
DOCKED: USER        vdW + Hbond + desolv Energy     =  -5.43 kcal/mol
DOCKED: USER        Electrostatic Energy            =  +0.00 kcal/mol
DOCKED: USER        Moving Ligand-Fixed Receptor    =  -5.43 kcal/mol
DOCKED: USER        Moving Ligand-Moving Receptor   =  +0.00 kcal/mol
DOCKED: USER    (2) Final Total Internal Energy     =  -1.28 kcal/mol
DOCKED: USER    (3) Torsional Free Energy           =  +1.49 kcal/mol
DOCKED: USER    (4) Unbound System's Energy         =  -1.28 kcal/mol
DOCKED: USER
DOCKED: USER
DOCKED: REMARK  5 active torsions:
DOCKED: REMARK  status: ('A' for Active; 'I' for Inactive)
DOCKED: REMARK    1  A    between atoms: C_2  and  C_19 
DOCKED: REMARK    2  A    between atoms: C_2  and  C_11 
DOCKED: REMARK    3  A    between atoms: C_19  and  C_20 
DOCKED: REMARK    4  A    between atoms: C_20  and  C_21 
DOCKED: REMARK    5  A    between atoms: C_21  and  N_22 
DOCKED: USER                              x       y       z     vdW  Elec       q    Type
DOCKED: USER                           _______ _______ _______ _____ _____    ______ ____
DOCKED: ROOT
DOCKED: ATOM      1  O   UNL     1     -30.240 -16.916   2.442 +0.01 -0.00    -0.346 OA 
DOCKED: ATOM      2  C   UNL     1     -31.306 -16.099   3.024 -0.06 +0.00    +0.130 C  
DOCKED: ATOM      3  C   UNL     1     -31.952 -17.011   4.026 -0.11 +0.00    +0.004 A  
DOCKED: ATOM      4  C   UNL     1     -31.249 -18.206   4.091 -0.10 +0.00    +0.006 A  
DOCKED: ATOM      5  C   UNL     1     -30.099 -18.164   3.161 -0.03 +0.00    +0.169 C  
DOCKED: ATOM      6  C   UNL     1     -33.066 -16.796   4.825 -0.21 -0.00    -0.001 A  
DOCKED: ATOM      7  C   UNL     1     -31.635 -19.223   4.948 -0.18 +0.00    +0.008 A  
DOCKED: ATOM      8  C   UNL     1     -33.470 -17.814   5.691 -0.30 +0.00    +0.010 A  
DOCKED: ATOM      9  C   UNL     1     -32.758 -19.021   5.752 -0.28 +0.00    +0.068 A  
DOCKED: ATOM     10  N   UNL     1     -33.532 -20.887   7.373 -2.60 -0.00    -0.191 NA 
DOCKED: ATOM     11  C   UNL     1     -33.185 -20.050   6.646 -0.41 +0.00    +0.101 C  
DOCKED: ENDROOT
DOCKED: BRANCH   2  12
DOCKED: ATOM     12  C   UNL     1     -30.675 -14.867   3.663 -0.02 +0.00    +0.038 C  
DOCKED: BRANCH  12  13
DOCKED: ATOM     13  C   UNL     1     -29.153 -14.893   3.538 -0.00 +0.00    +0.038 C  
DOCKED: BRANCH  13  14
DOCKED: ATOM     14  C   UNL     1     -28.529 -15.798   4.599 -0.00 +0.00    +0.251 C  
DOCKED: BRANCH  14  15
DOCKED: ATOM     15  N   UNL     1     -28.785 -15.267   5.932 -0.00 +0.00    +0.141 N  
DOCKED: ATOM     16  C   UNL     1     -29.643 -16.176   6.694 -0.00 +0.00    +0.285 C  
DOCKED: ATOM     17  C   UNL     1     -27.527 -15.039   6.646 +0.00 +0.00    +0.285 C  
DOCKED: ENDBRANCH  14  15
DOCKED: ENDBRANCH  13  14
DOCKED: ENDBRANCH  12  13
DOCKED: ENDBRANCH   2  12
DOCKED: BRANCH   2  18
DOCKED: ATOM     18  C   UNL     1     -32.222 -15.717   1.909 -0.12 +0.00    +0.006 A  
DOCKED: ATOM     19  C   UNL     1     -32.073 -16.305   0.654 -0.14 +0.00    +0.001 A  
DOCKED: ATOM     20  C   UNL     1     -32.930 -15.947  -0.388 -0.19 +0.00    +0.029 A  
DOCKED: ATOM     21  C   UNL     1     -33.933 -15.004  -0.173 -0.19 +0.00    +0.140 A  
DOCKED: ATOM     22  C   UNL     1     -34.082 -14.417   1.084 -0.19 +0.00    +0.029 A  
DOCKED: ATOM     23  F   UNL     1     -34.757 -14.662  -1.172 -0.14 -0.00    -0.204 F  
DOCKED: ATOM     24  C   UNL     1     -33.225 -14.774   2.126 -0.16 +0.00    +0.001 A  
DOCKED: ENDBRANCH   2  18
DOCKED: TORSDOF 5
DOCKED: TER
DOCKED: ENDMDL
________________________________________________________________________________


    FINAL DOCKED STATE:
    ________________________


Run:   84 / 512
Time taken for this run:   0.002s

DOCKED: MODEL        84
DOCKED: USER    Run = 84
DOCKED: USER
DOCKED: USER    Estimated Free Energy of Binding    =  -4.49 kcal/mol  [=(1)+(2)+(3)-(4)]
DOCKED: USER
DOCKED: USER    (1) Final Intermolecular Energy     =  -5.98 kcal/mol
DOCKED: USER        vdW + Hbond + desolv Energy     =  -5.98 kcal/mol
DOCKED: USER        Electrostatic Energy            =  +0.00 kcal/mol
DOCKED: USER        Moving Ligand-Fixed Receptor    =  -5.98 kcal/mol
DOCKED: USER        Moving Ligand-Moving Receptor   =  +0.00 kcal/mol
DOCKED: USER    (2) Final Total Internal Energy     =  -1.28 kcal/mol
DOCKED: USER    (3) Torsional Free Energy           =  +1.49 kcal/mol
DOCKED: USER    (4) Unbound System's Energy         =  -1.28 kcal/mol
DOCKED: USER
DOCKED: USER
DOCKED: REMARK  5 active torsions:
DOCKED: REMARK  status: ('A' for Active; 'I' for Inactive)
DOCKED: REMARK    1  A    between atoms: C_2  and  C_19 
DOCKED: REMARK    2  A    between atoms: C_2  and  C_11 
DOCKED: REMARK    3  A    between atoms: C_19  and  C_20 
DOCKED: REMARK    4  A    between atoms: C_20  and  C_21 
DOCKED: REMARK    5  A    between atoms: C_21  and  N_22 
DOCKED: USER                              x       y       z     vdW  Elec       q    Type
DOCKED: USER                           _______ _______ _______ _____ _____    ______ ____
DOCKED: ROOT
DOCKED: ATOM      1  O   UNL     1     -37.353 -10.250   4.649 -0.10 -0.00    -0.346 OA 
DOCKED: ATOM      2  C   UNL     1     -36.013 -10.102   4.080 -0.18 +0.00    +0.130 C  
DOCKED: ATOM      3  C   UNL     1     -36.257  -9.438   2.756 -0.25 +0.00    +0.004 A  
DOCKED: ATOM      4  C   UNL     1     -37.604  -9.132   2.628 -0.20 +0.00    +0.006 A  
DOCKED: ATOM      5  C   UNL     1     -38.333  -9.555   3.844 -0.02 +0.00    +0.169 C  
DOCKED: ATOM      6  C   UNL     1     -35.356  -9.119   1.750 -0.22 -0.00    -0.001 A  
DOCKED: ATOM      7  C   UNL     1     -38.097  -8.505   1.496 -0.30 +0.00    +0.008 A  
DOCKED: ATOM      8  C   UNL     1     -35.838  -8.490   0.600 -0.28 +0.00    +0.010 A  
DOCKED: ATOM      9  C   UNL     1     -37.201  -8.185   0.474 -0.32 +0.00    +0.068 A  
DOCKED: ATOM     10  N   UNL     1     -38.062  -7.013  -1.671 -2.43 -0.00    -0.191 NA 
DOCKED: ATOM     11  C   UNL     1     -37.676  -7.539  -0.709 -0.34 +0.00    +0.101 C  
DOCKED: ENDROOT
DOCKED: BRANCH   2  12
DOCKED: ATOM     12  C   UNL     1     -35.177  -9.249   5.027 -0.17 +0.00    +0.038 C  
DOCKED: BRANCH  12  13
DOCKED: ATOM     13  C   UNL     1     -33.716  -9.694   5.034 -0.11 +0.00    +0.038 C  
DOCKED: BRANCH  13  14
DOCKED: ATOM     14  C   UNL     1     -32.877  -8.840   4.085 -0.09 +0.00    +0.251 C  
DOCKED: BRANCH  14  15
DOCKED: ATOM     15  N   UNL     1     -31.825  -9.644   3.475 -0.02 +0.00    +0.141 N  
DOCKED: ATOM     16  C   UNL     1     -31.711 -10.940   4.146 -0.00 +0.00    +0.285 C  
DOCKED: ATOM     17  C   UNL     1     -32.084  -9.834   2.047 -0.01 +0.00    +0.285 C  
DOCKED: ENDBRANCH  14  15
DOCKED: ENDBRANCH  13  14
DOCKED: ENDBRANCH  12  13
DOCKED: ENDBRANCH   2  12
DOCKED: BRANCH   2  18
DOCKED: ATOM     18  C   UNL     1     -35.442 -11.475   3.945 -0.13 +0.00    +0.006 A  
DOCKED: ATOM     19  C   UNL     1     -34.910 -11.891   2.726 -0.15 +0.00    +0.001 A  
DOCKED: ATOM     20  C   UNL     1     -34.377 -13.175   2.601 -0.16 +0.00    +0.029 A  
DOCKED: ATOM     21  C   UNL     1     -34.376 -14.039   3.695 -0.15 +0.00    +0.140 A  
DOCKED: ATOM     22  C   UNL     1     -34.909 -13.621   4.915 -0.16 +0.00    +0.029 A  
DOCKED: ATOM     23  F   UNL     1     -33.863 -15.270   3.576 -0.07 -0.00    -0.204 F  
DOCKED: ATOM     24  C   UNL     1     -35.443 -12.337   5.040 -0.12 +0.00    +0.001 A  
DOCKED: ENDBRANCH   2  18
DOCKED: TORSDOF 5
DOCKED: TER
DOCKED: ENDMDL
________________________________________________________________________________


    FINAL DOCKED STATE:
    ________________________


Run:   85 / 512
Time taken for this run:   0.002s

DOCKED: MODEL        85
DOCKED: USER    Run = 85
DOCKED: USER
DOCKED: USER    Estimated Free Energy of Binding    =  -4.17 kcal/mol  [=(1)+(2)+(3)-(4)]
DOCKED: USER
DOCKED: USER    (1) Final Intermolecular Energy     =  -5.66 kcal/mol
DOCKED: USER        vdW + Hbond + desolv Energy     =  -5.66 kcal/mol
DOCKED: USER        Electrostatic Energy            =  +0.00 kcal/mol
DOCKED: USER        Moving Ligand-Fixed Receptor    =  -5.66 kcal/mol
DOCKED: USER        Moving Ligand-Moving Receptor   =  +0.00 kcal/mol
DOCKED: USER    (2) Final Total Internal Energy     =  -1.32 kcal/mol
DOCKED: USER    (3) Torsional Free Energy           =  +1.49 kcal/mol
DOCKED: USER    (4) Unbound System's Energy         =  -1.32 kcal/mol
DOCKED: USER
DOCKED: USER
DOCKED: REMARK  5 active torsions:
DOCKED: REMARK  status: ('A' for Active; 'I' for Inactive)
DOCKED: REMARK    1  A    between atoms: C_2  and  C_19 
DOCKED: REMARK    2  A    between atoms: C_2  and  C_11 
DOCKED: REMARK    3  A    between atoms: C_19  and  C_20 
DOCKED: REMARK    4  A    between atoms: C_20  and  C_21 
DOCKED: REMARK    5  A    between atoms: C_21  and  N_22 
DOCKED: USER                              x       y       z     vdW  Elec       q    Type
DOCKED: USER                           _______ _______ _______ _____ _____    ______ ____
DOCKED: ROOT
DOCKED: ATOM      1  O   UNL     1     -37.114 -15.046  11.609 -0.05 -0.00    -0.346 OA 
DOCKED: ATOM      2  C   UNL     1     -38.406 -14.535  11.148 -0.12 +0.00    +0.130 C  
DOCKED: ATOM      3  C   UNL     1     -39.070 -15.734  10.536 -0.23 +0.00    +0.004 A  
DOCKED: ATOM      4  C   UNL     1     -38.276 -16.856  10.729 -0.24 +0.00    +0.006 A  
DOCKED: ATOM      5  C   UNL     1     -37.057 -16.486  11.481 -0.15 +0.00    +0.169 C  
DOCKED: ATOM      6  C   UNL     1     -40.284 -15.827   9.872 -0.26 -0.00    -0.001 A  
DOCKED: ATOM      7  C   UNL     1     -38.664 -18.101  10.264 -0.32 +0.00    +0.008 A  
DOCKED: ATOM      8  C   UNL     1     -40.687 -17.075   9.393 -0.26 +0.00    +0.010 A  
DOCKED: ATOM      9  C   UNL     1     -39.881 -18.206   9.589 -0.30 +0.00    +0.068 A  
DOCKED: ATOM     10  N   UNL     1     -40.661 -20.509   8.693 -2.60 -0.00    -0.191 NA 
DOCKED: ATOM     11  C   UNL     1     -40.311 -19.476   9.094 -0.33 +0.00    +0.101 C  
DOCKED: ENDROOT
DOCKED: BRANCH   2  12
DOCKED: ATOM     12  C   UNL     1     -39.165 -13.985  12.350 -0.05 +0.00    +0.038 C  
DOCKED: BRANCH  12  13
DOCKED: ATOM     13  C   UNL     1     -38.382 -12.870  13.040 -0.02 +0.00    +0.038 C  
DOCKED: BRANCH  13  14
DOCKED: ATOM     14  C   UNL     1     -37.443 -13.435  14.105 -0.00 +0.00    +0.251 C  
DOCKED: BRANCH  14  15
DOCKED: ATOM     15  N   UNL     1     -36.090 -12.927  13.910 -0.00 +0.00    +0.141 N  
DOCKED: ATOM     16  C   UNL     1     -36.121 -11.598  13.298 -0.00 +0.00    +0.285 C  
DOCKED: ATOM     17  C   UNL     1     -35.367 -12.884  15.182 -0.00 +0.00    +0.285 C  
DOCKED: ENDBRANCH  14  15
DOCKED: ENDBRANCH  13  14
DOCKED: ENDBRANCH  12  13
DOCKED: ENDBRANCH   2  12
DOCKED: BRANCH   2  18
DOCKED: ATOM     18  C   UNL     1     -38.119 -13.459  10.154 -0.15 +0.00    +0.006 A  
DOCKED: ATOM     19  C   UNL     1     -39.034 -12.423   9.966 -0.14 +0.00    +0.001 A  
DOCKED: ATOM     20  C   UNL     1     -38.764 -11.418   9.036 -0.12 +0.00    +0.029 A  
DOCKED: ATOM     21  C   UNL     1     -37.583 -11.449   8.297 -0.06 +0.00    +0.140 A  
DOCKED: ATOM     22  C   UNL     1     -36.668 -12.485   8.487 -0.10 +0.00    +0.029 A  
DOCKED: ATOM     23  F   UNL     1     -37.324 -10.483   7.407 -0.02 -0.00    -0.204 F  
DOCKED: ATOM     24  C   UNL     1     -36.937 -13.491   9.416 -0.16 +0.00    +0.001 A  
DOCKED: ENDBRANCH   2  18
DOCKED: TORSDOF 5
DOCKED: TER
DOCKED: ENDMDL
________________________________________________________________________________


    FINAL DOCKED STATE:
    ________________________


Run:   86 / 512
Time taken for this run:   0.002s

DOCKED: MODEL        86
DOCKED: USER    Run = 86
DOCKED: USER
DOCKED: USER    Estimated Free Energy of Binding    =  -4.02 kcal/mol  [=(1)+(2)+(3)-(4)]
DOCKED: USER
DOCKED: USER    (1) Final Intermolecular Energy     =  -5.51 kcal/mol
DOCKED: USER        vdW + Hbond + desolv Energy     =  -5.51 kcal/mol
DOCKED: USER        Electrostatic Energy            =  +0.00 kcal/mol
DOCKED: USER        Moving Ligand-Fixed Receptor    =  -5.51 kcal/mol
DOCKED: USER        Moving Ligand-Moving Receptor   =  +0.00 kcal/mol
DOCKED: USER    (2) Final Total Internal Energy     =  -1.06 kcal/mol
DOCKED: USER    (3) Torsional Free Energy           =  +1.49 kcal/mol
DOCKED: USER    (4) Unbound System's Energy         =  -1.06 kcal/mol
DOCKED: USER
DOCKED: USER
DOCKED: REMARK  5 active torsions:
DOCKED: REMARK  status: ('A' for Active; 'I' for Inactive)
DOCKED: REMARK    1  A    between atoms: C_2  and  C_19 
DOCKED: REMARK    2  A    between atoms: C_2  and  C_11 
DOCKED: REMARK    3  A    between atoms: C_19  and  C_20 
DOCKED: REMARK    4  A    between atoms: C_20  and  C_21 
DOCKED: REMARK    5  A    between atoms: C_21  and  N_22 
DOCKED: USER                              x       y       z     vdW  Elec       q    Type
DOCKED: USER                           _______ _______ _______ _____ _____    ______ ____
DOCKED: ROOT
DOCKED: ATOM      1  O   UNL     1     -37.622 -16.658  13.376 -0.02 -0.00    -0.346 OA 
DOCKED: ATOM      2  C   UNL     1     -37.708 -15.836  12.168 -0.10 +0.00    +0.130 C  
DOCKED: ATOM      3  C   UNL     1     -38.412 -16.720  11.180 -0.20 +0.00    +0.004 A  
DOCKED: ATOM      4  C   UNL     1     -38.794 -17.901  11.801 -0.20 +0.00    +0.006 A  
DOCKED: ATOM      5  C   UNL     1     -38.387 -17.876  13.224 -0.11 +0.00    +0.169 C  
DOCKED: ATOM      6  C   UNL     1     -38.702 -16.493   9.843 -0.26 -0.00    -0.001 A  
DOCKED: ATOM      7  C   UNL     1     -39.470 -18.892  11.110 -0.28 +0.00    +0.008 A  
DOCKED: ATOM      8  C   UNL     1     -39.380 -17.485   9.131 -0.34 +0.00    +0.010 A  
DOCKED: ATOM      9  C   UNL     1     -39.762 -18.678   9.762 -0.31 +0.00    +0.068 A  
DOCKED: ATOM     10  N   UNL     1     -41.024 -20.495   8.414 -2.39 -0.00    -0.191 NA 
DOCKED: ATOM     11  C   UNL     1     -40.457 -19.680   9.018 -0.27 +0.00    +0.101 C  
DOCKED: ENDROOT
DOCKED: BRANCH   2  12
DOCKED: ATOM     12  C   UNL     1     -38.493 -14.572  12.499 -0.05 +0.00    +0.038 C  
DOCKED: BRANCH  12  13
DOCKED: ATOM     13  C   UNL     1     -39.482 -14.225  11.388 -0.11 +0.00    +0.038 C  
DOCKED: BRANCH  13  14
DOCKED: ATOM     14  C   UNL     1     -40.862 -13.906  11.961 -0.04 +0.00    +0.251 C  
DOCKED: BRANCH  14  15
DOCKED: ATOM     15  N   UNL     1     -41.795 -14.987  11.666 -0.07 +0.00    +0.141 N  
DOCKED: ATOM     16  C   UNL     1     -43.090 -14.739  12.302 -0.02 +0.00    +0.285 C  
DOCKED: ATOM     17  C   UNL     1     -41.962 -15.145  10.220 -0.14 +0.00    +0.285 C  
DOCKED: ENDBRANCH  14  15
DOCKED: ENDBRANCH  13  14
DOCKED: ENDBRANCH  12  13
DOCKED: ENDBRANCH   2  12
DOCKED: BRANCH   2  18
DOCKED: ATOM     18  C   UNL     1     -36.309 -15.509  11.762 -0.12 +0.00    +0.006 A  
DOCKED: ATOM     19  C   UNL     1     -35.350 -16.518  11.695 -0.14 +0.00    +0.001 A  
DOCKED: ATOM     20  C   UNL     1     -34.042 -16.211  11.316 -0.12 +0.00    +0.029 A  
DOCKED: ATOM     21  C   UNL     1     -33.697 -14.897  11.004 -0.06 +0.00    +0.140 A  
DOCKED: ATOM     22  C   UNL     1     -34.657 -13.889  11.071 -0.06 +0.00    +0.029 A  
DOCKED: ATOM     23  F   UNL     1     -32.442 -14.604  10.638 -0.01 -0.00    -0.204 F  
DOCKED: ATOM     24  C   UNL     1     -35.965 -14.194  11.451 -0.08 +0.00    +0.001 A  
DOCKED: ENDBRANCH   2  18
DOCKED: TORSDOF 5
DOCKED: TER
DOCKED: ENDMDL
________________________________________________________________________________


    FINAL DOCKED STATE:
    ________________________


Run:   87 / 512
Time taken for this run:   0.002s

DOCKED: MODEL        87
DOCKED: USER    Run = 87
DOCKED: USER
DOCKED: USER    Estimated Free Energy of Binding    =  -4.48 kcal/mol  [=(1)+(2)+(3)-(4)]
DOCKED: USER
DOCKED: USER    (1) Final Intermolecular Energy     =  -5.97 kcal/mol
DOCKED: USER        vdW + Hbond + desolv Energy     =  -5.97 kcal/mol
DOCKED: USER        Electrostatic Energy            =  +0.00 kcal/mol
DOCKED: USER        Moving Ligand-Fixed Receptor    =  -5.97 kcal/mol
DOCKED: USER        Moving Ligand-Moving Receptor   =  +0.00 kcal/mol
DOCKED: USER    (2) Final Total Internal Energy     =  -1.54 kcal/mol
DOCKED: USER    (3) Torsional Free Energy           =  +1.49 kcal/mol
DOCKED: USER    (4) Unbound System's Energy         =  -1.54 kcal/mol
DOCKED: USER
DOCKED: USER
DOCKED: REMARK  5 active torsions:
DOCKED: REMARK  status: ('A' for Active; 'I' for Inactive)
DOCKED: REMARK    1  A    between atoms: C_2  and  C_19 
DOCKED: REMARK    2  A    between atoms: C_2  and  C_11 
DOCKED: REMARK    3  A    between atoms: C_19  and  C_20 
DOCKED: REMARK    4  A    between atoms: C_20  and  C_21 
DOCKED: REMARK    5  A    between atoms: C_21  and  N_22 
DOCKED: USER                              x       y       z     vdW  Elec       q    Type
DOCKED: USER                           _______ _______ _______ _____ _____    ______ ____
DOCKED: ROOT
DOCKED: ATOM      1  O   UNL     1     -42.065 -17.220  11.660 -0.00 -0.00    -0.346 OA 
DOCKED: ATOM      2  C   UNL     1     -40.694 -16.886  11.272 -0.12 +0.00    +0.130 C  
DOCKED: ATOM      3  C   UNL     1     -40.584 -17.398   9.865 -0.27 +0.00    +0.004 A  
DOCKED: ATOM      4  C   UNL     1     -41.816 -17.882   9.446 -0.28 +0.00    +0.006 A  
DOCKED: ATOM      5  C   UNL     1     -42.814 -17.715  10.526 -0.16 +0.00    +0.169 C  
DOCKED: ATOM      6  C   UNL     1     -39.485 -17.424   9.018 -0.35 -0.00    -0.001 A  
DOCKED: ATOM      7  C   UNL     1     -41.990 -18.409   8.178 -0.31 +0.00    +0.008 A  
DOCKED: ATOM      8  C   UNL     1     -39.644 -17.955   7.738 -0.06 +0.00    +0.010 A  
DOCKED: ATOM      9  C   UNL     1     -40.891 -18.445   7.320 -0.37 +0.00    +0.068 A  
DOCKED: ATOM     10  N   UNL     1     -41.152 -19.421   4.934 -2.64 -0.00    -0.191 NA 
DOCKED: ATOM     11  C   UNL     1     -41.035 -18.984   6.004 -0.29 +0.00    +0.101 C  
DOCKED: ENDROOT
DOCKED: BRANCH   2  12
DOCKED: ATOM     12  C   UNL     1     -40.519 -15.375  11.369 -0.14 +0.00    +0.038 C  
DOCKED: BRANCH  12  13
DOCKED: ATOM     13  C   UNL     1     -41.715 -14.719  12.056 -0.08 +0.00    +0.038 C  
DOCKED: BRANCH  13  14
DOCKED: ATOM     14  C   UNL     1     -41.634 -14.884  13.573 -0.01 +0.00    +0.251 C  
DOCKED: BRANCH  14  15
DOCKED: ATOM     15  N   UNL     1     -42.461 -16.004  14.006 -0.02 +0.00    +0.141 N  
DOCKED: ATOM     16  C   UNL     1     -42.113 -16.405  15.370 +0.00 +0.00    +0.285 C  
DOCKED: ATOM     17  C   UNL     1     -43.881 -15.659  13.924 +0.00 +0.00    +0.285 C  
DOCKED: ENDBRANCH  14  15
DOCKED: ENDBRANCH  13  14
DOCKED: ENDBRANCH  12  13
DOCKED: ENDBRANCH   2  12
DOCKED: BRANCH   2  18
DOCKED: ATOM     18  C   UNL     1     -39.786 -17.595  12.221 -0.12 +0.00    +0.006 A  
DOCKED: ATOM     19  C   UNL     1     -40.150 -18.839  12.735 -0.19 +0.00    +0.001 A  
DOCKED: ATOM     20  C   UNL     1     -39.301 -19.501  13.622 -0.22 +0.00    +0.029 A  
DOCKED: ATOM     21  C   UNL     1     -38.090 -18.919  13.994 -0.08 +0.00    +0.140 A  
DOCKED: ATOM     22  C   UNL     1     -37.727 -17.674  13.480 -0.12 +0.00    +0.029 A  
DOCKED: ATOM     23  F   UNL     1     -37.274 -19.555  14.845 -0.04 -0.00    -0.204 F  
DOCKED: ATOM     24  C   UNL     1     -38.576 -17.011  12.592 -0.11 +0.00    +0.001 A  
DOCKED: ENDBRANCH   2  18
DOCKED: TORSDOF 5
DOCKED: TER
DOCKED: ENDMDL
________________________________________________________________________________


    FINAL DOCKED STATE:
    ________________________


Run:   88 / 512
Time taken for this run:   0.002s

DOCKED: MODEL        88
DOCKED: USER    Run = 88
DOCKED: USER
DOCKED: USER    Estimated Free Energy of Binding    =  -4.02 kcal/mol  [=(1)+(2)+(3)-(4)]
DOCKED: USER
DOCKED: USER    (1) Final Intermolecular Energy     =  -5.52 kcal/mol
DOCKED: USER        vdW + Hbond + desolv Energy     =  -5.52 kcal/mol
DOCKED: USER        Electrostatic Energy            =  +0.00 kcal/mol
DOCKED: USER        Moving Ligand-Fixed Receptor    =  -5.52 kcal/mol
DOCKED: USER        Moving Ligand-Moving Receptor   =  +0.00 kcal/mol
DOCKED: USER    (2) Final Total Internal Energy     =  -1.45 kcal/mol
DOCKED: USER    (3) Torsional Free Energy           =  +1.49 kcal/mol
DOCKED: USER    (4) Unbound System's Energy         =  -1.45 kcal/mol
DOCKED: USER
DOCKED: USER
DOCKED: REMARK  5 active torsions:
DOCKED: REMARK  status: ('A' for Active; 'I' for Inactive)
DOCKED: REMARK    1  A    between atoms: C_2  and  C_19 
DOCKED: REMARK    2  A    between atoms: C_2  and  C_11 
DOCKED: REMARK    3  A    between atoms: C_19  and  C_20 
DOCKED: REMARK    4  A    between atoms: C_20  and  C_21 
DOCKED: REMARK    5  A    between atoms: C_21  and  N_22 
DOCKED: USER                              x       y       z     vdW  Elec       q    Type
DOCKED: USER                           _______ _______ _______ _____ _____    ______ ____
DOCKED: ROOT
DOCKED: ATOM      1  O   UNL     1     -41.596 -18.721  13.348 -0.03 -0.00    -0.346 OA 
DOCKED: ATOM      2  C   UNL     1     -40.327 -18.026  13.131 -0.10 +0.00    +0.130 C  
DOCKED: ATOM      3  C   UNL     1     -40.034 -18.256  11.677 -0.18 +0.00    +0.004 A  
DOCKED: ATOM      4  C   UNL     1     -41.095 -18.929  11.088 -0.22 +0.00    +0.006 A  
DOCKED: ATOM      5  C   UNL     1     -42.153 -19.176  12.093 -0.15 +0.00    +0.169 C  
DOCKED: ATOM      6  C   UNL     1     -38.922 -17.890  10.932 -0.27 -0.00    -0.001 A  
DOCKED: ATOM      7  C   UNL     1     -41.081 -19.261   9.744 -0.27 +0.00    +0.008 A  
DOCKED: ATOM      8  C   UNL     1     -38.891 -18.222   9.577 -0.34 +0.00    +0.010 A  
DOCKED: ATOM      9  C   UNL     1     -39.965 -18.903   8.986 -0.37 +0.00    +0.068 A  
DOCKED: ATOM     10  N   UNL     1     -39.877 -19.499   6.466 -1.54 -0.00    -0.191 NA 
DOCKED: ATOM     11  C   UNL     1     -39.916 -19.232   7.596 -0.50 +0.00    +0.101 C  
DOCKED: ENDROOT
DOCKED: BRANCH   2  12
DOCKED: ATOM     12  C   UNL     1     -40.520 -16.553  13.471 -0.05 +0.00    +0.038 C  
DOCKED: BRANCH  12  13
DOCKED: ATOM     13  C   UNL     1     -41.965 -16.113  13.245 -0.05 +0.00    +0.038 C  
DOCKED: BRANCH  13  14
DOCKED: ATOM     14  C   UNL     1     -42.034 -14.921  12.293 -0.03 +0.00    +0.251 C  
DOCKED: BRANCH  14  15
DOCKED: ATOM     15  N   UNL     1     -41.550 -15.299  10.971 -0.13 +0.00    +0.141 N  
DOCKED: ATOM     16  C   UNL     1     -42.656 -15.749  10.125 -0.08 +0.00    +0.285 C  
DOCKED: ATOM     17  C   UNL     1     -40.851 -14.179  10.338 -0.16 +0.00    +0.285 C  
DOCKED: ENDBRANCH  14  15
DOCKED: ENDBRANCH  13  14
DOCKED: ENDBRANCH  12  13
DOCKED: ENDBRANCH   2  12
DOCKED: BRANCH   2  18
DOCKED: ATOM     18  C   UNL     1     -39.322 -18.660  14.035 -0.16 +0.00    +0.006 A  
DOCKED: ATOM     19  C   UNL     1     -39.652 -19.816  14.741 -0.17 +0.00    +0.001 A  
DOCKED: ATOM     20  C   UNL     1     -38.711 -20.407  15.585 -0.26 +0.00    +0.029 A  
DOCKED: ATOM     21  C   UNL     1     -37.444 -19.843  15.722 -0.15 +0.00    +0.140 A  
DOCKED: ATOM     22  C   UNL     1     -37.115 -18.686  15.015 -0.13 +0.00    +0.029 A  
DOCKED: ATOM     23  F   UNL     1     -36.541 -20.412  16.531 -0.06 -0.00    -0.204 F  
DOCKED: ATOM     24  C   UNL     1     -38.055 -18.093  14.171 -0.13 +0.00    +0.001 A  
DOCKED: ENDBRANCH   2  18
DOCKED: TORSDOF 5
DOCKED: TER
DOCKED: ENDMDL
________________________________________________________________________________


    FINAL DOCKED STATE:
    ________________________


Run:   89 / 512
Time taken for this run:   0.002s

DOCKED: MODEL        89
DOCKED: USER    Run = 89
DOCKED: USER
DOCKED: USER    Estimated Free Energy of Binding    =  -4.38 kcal/mol  [=(1)+(2)+(3)-(4)]
DOCKED: USER
DOCKED: USER    (1) Final Intermolecular Energy     =  -5.87 kcal/mol
DOCKED: USER        vdW + Hbond + desolv Energy     =  -5.87 kcal/mol
DOCKED: USER        Electrostatic Energy            =  +0.00 kcal/mol
DOCKED: USER        Moving Ligand-Fixed Receptor    =  -5.87 kcal/mol
DOCKED: USER        Moving Ligand-Moving Receptor   =  +0.00 kcal/mol
DOCKED: USER    (2) Final Total Internal Energy     =  -1.36 kcal/mol
DOCKED: USER    (3) Torsional Free Energy           =  +1.49 kcal/mol
DOCKED: USER    (4) Unbound System's Energy         =  -1.36 kcal/mol
DOCKED: USER
DOCKED: USER
DOCKED: REMARK  5 active torsions:
DOCKED: REMARK  status: ('A' for Active; 'I' for Inactive)
DOCKED: REMARK    1  A    between atoms: C_2  and  C_19 
DOCKED: REMARK    2  A    between atoms: C_2  and  C_11 
DOCKED: REMARK    3  A    between atoms: C_19  and  C_20 
DOCKED: REMARK    4  A    between atoms: C_20  and  C_21 
DOCKED: REMARK    5  A    between atoms: C_21  and  N_22 
DOCKED: USER                              x       y       z     vdW  Elec       q    Type
DOCKED: USER                           _______ _______ _______ _____ _____    ______ ____
DOCKED: ROOT
DOCKED: ATOM      1  O   UNL     1     -36.750 -15.988  12.236 -0.05 -0.00    -0.346 OA 
DOCKED: ATOM      2  C   UNL     1     -37.623 -15.186  11.377 -0.12 +0.00    +0.130 C  
DOCKED: ATOM      3  C   UNL     1     -38.388 -16.208  10.588 -0.23 +0.00    +0.004 A  
DOCKED: ATOM      4  C   UNL     1     -38.064 -17.481  11.033 -0.26 +0.00    +0.006 A  
DOCKED: ATOM      5  C   UNL     1     -37.085 -17.392  12.140 -0.16 +0.00    +0.169 C  
DOCKED: ATOM      6  C   UNL     1     -39.307 -16.024   9.565 -0.28 -0.00    -0.001 A  
DOCKED: ATOM      7  C   UNL     1     -38.639 -18.609  10.472 -0.35 +0.00    +0.008 A  
DOCKED: ATOM      8  C   UNL     1     -39.893 -17.152   8.986 -0.34 +0.00    +0.010 A  
DOCKED: ATOM      9  C   UNL     1     -39.560 -18.438   9.438 -0.33 +0.00    +0.068 A  
DOCKED: ATOM     10  N   UNL     1     -40.669 -20.509   8.346 -2.38 -0.00    -0.191 NA 
DOCKED: ATOM     11  C   UNL     1     -40.171 -19.580   8.836 -0.38 +0.00    +0.101 C  
DOCKED: ENDROOT
DOCKED: BRANCH   2  12
DOCKED: ATOM     12  C   UNL     1     -38.518 -14.329  12.265 -0.06 +0.00    +0.038 C  
DOCKED: BRANCH  12  13
DOCKED: ATOM     13  C   UNL     1     -39.665 -15.148  12.854 -0.05 +0.00    +0.038 C  
DOCKED: BRANCH  13  14
DOCKED: ATOM     14  C   UNL     1     -40.995 -14.782  12.198 -0.03 +0.00    +0.251 C  
DOCKED: BRANCH  14  15
DOCKED: ATOM     15  N   UNL     1     -41.707 -15.987  11.790 -0.06 +0.00    +0.141 N  
DOCKED: ATOM     16  C   UNL     1     -42.505 -16.515  12.898 -0.00 +0.00    +0.285 C  
DOCKED: ATOM     17  C   UNL     1     -42.562 -15.714  10.633 -0.12 +0.00    +0.285 C  
DOCKED: ENDBRANCH  14  15
DOCKED: ENDBRANCH  13  14
DOCKED: ENDBRANCH  12  13
DOCKED: ENDBRANCH   2  12
DOCKED: BRANCH   2  18
DOCKED: ATOM     18  C   UNL     1     -36.737 -14.338  10.527 -0.14 +0.00    +0.006 A  
DOCKED: ATOM     19  C   UNL     1     -35.355 -14.514  10.568 -0.11 +0.00    +0.001 A  
DOCKED: ATOM     20  C   UNL     1     -34.528 -13.720   9.772 -0.09 +0.00    +0.029 A  
DOCKED: ATOM     21  C   UNL     1     -35.084 -12.752   8.938 -0.07 +0.00    +0.140 A  
DOCKED: ATOM     22  C   UNL     1     -36.467 -12.576   8.897 -0.11 +0.00    +0.029 A  
DOCKED: ATOM     23  F   UNL     1     -34.290 -11.991   8.173 -0.00 -0.00    -0.204 F  
DOCKED: ATOM     24  C   UNL     1     -37.295 -13.369   9.693 -0.15 +0.00    +0.001 A  
DOCKED: ENDBRANCH   2  18
DOCKED: TORSDOF 5
DOCKED: TER
DOCKED: ENDMDL
________________________________________________________________________________


    FINAL DOCKED STATE:
    ________________________


Run:   90 / 512
Time taken for this run:   0.002s

DOCKED: MODEL        90
DOCKED: USER    Run = 90
DOCKED: USER
DOCKED: USER    Estimated Free Energy of Binding    =  -3.92 kcal/mol  [=(1)+(2)+(3)-(4)]
DOCKED: USER
DOCKED: USER    (1) Final Intermolecular Energy     =  -5.41 kcal/mol
DOCKED: USER        vdW + Hbond + desolv Energy     =  -5.41 kcal/mol
DOCKED: USER        Electrostatic Energy            =  +0.00 kcal/mol
DOCKED: USER        Moving Ligand-Fixed Receptor    =  -5.41 kcal/mol
DOCKED: USER        Moving Ligand-Moving Receptor   =  +0.00 kcal/mol
DOCKED: USER    (2) Final Total Internal Energy     =  -1.29 kcal/mol
DOCKED: USER    (3) Torsional Free Energy           =  +1.49 kcal/mol
DOCKED: USER    (4) Unbound System's Energy         =  -1.29 kcal/mol
DOCKED: USER
DOCKED: USER
DOCKED: REMARK  5 active torsions:
DOCKED: REMARK  status: ('A' for Active; 'I' for Inactive)
DOCKED: REMARK    1  A    between atoms: C_2  and  C_19 
DOCKED: REMARK    2  A    between atoms: C_2  and  C_11 
DOCKED: REMARK    3  A    between atoms: C_19  and  C_20 
DOCKED: REMARK    4  A    between atoms: C_20  and  C_21 
DOCKED: REMARK    5  A    between atoms: C_21  and  N_22 
DOCKED: USER                              x       y       z     vdW  Elec       q    Type
DOCKED: USER                           _______ _______ _______ _____ _____    ______ ____
DOCKED: ROOT
DOCKED: ATOM      1  O   UNL     1     -34.823 -10.135   3.807 -0.04 -0.00    -0.346 OA 
DOCKED: ATOM      2  C   UNL     1     -36.232 -10.219   3.422 -0.22 +0.00    +0.130 C  
DOCKED: ATOM      3  C   UNL     1     -36.347  -9.267   2.266 -0.28 +0.00    +0.004 A  
DOCKED: ATOM      4  C   UNL     1     -35.092  -8.767   1.947 -0.19 +0.00    +0.006 A  
DOCKED: ATOM      5  C   UNL     1     -34.074  -9.354   2.847 -0.11 +0.00    +0.169 C  
DOCKED: ATOM      6  C   UNL     1     -37.469  -8.883   1.548 -0.31 -0.00    -0.001 A  
DOCKED: ATOM      7  C   UNL     1     -34.917  -7.869   0.908 -0.21 +0.00    +0.008 A  
DOCKED: ATOM      8  C   UNL     1     -37.310  -7.975   0.500 -0.41 +0.00    +0.010 A  
DOCKED: ATOM      9  C   UNL     1     -36.040  -7.471   0.182 -0.31 +0.00    +0.068 A  
DOCKED: ATOM     10  N   UNL     1     -35.779  -5.789  -1.772 -0.78 -0.00    -0.191 NA 
DOCKED: ATOM     11  C   UNL     1     -35.896  -6.543  -0.895 -0.37 +0.00    +0.101 C  
DOCKED: ENDROOT
DOCKED: BRANCH   2  12
DOCKED: ATOM     12  C   UNL     1     -36.543 -11.660   3.036 -0.19 +0.00    +0.038 C  
DOCKED: BRANCH  12  13
DOCKED: ATOM     13  C   UNL     1     -35.445 -12.612   3.509 -0.19 +0.00    +0.038 C  
DOCKED: BRANCH  13  14
DOCKED: ATOM     14  C   UNL     1     -36.007 -13.672   4.454 -0.19 +0.00    +0.251 C  
DOCKED: BRANCH  14  15
DOCKED: ATOM     15  N   UNL     1     -35.307 -13.634   5.733 -0.14 +0.00    +0.141 N  
DOCKED: ATOM     16  C   UNL     1     -34.577 -14.882   5.959 -0.12 +0.00    +0.285 C  
DOCKED: ATOM     17  C   UNL     1     -34.391 -12.493   5.786 -0.03 +0.00    +0.285 C  
DOCKED: ENDBRANCH  14  15
DOCKED: ENDBRANCH  13  14
DOCKED: ENDBRANCH  12  13
DOCKED: ENDBRANCH   2  12
DOCKED: BRANCH   2  18
DOCKED: ATOM     18  C   UNL     1     -37.034  -9.794   4.607 -0.26 +0.00    +0.006 A  
DOCKED: ATOM     19  C   UNL     1     -38.409 -10.022   4.635 -0.29 +0.00    +0.001 A  
DOCKED: ATOM     20  C   UNL     1     -39.158  -9.624   5.744 -0.26 +0.00    +0.029 A  
DOCKED: ATOM     21  C   UNL     1     -38.531  -8.999   6.821 -0.14 +0.00    +0.140 A  
DOCKED: ATOM     22  C   UNL     1     -37.155  -8.772   6.791 -0.19 +0.00    +0.029 A  
DOCKED: ATOM     23  F   UNL     1     -39.249  -8.619   7.885 -0.00 -0.00    -0.204 F  
DOCKED: ATOM     24  C   UNL     1     -36.406  -9.169   5.683 -0.20 +0.00    +0.001 A  
DOCKED: ENDBRANCH   2  18
DOCKED: TORSDOF 5
DOCKED: TER
DOCKED: ENDMDL
________________________________________________________________________________


    FINAL DOCKED STATE:
    ________________________


Run:   91 / 512
Time taken for this run:   0.002s

DOCKED: MODEL        91
DOCKED: USER    Run = 91
DOCKED: USER
DOCKED: USER    Estimated Free Energy of Binding    =  -3.58 kcal/mol  [=(1)+(2)+(3)-(4)]
DOCKED: USER
DOCKED: USER    (1) Final Intermolecular Energy     =  -5.07 kcal/mol
DOCKED: USER        vdW + Hbond + desolv Energy     =  -5.07 kcal/mol
DOCKED: USER        Electrostatic Energy            =  +0.00 kcal/mol
DOCKED: USER        Moving Ligand-Fixed Receptor    =  -5.07 kcal/mol
DOCKED: USER        Moving Ligand-Moving Receptor   =  +0.00 kcal/mol
DOCKED: USER    (2) Final Total Internal Energy     =  -1.43 kcal/mol
DOCKED: USER    (3) Torsional Free Energy           =  +1.49 kcal/mol
DOCKED: USER    (4) Unbound System's Energy         =  -1.43 kcal/mol
DOCKED: USER
DOCKED: USER
DOCKED: REMARK  5 active torsions:
DOCKED: REMARK  status: ('A' for Active; 'I' for Inactive)
DOCKED: REMARK    1  A    between atoms: C_2  and  C_19 
DOCKED: REMARK    2  A    between atoms: C_2  and  C_11 
DOCKED: REMARK    3  A    between atoms: C_19  and  C_20 
DOCKED: REMARK    4  A    between atoms: C_20  and  C_21 
DOCKED: REMARK    5  A    between atoms: C_21  and  N_22 
DOCKED: USER                              x       y       z     vdW  Elec       q    Type
DOCKED: USER                           _______ _______ _______ _____ _____    ______ ____
DOCKED: ROOT
DOCKED: ATOM      1  O   UNL     1     -38.485 -14.765  11.931 -0.02 -0.00    -0.346 OA 
DOCKED: ATOM      2  C   UNL     1     -39.888 -14.979  12.287 -0.05 +0.00    +0.130 C  
DOCKED: ATOM      3  C   UNL     1     -40.285 -16.182  11.481 -0.12 +0.00    +0.004 A  
DOCKED: ATOM      4  C   UNL     1     -39.178 -16.678  10.808 -0.22 +0.00    +0.006 A  
DOCKED: ATOM      5  C   UNL     1     -37.986 -15.860  11.127 -0.15 +0.00    +0.169 C  
DOCKED: ATOM      6  C   UNL     1     -41.524 -16.794  11.361 -0.13 -0.00    -0.001 A  
DOCKED: ATOM      7  C   UNL     1     -39.270 -17.794   9.993 -0.32 +0.00    +0.008 A  
DOCKED: ATOM      8  C   UNL     1     -41.634 -17.917  10.541 -0.20 +0.00    +0.010 A  
DOCKED: ATOM      9  C   UNL     1     -40.513 -18.415   9.861 -0.25 +0.00    +0.068 A  
DOCKED: ATOM     10  N   UNL     1     -40.752 -20.506   8.349 -2.38 -0.00    -0.191 NA 
DOCKED: ATOM     11  C   UNL     1     -40.645 -19.568   9.026 -0.32 +0.00    +0.101 C  
DOCKED: ENDROOT
DOCKED: BRANCH   2  12
DOCKED: ATOM     12  C   UNL     1     -39.973 -15.218  13.790 -0.02 +0.00    +0.038 C  
DOCKED: BRANCH  12  13
DOCKED: ATOM     13  C   UNL     1     -38.774 -16.020  14.295 -0.03 +0.00    +0.038 C  
DOCKED: BRANCH  13  14
DOCKED: ATOM     14  C   UNL     1     -39.203 -17.405  14.775 -0.03 +0.00    +0.251 C  
DOCKED: BRANCH  14  15
DOCKED: ATOM     15  N   UNL     1     -38.352 -18.432  14.185 -0.11 +0.00    +0.141 N  
DOCKED: ATOM     16  C   UNL     1     -39.100 -19.221  13.206 -0.14 +0.00    +0.285 C  
DOCKED: ATOM     17  C   UNL     1     -37.175 -17.828  13.558 -0.06 +0.00    +0.285 C  
DOCKED: ENDBRANCH  14  15
DOCKED: ENDBRANCH  13  14
DOCKED: ENDBRANCH  12  13
DOCKED: ENDBRANCH   2  12
DOCKED: BRANCH   2  18
DOCKED: ATOM     18  C   UNL     1     -40.631 -13.745  11.896 -0.07 +0.00    +0.006 A  
DOCKED: ATOM     19  C   UNL     1     -40.708 -13.375  10.554 -0.19 +0.00    +0.001 A  
DOCKED: ATOM     20  C   UNL     1     -41.402 -12.221  10.189 -0.18 +0.00    +0.029 A  
DOCKED: ATOM     21  C   UNL     1     -42.018 -11.440  11.166 -0.05 +0.00    +0.140 A  
DOCKED: ATOM     22  C   UNL     1     -41.941 -11.811  12.508 -0.02 +0.00    +0.029 A  
DOCKED: ATOM     23  F   UNL     1     -42.686 -10.333  10.815 +0.00 -0.00    -0.204 F  
DOCKED: ATOM     24  C   UNL     1     -41.246 -12.965  12.874 -0.03 +0.00    +0.001 A  
DOCKED: ENDBRANCH   2  18
DOCKED: TORSDOF 5
DOCKED: TER
DOCKED: ENDMDL
________________________________________________________________________________


    FINAL DOCKED STATE:
    ________________________


Run:   92 / 512
Time taken for this run:   0.002s

DOCKED: MODEL        92
DOCKED: USER    Run = 92
DOCKED: USER
DOCKED: USER    Estimated Free Energy of Binding    =  -4.13 kcal/mol  [=(1)+(2)+(3)-(4)]
DOCKED: USER
DOCKED: USER    (1) Final Intermolecular Energy     =  -5.62 kcal/mol
DOCKED: USER        vdW + Hbond + desolv Energy     =  -5.62 kcal/mol
DOCKED: USER        Electrostatic Energy            =  +0.00 kcal/mol
DOCKED: USER        Moving Ligand-Fixed Receptor    =  -5.62 kcal/mol
DOCKED: USER        Moving Ligand-Moving Receptor   =  +0.00 kcal/mol
DOCKED: USER    (2) Final Total Internal Energy     =  -1.21 kcal/mol
DOCKED: USER    (3) Torsional Free Energy           =  +1.49 kcal/mol
DOCKED: USER    (4) Unbound System's Energy         =  -1.21 kcal/mol
DOCKED: USER
DOCKED: USER
DOCKED: REMARK  5 active torsions:
DOCKED: REMARK  status: ('A' for Active; 'I' for Inactive)
DOCKED: REMARK    1  A    between atoms: C_2  and  C_19 
DOCKED: REMARK    2  A    between atoms: C_2  and  C_11 
DOCKED: REMARK    3  A    between atoms: C_19  and  C_20 
DOCKED: REMARK    4  A    between atoms: C_20  and  C_21 
DOCKED: REMARK    5  A    between atoms: C_21  and  N_22 
DOCKED: USER                              x       y       z     vdW  Elec       q    Type
DOCKED: USER                           _______ _______ _______ _____ _____    ______ ____
DOCKED: ROOT
DOCKED: ATOM      1  O   UNL     1     -36.013 -16.372  11.994 -0.08 -0.00    -0.346 OA 
DOCKED: ATOM      2  C   UNL     1     -37.086 -15.458  11.602 -0.12 +0.00    +0.130 C  
DOCKED: ATOM      3  C   UNL     1     -38.078 -16.345  10.906 -0.21 +0.00    +0.004 A  
DOCKED: ATOM      4  C   UNL     1     -37.662 -17.666  10.990 -0.25 +0.00    +0.006 A  
DOCKED: ATOM      5  C   UNL     1     -36.392 -17.746  11.747 -0.12 +0.00    +0.169 C  
DOCKED: ATOM      6  C   UNL     1     -39.259 -16.011  10.261 -0.26 -0.00    -0.001 A  
DOCKED: ATOM      7  C   UNL     1     -38.405 -18.693  10.432 -0.36 +0.00    +0.008 A  
DOCKED: ATOM      8  C   UNL     1     -40.018 -17.034   9.689 -0.30 +0.00    +0.010 A  
DOCKED: ATOM      9  C   UNL     1     -39.592 -18.368   9.775 -0.31 +0.00    +0.068 A  
DOCKED: ATOM     10  N   UNL     1     -41.026 -20.243   8.707 -2.55 -0.00    -0.191 NA 
DOCKED: ATOM     11  C   UNL     1     -40.383 -19.402   9.185 -0.35 +0.00    +0.101 C  
DOCKED: ENDROOT
DOCKED: BRANCH   2  12
DOCKED: ATOM     12  C   UNL     1     -37.651 -14.809  12.860 -0.04 +0.00    +0.038 C  
DOCKED: BRANCH  12  13
DOCKED: ATOM     13  C   UNL     1     -36.705 -14.980  14.047 -0.02 +0.00    +0.038 C  
DOCKED: BRANCH  13  14
DOCKED: ATOM     14  C   UNL     1     -35.614 -13.912  14.039 -0.00 +0.00    +0.251 C  
DOCKED: BRANCH  14  15
DOCKED: ATOM     15  N   UNL     1     -36.117 -12.667  14.608 -0.00 +0.00    +0.141 N  
DOCKED: ATOM     16  C   UNL     1     -36.551 -11.754  13.550 -0.00 +0.00    +0.285 C  
DOCKED: ATOM     17  C   UNL     1     -37.220 -12.933  15.533 +0.00 +0.00    +0.285 C  
DOCKED: ENDBRANCH  14  15
DOCKED: ENDBRANCH  13  14
DOCKED: ENDBRANCH  12  13
DOCKED: ENDBRANCH   2  12
DOCKED: BRANCH   2  18
DOCKED: ATOM     18  C   UNL     1     -36.482 -14.439  10.695 -0.13 +0.00    +0.006 A  
DOCKED: ATOM     19  C   UNL     1     -35.099 -14.390  10.525 -0.11 +0.00    +0.001 A  
DOCKED: ATOM     20  C   UNL     1     -34.535 -13.436   9.678 -0.08 +0.00    +0.029 A  
DOCKED: ATOM     21  C   UNL     1     -35.354 -12.533   9.001 -0.06 +0.00    +0.140 A  
DOCKED: ATOM     22  C   UNL     1     -36.737 -12.582   9.171 -0.11 +0.00    +0.029 A  
DOCKED: ATOM     23  F   UNL     1     -34.813 -11.618   8.186 -0.00 -0.00    -0.204 F  
DOCKED: ATOM     24  C   UNL     1     -37.302 -13.536  10.020 -0.15 +0.00    +0.001 A  
DOCKED: ENDBRANCH   2  18
DOCKED: TORSDOF 5
DOCKED: TER
DOCKED: ENDMDL
________________________________________________________________________________


    FINAL DOCKED STATE:
    ________________________


Run:   93 / 512
Time taken for this run:   0.002s

DOCKED: MODEL        93
DOCKED: USER    Run = 93
DOCKED: USER
DOCKED: USER    Estimated Free Energy of Binding    =  -4.81 kcal/mol  [=(1)+(2)+(3)-(4)]
DOCKED: USER
DOCKED: USER    (1) Final Intermolecular Energy     =  -6.30 kcal/mol
DOCKED: USER        vdW + Hbond + desolv Energy     =  -6.30 kcal/mol
DOCKED: USER        Electrostatic Energy            =  +0.00 kcal/mol
DOCKED: USER        Moving Ligand-Fixed Receptor    =  -6.30 kcal/mol
DOCKED: USER        Moving Ligand-Moving Receptor   =  +0.00 kcal/mol
DOCKED: USER    (2) Final Total Internal Energy     =  -1.19 kcal/mol
DOCKED: USER    (3) Torsional Free Energy           =  +1.49 kcal/mol
DOCKED: USER    (4) Unbound System's Energy         =  -1.19 kcal/mol
DOCKED: USER
DOCKED: USER
DOCKED: REMARK  5 active torsions:
DOCKED: REMARK  status: ('A' for Active; 'I' for Inactive)
DOCKED: REMARK    1  A    between atoms: C_2  and  C_19 
DOCKED: REMARK    2  A    between atoms: C_2  and  C_11 
DOCKED: REMARK    3  A    between atoms: C_19  and  C_20 
DOCKED: REMARK    4  A    between atoms: C_20  and  C_21 
DOCKED: REMARK    5  A    between atoms: C_21  and  N_22 
DOCKED: USER                              x       y       z     vdW  Elec       q    Type
DOCKED: USER                           _______ _______ _______ _____ _____    ______ ____
DOCKED: ROOT
DOCKED: ATOM      1  O   UNL     1     -36.533 -15.967  12.092 -0.06 -0.00    -0.346 OA 
DOCKED: ATOM      2  C   UNL     1     -37.353 -15.182  11.169 -0.13 +0.00    +0.130 C  
DOCKED: ATOM      3  C   UNL     1     -38.213 -16.208  10.491 -0.22 +0.00    +0.004 A  
DOCKED: ATOM      4  C   UNL     1     -37.985 -17.455  11.054 -0.25 +0.00    +0.006 A  
DOCKED: ATOM      5  C   UNL     1     -36.982 -17.341  12.137 -0.16 +0.00    +0.169 C  
DOCKED: ATOM      6  C   UNL     1     -39.134 -16.048   9.465 -0.27 -0.00    -0.001 A  
DOCKED: ATOM      7  C   UNL     1     -38.660 -18.580  10.612 -0.34 +0.00    +0.008 A  
DOCKED: ATOM      8  C   UNL     1     -39.819 -17.174   9.005 -0.34 +0.00    +0.010 A  
DOCKED: ATOM      9  C   UNL     1     -39.584 -18.433   9.576 -0.32 +0.00    +0.068 A  
DOCKED: ATOM     10  N   UNL     1     -40.877 -20.501   8.702 -2.57 -0.00    -0.191 NA 
DOCKED: ATOM     11  C   UNL     1     -40.296 -19.574   9.094 -0.28 +0.00    +0.101 C  
DOCKED: ENDROOT
DOCKED: BRANCH   2  12
DOCKED: ATOM     12  C   UNL     1     -38.159 -14.173  11.979 -0.07 +0.00    +0.038 C  
DOCKED: BRANCH  12  13
DOCKED: ATOM     13  C   UNL     1     -39.611 -14.620  12.139 -0.07 +0.00    +0.038 C  
DOCKED: BRANCH  13  14
DOCKED: ATOM     14  C   UNL     1     -40.575 -13.529  11.677 -0.05 +0.00    +0.251 C  
DOCKED: BRANCH  14  15
DOCKED: ATOM     15  N   UNL     1     -41.211 -13.911  10.422 -0.19 +0.00    +0.141 N  
DOCKED: ATOM     16  C   UNL     1     -42.119 -15.041  10.627 -0.13 +0.00    +0.285 C  
DOCKED: ATOM     17  C   UNL     1     -41.935 -12.778   9.844 -0.15 +0.00    +0.285 C  
DOCKED: ENDBRANCH  14  15
DOCKED: ENDBRANCH  13  14
DOCKED: ENDBRANCH  12  13
DOCKED: ENDBRANCH   2  12
DOCKED: BRANCH   2  18
DOCKED: ATOM     18  C   UNL     1     -36.418 -14.495  10.231 -0.14 +0.00    +0.006 A  
DOCKED: ATOM     19  C   UNL     1     -36.922 -13.713   9.192 -0.16 +0.00    +0.001 A  
DOCKED: ATOM     20  C   UNL     1     -36.046 -13.072   8.315 -0.14 +0.00    +0.029 A  
DOCKED: ATOM     21  C   UNL     1     -34.669 -13.212   8.478 -0.08 +0.00    +0.140 A  
DOCKED: ATOM     22  C   UNL     1     -34.165 -13.994   9.518 -0.10 +0.00    +0.029 A  
DOCKED: ATOM     23  F   UNL     1     -33.829 -12.595   7.638 -0.00 -0.00    -0.204 F  
DOCKED: ATOM     24  C   UNL     1     -35.040 -14.636  10.395 -0.09 +0.00    +0.001 A  
DOCKED: ENDBRANCH   2  18
DOCKED: TORSDOF 5
DOCKED: TER
DOCKED: ENDMDL
________________________________________________________________________________


    FINAL DOCKED STATE:
    ________________________


Run:   94 / 512
Time taken for this run:   0.002s

DOCKED: MODEL        94
DOCKED: USER    Run = 94
DOCKED: USER
DOCKED: USER    Estimated Free Energy of Binding    =  -3.87 kcal/mol  [=(1)+(2)+(3)-(4)]
DOCKED: USER
DOCKED: USER    (1) Final Intermolecular Energy     =  -5.37 kcal/mol
DOCKED: USER        vdW + Hbond + desolv Energy     =  -5.37 kcal/mol
DOCKED: USER        Electrostatic Energy            =  +0.00 kcal/mol
DOCKED: USER        Moving Ligand-Fixed Receptor    =  -5.37 kcal/mol
DOCKED: USER        Moving Ligand-Moving Receptor   =  +0.00 kcal/mol
DOCKED: USER    (2) Final Total Internal Energy     =  -1.14 kcal/mol
DOCKED: USER    (3) Torsional Free Energy           =  +1.49 kcal/mol
DOCKED: USER    (4) Unbound System's Energy         =  -1.14 kcal/mol
DOCKED: USER
DOCKED: USER
DOCKED: REMARK  5 active torsions:
DOCKED: REMARK  status: ('A' for Active; 'I' for Inactive)
DOCKED: REMARK    1  A    between atoms: C_2  and  C_19 
DOCKED: REMARK    2  A    between atoms: C_2  and  C_11 
DOCKED: REMARK    3  A    between atoms: C_19  and  C_20 
DOCKED: REMARK    4  A    between atoms: C_20  and  C_21 
DOCKED: REMARK    5  A    between atoms: C_21  and  N_22 
DOCKED: USER                              x       y       z     vdW  Elec       q    Type
DOCKED: USER                           _______ _______ _______ _____ _____    ______ ____
DOCKED: ROOT
DOCKED: ATOM      1  O   UNL     1     -32.663 -10.677   0.143 +0.01 -0.00    -0.346 OA 
DOCKED: ATOM      2  C   UNL     1     -33.374 -10.180   1.322 -0.05 +0.00    +0.130 C  
DOCKED: ATOM      3  C   UNL     1     -34.474  -9.334   0.749 -0.15 +0.00    +0.004 A  
DOCKED: ATOM      4  C   UNL     1     -34.462  -9.428  -0.636 -0.16 +0.00    +0.006 A  
DOCKED: ATOM      5  C   UNL     1     -33.379 -10.339  -1.068 -0.09 +0.00    +0.169 C  
DOCKED: ATOM      6  C   UNL     1     -35.416  -8.553   1.401 -0.23 -0.00    -0.001 A  
DOCKED: ATOM      7  C   UNL     1     -35.383  -8.746  -1.412 -0.19 +0.00    +0.008 A  
DOCKED: ATOM      8  C   UNL     1     -36.349  -7.855   0.632 -0.33 +0.00    +0.010 A  
DOCKED: ATOM      9  C   UNL     1     -36.333  -7.952  -0.767 -0.26 +0.00    +0.068 A  
DOCKED: ATOM     10  N   UNL     1     -38.082  -6.647  -2.164 -2.53 -0.00    -0.191 NA 
DOCKED: ATOM     11  C   UNL     1     -37.297  -7.232  -1.538 -0.34 +0.00    +0.101 C  
DOCKED: ENDROOT
DOCKED: BRANCH   2  12
DOCKED: ATOM     12  C   UNL     1     -33.894 -11.375   2.111 -0.08 +0.00    +0.038 C  
DOCKED: BRANCH  12  13
DOCKED: ATOM     13  C   UNL     1     -34.669 -10.930   3.350 -0.11 +0.00    +0.038 C  
DOCKED: BRANCH  13  14
DOCKED: ATOM     14  C   UNL     1     -36.132 -11.361   3.268 -0.15 +0.00    +0.251 C  
DOCKED: BRANCH  14  15
DOCKED: ATOM     15  N   UNL     1     -36.919 -10.682   4.290 -0.18 +0.00    +0.141 N  
DOCKED: ATOM     16  C   UNL     1     -36.071 -10.280   5.413 -0.10 +0.00    +0.285 C  
DOCKED: ATOM     17  C   UNL     1     -37.600  -9.515   3.725 -0.20 +0.00    +0.285 C  
DOCKED: ENDBRANCH  14  15
DOCKED: ENDBRANCH  13  14
DOCKED: ENDBRANCH  12  13
DOCKED: ENDBRANCH   2  12
DOCKED: BRANCH   2  18
DOCKED: ATOM     18  C   UNL     1     -32.391  -9.392   2.123 -0.03 +0.00    +0.006 A  
DOCKED: ATOM     19  C   UNL     1     -31.411 -10.050   2.865 -0.01 +0.00    +0.001 A  
DOCKED: ATOM     20  C   UNL     1     -30.493  -9.312   3.613 -0.01 +0.00    +0.029 A  
DOCKED: ATOM     21  C   UNL     1     -30.557  -7.919   3.619 -0.02 +0.00    +0.140 A  
DOCKED: ATOM     22  C   UNL     1     -31.538  -7.262   2.876 -0.07 +0.00    +0.029 A  
DOCKED: ATOM     23  F   UNL     1     -29.674  -7.211   4.336 -0.00 -0.00    -0.204 F  
DOCKED: ATOM     24  C   UNL     1     -32.456  -7.999   2.128 -0.08 +0.00    +0.001 A  
DOCKED: ENDBRANCH   2  18
DOCKED: TORSDOF 5
DOCKED: TER
DOCKED: ENDMDL
________________________________________________________________________________


    FINAL DOCKED STATE:
    ________________________


Run:   95 / 512
Time taken for this run:   0.002s

DOCKED: MODEL        95
DOCKED: USER    Run = 95
DOCKED: USER
DOCKED: USER    Estimated Free Energy of Binding    =  -4.36 kcal/mol  [=(1)+(2)+(3)-(4)]
DOCKED: USER
DOCKED: USER    (1) Final Intermolecular Energy     =  -5.85 kcal/mol
DOCKED: USER        vdW + Hbond + desolv Energy     =  -5.85 kcal/mol
DOCKED: USER        Electrostatic Energy            =  +0.00 kcal/mol
DOCKED: USER        Moving Ligand-Fixed Receptor    =  -5.85 kcal/mol
DOCKED: USER        Moving Ligand-Moving Receptor   =  +0.00 kcal/mol
DOCKED: USER    (2) Final Total Internal Energy     =  -1.47 kcal/mol
DOCKED: USER    (3) Torsional Free Energy           =  +1.49 kcal/mol
DOCKED: USER    (4) Unbound System's Energy         =  -1.47 kcal/mol
DOCKED: USER
DOCKED: USER
DOCKED: REMARK  5 active torsions:
DOCKED: REMARK  status: ('A' for Active; 'I' for Inactive)
DOCKED: REMARK    1  A    between atoms: C_2  and  C_19 
DOCKED: REMARK    2  A    between atoms: C_2  and  C_11 
DOCKED: REMARK    3  A    between atoms: C_19  and  C_20 
DOCKED: REMARK    4  A    between atoms: C_20  and  C_21 
DOCKED: REMARK    5  A    between atoms: C_21  and  N_22 
DOCKED: USER                              x       y       z     vdW  Elec       q    Type
DOCKED: USER                           _______ _______ _______ _____ _____    ______ ____
DOCKED: ROOT
DOCKED: ATOM      1  O   UNL     1     -36.629 -15.541  11.788 -0.06 -0.00    -0.346 OA 
DOCKED: ATOM      2  C   UNL     1     -37.805 -14.865  11.238 -0.12 +0.00    +0.130 C  
DOCKED: ATOM      3  C   UNL     1     -38.583 -15.972  10.585 -0.23 +0.00    +0.004 A  
DOCKED: ATOM      4  C   UNL     1     -37.964 -17.188  10.836 -0.23 +0.00    +0.006 A  
DOCKED: ATOM      5  C   UNL     1     -36.759 -16.977  11.670 -0.16 +0.00    +0.169 C  
DOCKED: ATOM      6  C   UNL     1     -39.750 -15.908   9.839 -0.27 -0.00    -0.001 A  
DOCKED: ATOM      7  C   UNL     1     -38.484 -18.375  10.349 -0.33 +0.00    +0.008 A  
DOCKED: ATOM      8  C   UNL     1     -40.285 -17.096   9.338 -0.31 +0.00    +0.010 A  
DOCKED: ATOM      9  C   UNL     1     -39.656 -18.323   9.592 -0.31 +0.00    +0.068 A  
DOCKED: ATOM     10  N   UNL     1     -40.678 -20.510   8.651 -2.57 -0.00    -0.191 NA 
DOCKED: ATOM     11  C   UNL     1     -40.219 -19.529   9.073 -0.31 +0.00    +0.101 C  
DOCKED: ENDROOT
DOCKED: BRANCH   2  12
DOCKED: ATOM     12  C   UNL     1     -38.562 -14.203  12.383 -0.05 +0.00    +0.038 C  
DOCKED: BRANCH  12  13
DOCKED: ATOM     13  C   UNL     1     -39.632 -15.132  12.953 -0.04 +0.00    +0.038 C  
DOCKED: BRANCH  13  14
DOCKED: ATOM     14  C   UNL     1     -39.053 -16.035  14.041 -0.01 +0.00    +0.251 C  
DOCKED: BRANCH  14  15
DOCKED: ATOM     15  N   UNL     1     -39.816 -17.274  14.131 -0.04 +0.00    +0.141 N  
DOCKED: ATOM     16  C   UNL     1     -40.890 -17.292  13.137 -0.02 +0.00    +0.285 C  
DOCKED: ATOM     17  C   UNL     1     -38.940 -18.433  13.952 -0.09 +0.00    +0.285 C  
DOCKED: ENDBRANCH  14  15
DOCKED: ENDBRANCH  13  14
DOCKED: ENDBRANCH  12  13
DOCKED: ENDBRANCH   2  12
DOCKED: BRANCH   2  18
DOCKED: ATOM     18  C   UNL     1     -37.308 -13.850  10.263 -0.15 +0.00    +0.006 A  
DOCKED: ATOM     19  C   UNL     1     -37.966 -12.628  10.134 -0.11 +0.00    +0.001 A  
DOCKED: ATOM     20  C   UNL     1     -37.500 -11.680   9.222 -0.09 +0.00    +0.029 A  
DOCKED: ATOM     21  C   UNL     1     -36.379 -11.955   8.441 -0.07 +0.00    +0.140 A  
DOCKED: ATOM     22  C   UNL     1     -35.721 -13.178   8.571 -0.13 +0.00    +0.029 A  
DOCKED: ATOM     23  F   UNL     1     -35.931 -11.044   7.567 -0.01 -0.00    -0.204 F  
DOCKED: ATOM     24  C   UNL     1     -36.186 -14.127   9.483 -0.14 +0.00    +0.001 A  
DOCKED: ENDBRANCH   2  18
DOCKED: TORSDOF 5
DOCKED: TER
DOCKED: ENDMDL
________________________________________________________________________________


    FINAL DOCKED STATE:
    ________________________


Run:   96 / 512
Time taken for this run:   0.002s

DOCKED: MODEL        96
DOCKED: USER    Run = 96
DOCKED: USER
DOCKED: USER    Estimated Free Energy of Binding    =  -6.73 kcal/mol  [=(1)+(2)+(3)-(4)]
DOCKED: USER
DOCKED: USER    (1) Final Intermolecular Energy     =  -8.22 kcal/mol
DOCKED: USER        vdW + Hbond + desolv Energy     =  -8.22 kcal/mol
DOCKED: USER        Electrostatic Energy            =  +0.00 kcal/mol
DOCKED: USER        Moving Ligand-Fixed Receptor    =  -8.22 kcal/mol
DOCKED: USER        Moving Ligand-Moving Receptor   =  +0.00 kcal/mol
DOCKED: USER    (2) Final Total Internal Energy     =  -0.99 kcal/mol
DOCKED: USER    (3) Torsional Free Energy           =  +1.49 kcal/mol
DOCKED: USER    (4) Unbound System's Energy         =  -0.99 kcal/mol
DOCKED: USER
DOCKED: USER
DOCKED: REMARK  5 active torsions:
DOCKED: REMARK  status: ('A' for Active; 'I' for Inactive)
DOCKED: REMARK    1  A    between atoms: C_2  and  C_19 
DOCKED: REMARK    2  A    between atoms: C_2  and  C_11 
DOCKED: REMARK    3  A    between atoms: C_19  and  C_20 
DOCKED: REMARK    4  A    between atoms: C_20  and  C_21 
DOCKED: REMARK    5  A    between atoms: C_21  and  N_22 
DOCKED: USER                              x       y       z     vdW  Elec       q    Type
DOCKED: USER                           _______ _______ _______ _____ _____    ______ ____
DOCKED: ROOT
DOCKED: ATOM      1  O   UNL     1     -38.028 -19.863  10.825 -0.41 -0.00    -0.346 OA 
DOCKED: ATOM      2  C   UNL     1     -39.076 -18.861  11.025 -0.28 +0.00    +0.130 C  
DOCKED: ATOM      3  C   UNL     1     -39.715 -18.733   9.673 -0.37 +0.00    +0.004 A  
DOCKED: ATOM      4  C   UNL     1     -39.156 -19.659   8.803 -0.41 +0.00    +0.006 A  
DOCKED: ATOM      5  C   UNL     1     -38.134 -20.460   9.512 -0.13 +0.00    +0.169 C  
DOCKED: ATOM      6  C   UNL     1     -40.718 -17.874   9.249 -0.33 -0.00    -0.001 A  
DOCKED: ATOM      7  C   UNL     1     -39.575 -19.755   7.487 -0.37 +0.00    +0.008 A  
DOCKED: ATOM      8  C   UNL     1     -41.148 -17.955   7.923 -0.14 +0.00    +0.010 A  
DOCKED: ATOM      9  C   UNL     1     -40.579 -18.891   7.047 -0.46 +0.00    +0.068 A  
DOCKED: ATOM     10  N   UNL     1     -41.403 -19.020   4.594 -3.33 -0.00    -0.191 NA 
DOCKED: ATOM     11  C   UNL     1     -41.033 -18.962   5.694 -0.29 +0.00    +0.101 C  
DOCKED: ENDROOT
DOCKED: BRANCH   2  12
DOCKED: ATOM     12  C   UNL     1     -40.038 -19.375  12.090 -0.29 +0.00    +0.038 C  
DOCKED: BRANCH  12  13
DOCKED: ATOM     13  C   UNL     1     -41.305 -19.954  11.462 -0.23 +0.00    +0.038 C  
DOCKED: BRANCH  13  14
DOCKED: ATOM     14  C   UNL     1     -42.555 -19.279  12.024 -0.11 +0.00    +0.251 C  
DOCKED: BRANCH  14  15
DOCKED: ATOM     15  N   UNL     1     -42.814 -19.743  13.382 -0.13 +0.00    +0.141 N  
DOCKED: ATOM     16  C   UNL     1     -43.030 -18.609  14.282 -0.03 +0.00    +0.285 C  
DOCKED: ATOM     17  C   UNL     1     -43.971 -20.639  13.409 -0.08 +0.00    +0.285 C  
DOCKED: ENDBRANCH  14  15
DOCKED: ENDBRANCH  13  14
DOCKED: ENDBRANCH  12  13
DOCKED: ENDBRANCH   2  12
DOCKED: BRANCH   2  18
DOCKED: ATOM     18  C   UNL     1     -38.401 -17.607  11.471 -0.23 +0.00    +0.006 A  
DOCKED: ATOM     19  C   UNL     1     -38.150 -17.395  12.826 -0.13 +0.00    +0.001 A  
DOCKED: ATOM     20  C   UNL     1     -37.519 -16.221  13.241 -0.07 +0.00    +0.029 A  
DOCKED: ATOM     21  C   UNL     1     -37.141 -15.263  12.302 -0.06 +0.00    +0.140 A  
DOCKED: ATOM     22  C   UNL     1     -37.393 -15.476  10.947 -0.16 +0.00    +0.029 A  
DOCKED: ATOM     23  F   UNL     1     -36.533 -14.138  12.701 -0.00 -0.00    -0.204 F  
DOCKED: ATOM     24  C   UNL     1     -38.024 -16.649  10.531 -0.21 +0.00    +0.001 A  
DOCKED: ENDBRANCH   2  18
DOCKED: TORSDOF 5
DOCKED: TER
DOCKED: ENDMDL
________________________________________________________________________________


    FINAL DOCKED STATE:
    ________________________


Run:   97 / 512
Time taken for this run:   0.002s

DOCKED: MODEL        97
DOCKED: USER    Run = 97
DOCKED: USER
DOCKED: USER    Estimated Free Energy of Binding    =  -4.13 kcal/mol  [=(1)+(2)+(3)-(4)]
DOCKED: USER
DOCKED: USER    (1) Final Intermolecular Energy     =  -5.62 kcal/mol
DOCKED: USER        vdW + Hbond + desolv Energy     =  -5.62 kcal/mol
DOCKED: USER        Electrostatic Energy            =  +0.00 kcal/mol
DOCKED: USER        Moving Ligand-Fixed Receptor    =  -5.62 kcal/mol
DOCKED: USER        Moving Ligand-Moving Receptor   =  +0.00 kcal/mol
DOCKED: USER    (2) Final Total Internal Energy     =  -1.47 kcal/mol
DOCKED: USER    (3) Torsional Free Energy           =  +1.49 kcal/mol
DOCKED: USER    (4) Unbound System's Energy         =  -1.47 kcal/mol
DOCKED: USER
DOCKED: USER
DOCKED: REMARK  5 active torsions:
DOCKED: REMARK  status: ('A' for Active; 'I' for Inactive)
DOCKED: REMARK    1  A    between atoms: C_2  and  C_19 
DOCKED: REMARK    2  A    between atoms: C_2  and  C_11 
DOCKED: REMARK    3  A    between atoms: C_19  and  C_20 
DOCKED: REMARK    4  A    between atoms: C_20  and  C_21 
DOCKED: REMARK    5  A    between atoms: C_21  and  N_22 
DOCKED: USER                              x       y       z     vdW  Elec       q    Type
DOCKED: USER                           _______ _______ _______ _____ _____    ______ ____
DOCKED: ROOT
DOCKED: ATOM      1  O   UNL     1     -38.176 -14.436  11.368 -0.03 -0.00    -0.346 OA 
DOCKED: ATOM      2  C   UNL     1     -39.627 -14.298  11.236 -0.11 +0.00    +0.130 C  
DOCKED: ATOM      3  C   UNL     1     -40.058 -15.598  10.621 -0.21 +0.00    +0.004 A  
DOCKED: ATOM      4  C   UNL     1     -38.966 -16.447  10.513 -0.25 +0.00    +0.006 A  
DOCKED: ATOM      5  C   UNL     1     -37.758 -15.784  11.052 -0.15 +0.00    +0.169 C  
DOCKED: ATOM      6  C   UNL     1     -41.318 -16.000  10.202 -0.22 -0.00    -0.001 A  
DOCKED: ATOM      7  C   UNL     1     -39.093 -17.719   9.981 -0.32 +0.00    +0.008 A  
DOCKED: ATOM      8  C   UNL     1     -41.461 -17.279   9.660 -0.24 +0.00    +0.010 A  
DOCKED: ATOM      9  C   UNL     1     -40.354 -18.134   9.550 -0.28 +0.00    +0.068 A  
DOCKED: ATOM     10  N   UNL     1     -40.656 -20.502   8.543 -2.50 -0.00    -0.191 NA 
DOCKED: ATOM     11  C   UNL     1     -40.521 -19.439   8.994 -0.37 +0.00    +0.101 C  
DOCKED: ENDROOT
DOCKED: BRANCH   2  12
DOCKED: ATOM     12  C   UNL     1     -40.218 -14.072  12.623 -0.04 +0.00    +0.038 C  
DOCKED: BRANCH  12  13
DOCKED: ATOM     13  C   UNL     1     -39.158 -13.582  13.607 -0.01 +0.00    +0.038 C  
DOCKED: BRANCH  13  14
DOCKED: ATOM     14  C   UNL     1     -38.742 -12.146  13.297 -0.00 +0.00    +0.251 C  
DOCKED: BRANCH  14  15
DOCKED: ATOM     15  N   UNL     1     -37.330 -12.093  12.937 -0.01 +0.00    +0.141 N  
DOCKED: ATOM     16  C   UNL     1     -37.103 -11.105  11.880 -0.00 +0.00    +0.285 C  
DOCKED: ATOM     17  C   UNL     1     -36.511 -11.779  14.109 -0.00 +0.00    +0.285 C  
DOCKED: ENDBRANCH  14  15
DOCKED: ENDBRANCH  13  14
DOCKED: ENDBRANCH  12  13
DOCKED: ENDBRANCH   2  12
DOCKED: BRANCH   2  18
DOCKED: ATOM     18  C   UNL     1     -39.875 -13.124  10.348 -0.17 +0.00    +0.006 A  
DOCKED: ATOM     19  C   UNL     1     -41.136 -12.530  10.315 -0.18 +0.00    +0.001 A  
DOCKED: ATOM     20  C   UNL     1     -41.366 -11.433   9.484 -0.17 +0.00    +0.029 A  
DOCKED: ATOM     21  C   UNL     1     -40.337 -10.931   8.689 -0.13 +0.00    +0.140 A  
DOCKED: ATOM     22  C   UNL     1     -39.076 -11.526   8.723 -0.09 +0.00    +0.029 A  
DOCKED: ATOM     23  F   UNL     1     -40.558  -9.877   7.893 -0.03 -0.00    -0.204 F  
DOCKED: ATOM     24  C   UNL     1     -38.844 -12.624   9.554 -0.11 +0.00    +0.001 A  
DOCKED: ENDBRANCH   2  18
DOCKED: TORSDOF 5
DOCKED: TER
DOCKED: ENDMDL
________________________________________________________________________________


    FINAL DOCKED STATE:
    ________________________


Run:   98 / 512
Time taken for this run:   0.002s

DOCKED: MODEL        98
DOCKED: USER    Run = 98
DOCKED: USER
DOCKED: USER    Estimated Free Energy of Binding    =  -5.03 kcal/mol  [=(1)+(2)+(3)-(4)]
DOCKED: USER
DOCKED: USER    (1) Final Intermolecular Energy     =  -6.52 kcal/mol
DOCKED: USER        vdW + Hbond + desolv Energy     =  -6.52 kcal/mol
DOCKED: USER        Electrostatic Energy            =  +0.00 kcal/mol
DOCKED: USER        Moving Ligand-Fixed Receptor    =  -6.52 kcal/mol
DOCKED: USER        Moving Ligand-Moving Receptor   =  +0.00 kcal/mol
DOCKED: USER    (2) Final Total Internal Energy     =  -0.84 kcal/mol
DOCKED: USER    (3) Torsional Free Energy           =  +1.49 kcal/mol
DOCKED: USER    (4) Unbound System's Energy         =  -0.84 kcal/mol
DOCKED: USER
DOCKED: USER
DOCKED: REMARK  5 active torsions:
DOCKED: REMARK  status: ('A' for Active; 'I' for Inactive)
DOCKED: REMARK    1  A    between atoms: C_2  and  C_19 
DOCKED: REMARK    2  A    between atoms: C_2  and  C_11 
DOCKED: REMARK    3  A    between atoms: C_19  and  C_20 
DOCKED: REMARK    4  A    between atoms: C_20  and  C_21 
DOCKED: REMARK    5  A    between atoms: C_21  and  N_22 
DOCKED: USER                              x       y       z     vdW  Elec       q    Type
DOCKED: USER                           _______ _______ _______ _____ _____    ______ ____
DOCKED: ROOT
DOCKED: ATOM      1  O   UNL     1     -42.963 -17.882  11.602 -0.01 -0.00    -0.346 OA 
DOCKED: ATOM      2  C   UNL     1     -41.640 -17.277  11.440 -0.11 +0.00    +0.130 C  
DOCKED: ATOM      3  C   UNL     1     -41.291 -17.555  10.007 -0.24 +0.00    +0.004 A  
DOCKED: ATOM      4  C   UNL     1     -42.364 -18.166   9.375 -0.29 +0.00    +0.006 A  
DOCKED: ATOM      5  C   UNL     1     -43.486 -18.322  10.327 -0.15 +0.00    +0.169 C  
DOCKED: ATOM      6  C   UNL     1     -40.121 -17.279   9.315 -0.33 -0.00    -0.001 A  
DOCKED: ATOM      7  C   UNL     1     -42.305 -18.524   8.039 -0.23 +0.00    +0.008 A  
DOCKED: ATOM      8  C   UNL     1     -40.044 -17.638   7.968 -0.31 +0.00    +0.010 A  
DOCKED: ATOM      9  C   UNL     1     -41.131 -18.257   7.333 -0.25 +0.00    +0.068 A  
DOCKED: ATOM     10  N   UNL     1     -40.957 -18.905   4.831 -2.90 -0.00    -0.191 NA 
DOCKED: ATOM     11  C   UNL     1     -41.035 -18.615   5.953 -0.26 +0.00    +0.101 C  
DOCKED: ENDROOT
DOCKED: BRANCH   2  12
DOCKED: ATOM     12  C   UNL     1     -41.749 -15.788  11.747 -0.12 +0.00    +0.038 C  
DOCKED: BRANCH  12  13
DOCKED: ATOM     13  C   UNL     1     -41.159 -14.943  10.619 -0.23 +0.00    +0.038 C  
DOCKED: BRANCH  13  14
DOCKED: ATOM     14  C   UNL     1     -39.992 -14.095  11.121 -0.10 +0.00    +0.251 C  
DOCKED: BRANCH  14  15
DOCKED: ATOM     15  N   UNL     1     -40.226 -12.686  10.829 -0.09 +0.00    +0.141 N  
DOCKED: ATOM     16  C   UNL     1     -40.783 -12.523   9.485 -0.11 +0.00    +0.285 C  
DOCKED: ATOM     17  C   UNL     1     -41.122 -12.095  11.825 -0.02 +0.00    +0.285 C  
DOCKED: ENDBRANCH  14  15
DOCKED: ENDBRANCH  13  14
DOCKED: ENDBRANCH  12  13
DOCKED: ENDBRANCH   2  12
DOCKED: BRANCH   2  18
DOCKED: ATOM     18  C   UNL     1     -40.727 -17.960  12.404 -0.12 +0.00    +0.006 A  
DOCKED: ATOM     19  C   UNL     1     -41.144 -19.120  13.055 -0.17 +0.00    +0.001 A  
DOCKED: ATOM     20  C   UNL     1     -40.289 -19.757  13.957 -0.02 +0.00    +0.029 A  
DOCKED: ATOM     21  C   UNL     1     -39.021 -19.234  14.204 -0.16 +0.00    +0.140 A  
DOCKED: ATOM     22  C   UNL     1     -38.605 -18.073  13.552 -0.13 +0.00    +0.029 A  
DOCKED: ATOM     23  F   UNL     1     -38.201 -19.846  15.068 -0.08 -0.00    -0.204 F  
DOCKED: ATOM     24  C   UNL     1     -39.459 -17.435  12.651 -0.11 +0.00    +0.001 A  
DOCKED: ENDBRANCH   2  18
DOCKED: TORSDOF 5
DOCKED: TER
DOCKED: ENDMDL
________________________________________________________________________________


    FINAL DOCKED STATE:
    ________________________


Run:   99 / 512
Time taken for this run:   0.002s

DOCKED: MODEL        99
DOCKED: USER    Run = 99
DOCKED: USER
DOCKED: USER    Estimated Free Energy of Binding    =  -4.33 kcal/mol  [=(1)+(2)+(3)-(4)]
DOCKED: USER
DOCKED: USER    (1) Final Intermolecular Energy     =  -5.82 kcal/mol
DOCKED: USER        vdW + Hbond + desolv Energy     =  -5.82 kcal/mol
DOCKED: USER        Electrostatic Energy            =  +0.00 kcal/mol
DOCKED: USER        Moving Ligand-Fixed Receptor    =  -5.82 kcal/mol
DOCKED: USER        Moving Ligand-Moving Receptor   =  +0.00 kcal/mol
DOCKED: USER    (2) Final Total Internal Energy     =  -1.33 kcal/mol
DOCKED: USER    (3) Torsional Free Energy           =  +1.49 kcal/mol
DOCKED: USER    (4) Unbound System's Energy         =  -1.33 kcal/mol
DOCKED: USER
DOCKED: USER
DOCKED: REMARK  5 active torsions:
DOCKED: REMARK  status: ('A' for Active; 'I' for Inactive)
DOCKED: REMARK    1  A    between atoms: C_2  and  C_19 
DOCKED: REMARK    2  A    between atoms: C_2  and  C_11 
DOCKED: REMARK    3  A    between atoms: C_19  and  C_20 
DOCKED: REMARK    4  A    between atoms: C_20  and  C_21 
DOCKED: REMARK    5  A    between atoms: C_21  and  N_22 
DOCKED: USER                              x       y       z     vdW  Elec       q    Type
DOCKED: USER                           _______ _______ _______ _____ _____    ______ ____
DOCKED: ROOT
DOCKED: ATOM      1  O   UNL     1     -35.870 -11.068   3.388 -0.05 -0.00    -0.346 OA 
DOCKED: ATOM      2  C   UNL     1     -34.716 -10.804   2.527 -0.12 +0.00    +0.130 C  
DOCKED: ATOM      3  C   UNL     1     -35.259  -9.891   1.467 -0.21 +0.00    +0.004 A  
DOCKED: ATOM      4  C   UNL     1     -36.578  -9.572   1.756 -0.25 +0.00    +0.006 A  
DOCKED: ATOM      5  C   UNL     1     -36.990 -10.231   3.016 -0.19 +0.00    +0.169 C  
DOCKED: ATOM      6  C   UNL     1     -34.633  -9.375   0.342 -0.17 -0.00    -0.001 A  
DOCKED: ATOM      7  C   UNL     1     -37.314  -8.735   0.935 -0.21 +0.00    +0.008 A  
DOCKED: ATOM      8  C   UNL     1     -35.363  -8.533  -0.499 -0.23 +0.00    +0.010 A  
DOCKED: ATOM      9  C   UNL     1     -36.697  -8.214  -0.204 -0.12 +0.00    +0.068 A  
DOCKED: ATOM     10  N   UNL     1     -38.022  -6.645  -1.782 -2.34 -0.00    -0.191 NA 
DOCKED: ATOM     11  C   UNL     1     -37.428  -7.349  -1.075 -0.40 +0.00    +0.101 C  
DOCKED: ENDROOT
DOCKED: BRANCH   2  12
DOCKED: ATOM     12  C   UNL     1     -33.625 -10.152   3.369 -0.08 +0.00    +0.038 C  
DOCKED: BRANCH  12  13
DOCKED: ATOM     13  C   UNL     1     -34.076  -8.797   3.912 -0.14 +0.00    +0.038 C  
DOCKED: BRANCH  13  14
DOCKED: ATOM     14  C   UNL     1     -34.123  -8.805   5.439 -0.04 +0.00    +0.251 C  
DOCKED: BRANCH  14  15
DOCKED: ATOM     15  N   UNL     1     -34.873  -9.960   5.917 -0.09 +0.00    +0.141 N  
DOCKED: ATOM     16  C   UNL     1     -34.227 -10.544   7.094 -0.03 +0.00    +0.285 C  
DOCKED: ATOM     17  C   UNL     1     -36.253  -9.586   6.229 -0.12 +0.00    +0.285 C  
DOCKED: ENDBRANCH  14  15
DOCKED: ENDBRANCH  13  14
DOCKED: ENDBRANCH  12  13
DOCKED: ENDBRANCH   2  12
DOCKED: BRANCH   2  18
DOCKED: ATOM     18  C   UNL     1     -34.264 -12.119   1.987 -0.13 +0.00    +0.006 A  
DOCKED: ATOM     19  C   UNL     1     -34.671 -12.528   0.717 -0.23 +0.00    +0.001 A  
DOCKED: ATOM     20  C   UNL     1     -34.249 -13.758   0.213 -0.24 +0.00    +0.029 A  
DOCKED: ATOM     21  C   UNL     1     -33.420 -14.578   0.978 -0.17 +0.00    +0.140 A  
DOCKED: ATOM     22  C   UNL     1     -33.014 -14.169   2.248 -0.12 +0.00    +0.029 A  
DOCKED: ATOM     23  F   UNL     1     -33.013 -15.758   0.494 -0.09 -0.00    -0.204 F  
DOCKED: ATOM     24  C   UNL     1     -33.436 -12.938   2.754 -0.08 +0.00    +0.001 A  
DOCKED: ENDBRANCH   2  18
DOCKED: TORSDOF 5
DOCKED: TER
DOCKED: ENDMDL
________________________________________________________________________________


    FINAL DOCKED STATE:
    ________________________


Run:   100 / 512
Time taken for this run:   0.002s

DOCKED: MODEL        100
DOCKED: USER    Run = 100
DOCKED: USER
DOCKED: USER    Estimated Free Energy of Binding    =  -4.61 kcal/mol  [=(1)+(2)+(3)-(4)]
DOCKED: USER
DOCKED: USER    (1) Final Intermolecular Energy     =  -6.10 kcal/mol
DOCKED: USER        vdW + Hbond + desolv Energy     =  -6.10 kcal/mol
DOCKED: USER        Electrostatic Energy            =  +0.00 kcal/mol
DOCKED: USER        Moving Ligand-Fixed Receptor    =  -6.10 kcal/mol
DOCKED: USER        Moving Ligand-Moving Receptor   =  +0.00 kcal/mol
DOCKED: USER    (2) Final Total Internal Energy     =  -1.34 kcal/mol
DOCKED: USER    (3) Torsional Free Energy           =  +1.49 kcal/mol
DOCKED: USER    (4) Unbound System's Energy         =  -1.34 kcal/mol
DOCKED: USER
DOCKED: USER
DOCKED: REMARK  5 active torsions:
DOCKED: REMARK  status: ('A' for Active; 'I' for Inactive)
DOCKED: REMARK    1  A    between atoms: C_2  and  C_19 
DOCKED: REMARK    2  A    between atoms: C_2  and  C_11 
DOCKED: REMARK    3  A    between atoms: C_19  and  C_20 
DOCKED: REMARK    4  A    between atoms: C_20  and  C_21 
DOCKED: REMARK    5  A    between atoms: C_21  and  N_22 
DOCKED: USER                              x       y       z     vdW  Elec       q    Type
DOCKED: USER                           _______ _______ _______ _____ _____    ______ ____
DOCKED: ROOT
DOCKED: ATOM      1  O   UNL     1     -38.809 -13.839  10.056 -0.09 -0.00    -0.346 OA 
DOCKED: ATOM      2  C   UNL     1     -40.077 -14.054  10.754 -0.16 +0.00    +0.130 C  
DOCKED: ATOM      3  C   UNL     1     -40.454 -15.461  10.390 -0.22 +0.00    +0.004 A  
DOCKED: ATOM      4  C   UNL     1     -39.438 -16.038   9.640 -0.28 +0.00    +0.006 A  
DOCKED: ATOM      5  C   UNL     1     -38.330 -15.072   9.470 -0.11 +0.00    +0.169 C  
DOCKED: ATOM      6  C   UNL     1     -41.599 -16.177  10.706 -0.19 -0.00    -0.001 A  
DOCKED: ATOM      7  C   UNL     1     -39.533 -17.340   9.180 -0.35 +0.00    +0.008 A  
DOCKED: ATOM      8  C   UNL     1     -41.711 -17.490  10.245 -0.22 +0.00    +0.010 A  
DOCKED: ATOM      9  C   UNL     1     -40.683 -18.068   9.486 -0.26 +0.00    +0.068 A  
DOCKED: ATOM     10  N   UNL     1     -40.921 -20.509   8.651 -2.53 -0.00    -0.191 NA 
DOCKED: ATOM     11  C   UNL     1     -40.814 -19.414   9.025 -0.36 +0.00    +0.101 C  
DOCKED: ENDROOT
DOCKED: BRANCH   2  12
DOCKED: ATOM     12  C   UNL     1     -39.842 -13.872  12.249 -0.05 +0.00    +0.038 C  
DOCKED: BRANCH  12  13
DOCKED: ATOM     13  C   UNL     1     -38.396 -13.474  12.541 -0.04 +0.00    +0.038 C  
DOCKED: BRANCH  13  14
DOCKED: ATOM     14  C   UNL     1     -37.546 -14.699  12.872 -0.02 +0.00    +0.251 C  
DOCKED: BRANCH  14  15
DOCKED: ATOM     15  N   UNL     1     -38.363 -15.906  12.844 -0.04 +0.00    +0.141 N  
DOCKED: ATOM     16  C   UNL     1     -37.587 -17.043  12.347 -0.10 +0.00    +0.285 C  
DOCKED: ATOM     17  C   UNL     1     -38.895 -16.199  14.176 -0.01 +0.00    +0.285 C  
DOCKED: ENDBRANCH  14  15
DOCKED: ENDBRANCH  13  14
DOCKED: ENDBRANCH  12  13
DOCKED: ENDBRANCH   2  12
DOCKED: BRANCH   2  18
DOCKED: ATOM     18  C   UNL     1     -41.040 -13.041  10.233 -0.21 +0.00    +0.006 A  
DOCKED: ATOM     19  C   UNL     1     -42.411 -13.230  10.401 -0.21 +0.00    +0.001 A  
DOCKED: ATOM     20  C   UNL     1     -43.310 -12.282   9.913 -0.19 +0.00    +0.029 A  
DOCKED: ATOM     21  C   UNL     1     -42.837 -11.145   9.258 -0.11 +0.00    +0.140 A  
DOCKED: ATOM     22  C   UNL     1     -41.466 -10.956   9.090 -0.16 +0.00    +0.029 A  
DOCKED: ATOM     23  F   UNL     1     -43.701 -10.234   8.790 -0.02 -0.00    -0.204 F  
DOCKED: ATOM     24  C   UNL     1     -40.566 -11.905   9.577 -0.18 +0.00    +0.001 A  
DOCKED: ENDBRANCH   2  18
DOCKED: TORSDOF 5
DOCKED: TER
DOCKED: ENDMDL
________________________________________________________________________________


    FINAL DOCKED STATE:
    ________________________


Run:   101 / 512
Time taken for this run:   0.002s

DOCKED: MODEL        101
DOCKED: USER    Run = 101
DOCKED: USER
DOCKED: USER    Estimated Free Energy of Binding    =  -5.64 kcal/mol  [=(1)+(2)+(3)-(4)]
DOCKED: USER
DOCKED: USER    (1) Final Intermolecular Energy     =  -7.13 kcal/mol
DOCKED: USER        vdW + Hbond + desolv Energy     =  -7.13 kcal/mol
DOCKED: USER        Electrostatic Energy            =  +0.00 kcal/mol
DOCKED: USER        Moving Ligand-Fixed Receptor    =  -7.13 kcal/mol
DOCKED: USER        Moving Ligand-Moving Receptor   =  +0.00 kcal/mol
DOCKED: USER    (2) Final Total Internal Energy     =  -0.93 kcal/mol
DOCKED: USER    (3) Torsional Free Energy           =  +1.49 kcal/mol
DOCKED: USER    (4) Unbound System's Energy         =  -0.93 kcal/mol
DOCKED: USER
DOCKED: USER
DOCKED: REMARK  5 active torsions:
DOCKED: REMARK  status: ('A' for Active; 'I' for Inactive)
DOCKED: REMARK    1  A    between atoms: C_2  and  C_19 
DOCKED: REMARK    2  A    between atoms: C_2  and  C_11 
DOCKED: REMARK    3  A    between atoms: C_19  and  C_20 
DOCKED: REMARK    4  A    between atoms: C_20  and  C_21 
DOCKED: REMARK    5  A    between atoms: C_21  and  N_22 
DOCKED: USER                              x       y       z     vdW  Elec       q    Type
DOCKED: USER                           _______ _______ _______ _____ _____    ______ ____
DOCKED: ROOT
DOCKED: ATOM      1  O   UNL     1     -42.800 -17.605  11.775 -0.00 -0.00    -0.346 OA 
DOCKED: ATOM      2  C   UNL     1     -41.369 -17.325  11.640 -0.10 +0.00    +0.130 C  
DOCKED: ATOM      3  C   UNL     1     -41.080 -17.622  10.197 -0.23 +0.00    +0.004 A  
DOCKED: ATOM      4  C   UNL     1     -42.260 -17.936   9.539 -0.27 +0.00    +0.006 A  
DOCKED: ATOM      5  C   UNL     1     -43.398 -17.858  10.482 -0.17 +0.00    +0.169 C  
DOCKED: ATOM      6  C   UNL     1     -39.870 -17.604   9.518 -0.34 -0.00    -0.001 A  
DOCKED: ATOM      7  C   UNL     1     -42.273 -18.246   8.189 -0.26 +0.00    +0.008 A  
DOCKED: ATOM      8  C   UNL     1     -39.865 -17.918   8.158 -0.37 +0.00    +0.010 A  
DOCKED: ATOM      9  C   UNL     1     -41.061 -18.237   7.497 -0.28 +0.00    +0.068 A  
DOCKED: ATOM     10  N   UNL     1     -41.018 -18.810   4.971 -3.04 -0.00    -0.191 NA 
DOCKED: ATOM     11  C   UNL     1     -41.037 -18.554   6.104 -0.24 +0.00    +0.101 C  
DOCKED: ENDROOT
DOCKED: BRANCH   2  12
DOCKED: ATOM     12  C   UNL     1     -41.126 -15.866  12.006 -0.09 +0.00    +0.038 C  
DOCKED: BRANCH  12  13
DOCKED: ATOM     13  C   UNL     1     -42.191 -14.954  11.399 -0.15 +0.00    +0.038 C  
DOCKED: BRANCH  13  14
DOCKED: ATOM     14  C   UNL     1     -41.553 -13.836  10.578 -0.16 +0.00    +0.251 C  
DOCKED: BRANCH  14  15
DOCKED: ATOM     15  N   UNL     1     -42.569 -13.130   9.806 -0.21 +0.00    +0.141 N  
DOCKED: ATOM     16  C   UNL     1     -43.841 -13.104  10.530 -0.11 +0.00    +0.285 C  
DOCKED: ATOM     17  C   UNL     1     -42.131 -11.767   9.501 -0.11 +0.00    +0.285 C  
DOCKED: ENDBRANCH  14  15
DOCKED: ENDBRANCH  13  14
DOCKED: ENDBRANCH  12  13
DOCKED: ENDBRANCH   2  12
DOCKED: BRANCH   2  18
DOCKED: ATOM     18  C   UNL     1     -40.655 -18.242  12.577 -0.13 +0.00    +0.006 A  
DOCKED: ATOM     19  C   UNL     1     -39.480 -18.873  12.173 -0.23 +0.00    +0.001 A  
DOCKED: ATOM     20  C   UNL     1     -38.814 -19.730  13.050 -0.18 +0.00    +0.029 A  
DOCKED: ATOM     21  C   UNL     1     -39.323 -19.954  14.328 -0.07 +0.00    +0.140 A  
DOCKED: ATOM     22  C   UNL     1     -40.498 -19.321  14.731 -0.15 +0.00    +0.029 A  
DOCKED: ATOM     23  F   UNL     1     -38.682 -20.775  15.170 -0.10 -0.00    -0.204 F  
DOCKED: ATOM     24  C   UNL     1     -41.166 -18.464  13.855 -0.11 +0.00    +0.001 A  
DOCKED: ENDBRANCH   2  18
DOCKED: TORSDOF 5
DOCKED: TER
DOCKED: ENDMDL
________________________________________________________________________________


    FINAL DOCKED STATE:
    ________________________


Run:   102 / 512
Time taken for this run:   0.002s

DOCKED: MODEL        102
DOCKED: USER    Run = 102
DOCKED: USER
DOCKED: USER    Estimated Free Energy of Binding    =  -4.08 kcal/mol  [=(1)+(2)+(3)-(4)]
DOCKED: USER
DOCKED: USER    (1) Final Intermolecular Energy     =  -5.57 kcal/mol
DOCKED: USER        vdW + Hbond + desolv Energy     =  -5.57 kcal/mol
DOCKED: USER        Electrostatic Energy            =  +0.00 kcal/mol
DOCKED: USER        Moving Ligand-Fixed Receptor    =  -5.57 kcal/mol
DOCKED: USER        Moving Ligand-Moving Receptor   =  +0.00 kcal/mol
DOCKED: USER    (2) Final Total Internal Energy     =  -1.50 kcal/mol
DOCKED: USER    (3) Torsional Free Energy           =  +1.49 kcal/mol
DOCKED: USER    (4) Unbound System's Energy         =  -1.50 kcal/mol
DOCKED: USER
DOCKED: USER
DOCKED: REMARK  5 active torsions:
DOCKED: REMARK  status: ('A' for Active; 'I' for Inactive)
DOCKED: REMARK    1  A    between atoms: C_2  and  C_19 
DOCKED: REMARK    2  A    between atoms: C_2  and  C_11 
DOCKED: REMARK    3  A    between atoms: C_19  and  C_20 
DOCKED: REMARK    4  A    between atoms: C_20  and  C_21 
DOCKED: REMARK    5  A    between atoms: C_21  and  N_22 
DOCKED: USER                              x       y       z     vdW  Elec       q    Type
DOCKED: USER                           _______ _______ _______ _____ _____    ______ ____
DOCKED: ROOT
DOCKED: ATOM      1  O   UNL     1     -37.870 -14.553  11.521 -0.03 -0.00    -0.346 OA 
DOCKED: ATOM      2  C   UNL     1     -39.251 -14.251  11.144 -0.12 +0.00    +0.130 C  
DOCKED: ATOM      3  C   UNL     1     -39.750 -15.536  10.548 -0.21 +0.00    +0.004 A  
DOCKED: ATOM      4  C   UNL     1     -38.778 -16.518  10.675 -0.23 +0.00    +0.006 A  
DOCKED: ATOM      5  C   UNL     1     -37.591 -15.964  11.364 -0.14 +0.00    +0.169 C  
DOCKED: ATOM      6  C   UNL     1     -40.971 -15.817   9.953 -0.21 -0.00    -0.001 A  
DOCKED: ATOM      7  C   UNL     1     -38.988 -17.805  10.210 -0.31 +0.00    +0.008 A  
DOCKED: ATOM      8  C   UNL     1     -41.197 -17.109   9.475 -0.23 +0.00    +0.010 A  
DOCKED: ATOM      9  C   UNL     1     -40.210 -18.098   9.604 -0.28 +0.00    +0.068 A  
DOCKED: ATOM     10  N   UNL     1     -40.664 -20.487   8.710 -2.60 -0.00    -0.191 NA 
DOCKED: ATOM     11  C   UNL     1     -40.460 -19.415   9.110 -0.36 +0.00    +0.101 C  
DOCKED: ENDROOT
DOCKED: BRANCH   2  12
DOCKED: ATOM     12  C   UNL     1     -40.016 -13.842  12.397 -0.05 +0.00    +0.038 C  
DOCKED: BRANCH  12  13
DOCKED: ATOM     13  C   UNL     1     -39.065 -13.452  13.527 -0.01 +0.00    +0.038 C  
DOCKED: BRANCH  13  14
DOCKED: ATOM     14  C   UNL     1     -38.374 -12.122  13.229 -0.00 +0.00    +0.251 C  
DOCKED: BRANCH  14  15
DOCKED: ATOM     15  N   UNL     1     -36.951 -12.211  13.531 -0.00 +0.00    +0.141 N  
DOCKED: ATOM     16  C   UNL     1     -36.666 -13.406  14.328 -0.00 +0.00    +0.285 C  
DOCKED: ATOM     17  C   UNL     1     -36.161 -12.223  12.299 -0.00 +0.00    +0.285 C  
DOCKED: ENDBRANCH  14  15
DOCKED: ENDBRANCH  13  14
DOCKED: ENDBRANCH  12  13
DOCKED: ENDBRANCH   2  12
DOCKED: BRANCH   2  18
DOCKED: ATOM     18  C   UNL     1     -39.199 -13.134  10.155 -0.16 +0.00    +0.006 A  
DOCKED: ATOM     19  C   UNL     1     -40.370 -12.468   9.796 -0.19 +0.00    +0.001 A  
DOCKED: ATOM     20  C   UNL     1     -40.320 -11.423   8.871 -0.14 +0.00    +0.029 A  
DOCKED: ATOM     21  C   UNL     1     -39.101 -11.047   8.309 -0.09 +0.00    +0.140 A  
DOCKED: ATOM     22  C   UNL     1     -37.930 -11.715   8.670 -0.07 +0.00    +0.029 A  
DOCKED: ATOM     23  F   UNL     1     -39.053 -10.044   7.423 -0.03 -0.00    -0.204 F  
DOCKED: ATOM     24  C   UNL     1     -37.979 -12.760   9.594 -0.12 +0.00    +0.001 A  
DOCKED: ENDBRANCH   2  18
DOCKED: TORSDOF 5
DOCKED: TER
DOCKED: ENDMDL
________________________________________________________________________________


    FINAL DOCKED STATE:
    ________________________


Run:   103 / 512
Time taken for this run:   0.002s

DOCKED: MODEL        103
DOCKED: USER    Run = 103
DOCKED: USER
DOCKED: USER    Estimated Free Energy of Binding    =  -5.65 kcal/mol  [=(1)+(2)+(3)-(4)]
DOCKED: USER
DOCKED: USER    (1) Final Intermolecular Energy     =  -7.15 kcal/mol
DOCKED: USER        vdW + Hbond + desolv Energy     =  -7.15 kcal/mol
DOCKED: USER        Electrostatic Energy            =  +0.00 kcal/mol
DOCKED: USER        Moving Ligand-Fixed Receptor    =  -7.15 kcal/mol
DOCKED: USER        Moving Ligand-Moving Receptor   =  +0.00 kcal/mol
DOCKED: USER    (2) Final Total Internal Energy     =  -1.22 kcal/mol
DOCKED: USER    (3) Torsional Free Energy           =  +1.49 kcal/mol
DOCKED: USER    (4) Unbound System's Energy         =  -1.22 kcal/mol
DOCKED: USER
DOCKED: USER
DOCKED: REMARK  5 active torsions:
DOCKED: REMARK  status: ('A' for Active; 'I' for Inactive)
DOCKED: REMARK    1  A    between atoms: C_2  and  C_19 
DOCKED: REMARK    2  A    between atoms: C_2  and  C_11 
DOCKED: REMARK    3  A    between atoms: C_19  and  C_20 
DOCKED: REMARK    4  A    between atoms: C_20  and  C_21 
DOCKED: REMARK    5  A    between atoms: C_21  and  N_22 
DOCKED: USER                              x       y       z     vdW  Elec       q    Type
DOCKED: USER                           _______ _______ _______ _____ _____    ______ ____
DOCKED: ROOT
DOCKED: ATOM      1  O   UNL     1     -37.906 -19.314  11.498 -0.10 -0.00    -0.346 OA 
DOCKED: ATOM      2  C   UNL     1     -38.351 -17.933  11.302 -0.24 +0.00    +0.130 C  
DOCKED: ATOM      3  C   UNL     1     -38.985 -17.949   9.942 -0.33 +0.00    +0.004 A  
DOCKED: ATOM      4  C   UNL     1     -39.001 -19.246   9.449 -0.42 +0.00    +0.006 A  
DOCKED: ATOM      5  C   UNL     1     -38.399 -20.167  10.439 -0.17 +0.00    +0.169 C  
DOCKED: ATOM      6  C   UNL     1     -39.515 -16.901   9.204 -0.33 -0.00    -0.001 A  
DOCKED: ATOM      7  C   UNL     1     -39.540 -19.539   8.208 -0.45 +0.00    +0.008 A  
DOCKED: ATOM      8  C   UNL     1     -40.059 -17.179   7.948 +0.13 +0.00    +0.010 A  
DOCKED: ATOM      9  C   UNL     1     -40.072 -18.492   7.454 -0.40 +0.00    +0.068 A  
DOCKED: ATOM     10  N   UNL     1     -41.093 -18.975   5.122 -2.82 -0.00    -0.191 NA 
DOCKED: ATOM     11  C   UNL     1     -40.634 -18.758   6.167 -0.44 +0.00    +0.101 C  
DOCKED: ENDROOT
DOCKED: BRANCH   2  12
DOCKED: ATOM     12  C   UNL     1     -39.335 -17.581  12.412 -0.15 +0.00    +0.038 C  
DOCKED: BRANCH  12  13
DOCKED: ATOM     13  C   UNL     1     -40.686 -18.260  12.193 -0.17 +0.00    +0.038 C  
DOCKED: BRANCH  13  14
DOCKED: ATOM     14  C   UNL     1     -41.694 -17.291  11.579 -0.05 +0.00    +0.251 C  
DOCKED: BRANCH  14  15
DOCKED: ATOM     15  N   UNL     1     -42.857 -18.016  11.081 -0.12 +0.00    +0.141 N  
DOCKED: ATOM     16  C   UNL     1     -44.022 -17.133  11.003 -0.09 +0.00    +0.285 C  
DOCKED: ATOM     17  C   UNL     1     -42.576 -18.602   9.769 -0.12 +0.00    +0.285 C  
DOCKED: ENDBRANCH  14  15
DOCKED: ENDBRANCH  13  14
DOCKED: ENDBRANCH  12  13
DOCKED: ENDBRANCH   2  12
DOCKED: BRANCH   2  18
DOCKED: ATOM     18  C   UNL     1     -37.135 -17.070  11.367 -0.20 +0.00    +0.006 A  
DOCKED: ATOM     19  C   UNL     1     -35.931 -17.596  11.834 -0.16 +0.00    +0.001 A  
DOCKED: ATOM     20  C   UNL     1     -34.795 -16.787  11.895 -0.15 +0.00    +0.029 A  
DOCKED: ATOM     21  C   UNL     1     -34.865 -15.455  11.489 -0.09 +0.00    +0.140 A  
DOCKED: ATOM     22  C   UNL     1     -36.069 -14.930  11.021 -0.12 +0.00    +0.029 A  
DOCKED: ATOM     23  F   UNL     1     -33.774 -14.680  11.545 -0.01 -0.00    -0.204 F  
DOCKED: ATOM     24  C   UNL     1     -37.206 -15.738  10.961 -0.15 +0.00    +0.001 A  
DOCKED: ENDBRANCH   2  18
DOCKED: TORSDOF 5
DOCKED: TER
DOCKED: ENDMDL
________________________________________________________________________________


    FINAL DOCKED STATE:
    ________________________


Run:   104 / 512
Time taken for this run:   0.002s

DOCKED: MODEL        104
DOCKED: USER    Run = 104
DOCKED: USER
DOCKED: USER    Estimated Free Energy of Binding    =  -3.69 kcal/mol  [=(1)+(2)+(3)-(4)]
DOCKED: USER
DOCKED: USER    (1) Final Intermolecular Energy     =  -5.18 kcal/mol
DOCKED: USER        vdW + Hbond + desolv Energy     =  -5.18 kcal/mol
DOCKED: USER        Electrostatic Energy            =  +0.00 kcal/mol
DOCKED: USER        Moving Ligand-Fixed Receptor    =  -5.18 kcal/mol
DOCKED: USER        Moving Ligand-Moving Receptor   =  +0.00 kcal/mol
DOCKED: USER    (2) Final Total Internal Energy     =  -1.38 kcal/mol
DOCKED: USER    (3) Torsional Free Energy           =  +1.49 kcal/mol
DOCKED: USER    (4) Unbound System's Energy         =  -1.38 kcal/mol
DOCKED: USER
DOCKED: USER
DOCKED: REMARK  5 active torsions:
DOCKED: REMARK  status: ('A' for Active; 'I' for Inactive)
DOCKED: REMARK    1  A    between atoms: C_2  and  C_19 
DOCKED: REMARK    2  A    between atoms: C_2  and  C_11 
DOCKED: REMARK    3  A    between atoms: C_19  and  C_20 
DOCKED: REMARK    4  A    between atoms: C_20  and  C_21 
DOCKED: REMARK    5  A    between atoms: C_21  and  N_22 
DOCKED: USER                              x       y       z     vdW  Elec       q    Type
DOCKED: USER                           _______ _______ _______ _____ _____    ______ ____
DOCKED: ROOT
DOCKED: ATOM      1  O   UNL     1     -37.937 -15.339  12.749 -0.01 -0.00    -0.346 OA 
DOCKED: ATOM      2  C   UNL     1     -38.483 -14.705  11.549 -0.09 +0.00    +0.130 C  
DOCKED: ATOM      3  C   UNL     1     -39.013 -15.857  10.744 -0.21 +0.00    +0.004 A  
DOCKED: ATOM      4  C   UNL     1     -38.881 -17.033  11.468 -0.18 +0.00    +0.006 A  
DOCKED: ATOM      5  C   UNL     1     -38.276 -16.745  12.788 -0.08 +0.00    +0.169 C  
DOCKED: ATOM      6  C   UNL     1     -39.577 -15.861   9.476 -0.24 -0.00    -0.001 A  
DOCKED: ATOM      7  C   UNL     1     -39.301 -18.247  10.954 -0.26 +0.00    +0.008 A  
DOCKED: ATOM      8  C   UNL     1     -40.001 -17.079   8.941 -0.31 +0.00    +0.010 A  
DOCKED: ATOM      9  C   UNL     1     -39.864 -18.266   9.677 -0.30 +0.00    +0.068 A  
DOCKED: ATOM     10  N   UNL     1     -40.667 -20.508   8.656 -2.58 -0.00    -0.191 NA 
DOCKED: ATOM     11  C   UNL     1     -40.306 -19.502   9.114 -0.31 +0.00    +0.101 C  
DOCKED: ENDROOT
DOCKED: BRANCH   2  12
DOCKED: ATOM     12  C   UNL     1     -39.573 -13.727  11.973 -0.06 +0.00    +0.038 C  
DOCKED: BRANCH  12  13
DOCKED: ATOM     13  C   UNL     1     -39.534 -13.469  13.478 -0.02 +0.00    +0.038 C  
DOCKED: BRANCH  13  14
DOCKED: ATOM     14  C   UNL     1     -38.292 -12.668  13.866 -0.00 +0.00    +0.251 C  
DOCKED: BRANCH  14  15
DOCKED: ATOM     15  N   UNL     1     -37.594 -13.319  14.968 -0.00 +0.00    +0.141 N  
DOCKED: ATOM     16  C   UNL     1     -36.824 -12.342  15.740 +0.00 +0.00    +0.285 C  
DOCKED: ATOM     17  C   UNL     1     -38.541 -14.020  15.837 -0.00 +0.00    +0.285 C  
DOCKED: ENDBRANCH  14  15
DOCKED: ENDBRANCH  13  14
DOCKED: ENDBRANCH  12  13
DOCKED: ENDBRANCH   2  12
DOCKED: BRANCH   2  18
DOCKED: ATOM     18  C   UNL     1     -37.355 -13.996  10.877 -0.12 +0.00    +0.006 A  
DOCKED: ATOM     19  C   UNL     1     -37.513 -12.677  10.456 -0.09 +0.00    +0.001 A  
DOCKED: ATOM     20  C   UNL     1     -36.458 -12.015   9.828 -0.06 +0.00    +0.029 A  
DOCKED: ATOM     21  C   UNL     1     -35.246 -12.673   9.622 -0.05 +0.00    +0.140 A  
DOCKED: ATOM     22  C   UNL     1     -35.088 -13.993  10.044 -0.10 +0.00    +0.029 A  
DOCKED: ATOM     23  F   UNL     1     -34.232 -12.037   9.021 -0.00 -0.00    -0.204 F  
DOCKED: ATOM     24  C   UNL     1     -36.144 -14.656  10.672 -0.12 +0.00    +0.001 A  
DOCKED: ENDBRANCH   2  18
DOCKED: TORSDOF 5
DOCKED: TER
DOCKED: ENDMDL
________________________________________________________________________________


    FINAL DOCKED STATE:
    ________________________


Run:   105 / 512
Time taken for this run:   0.002s

DOCKED: MODEL        105
DOCKED: USER    Run = 105
DOCKED: USER
DOCKED: USER    Estimated Free Energy of Binding    =  -4.46 kcal/mol  [=(1)+(2)+(3)-(4)]
DOCKED: USER
DOCKED: USER    (1) Final Intermolecular Energy     =  -5.95 kcal/mol
DOCKED: USER        vdW + Hbond + desolv Energy     =  -5.95 kcal/mol
DOCKED: USER        Electrostatic Energy            =  +0.00 kcal/mol
DOCKED: USER        Moving Ligand-Fixed Receptor    =  -5.95 kcal/mol
DOCKED: USER        Moving Ligand-Moving Receptor   =  +0.00 kcal/mol
DOCKED: USER    (2) Final Total Internal Energy     =  -1.05 kcal/mol
DOCKED: USER    (3) Torsional Free Energy           =  +1.49 kcal/mol
DOCKED: USER    (4) Unbound System's Energy         =  -1.05 kcal/mol
DOCKED: USER
DOCKED: USER
DOCKED: REMARK  5 active torsions:
DOCKED: REMARK  status: ('A' for Active; 'I' for Inactive)
DOCKED: REMARK    1  A    between atoms: C_2  and  C_19 
DOCKED: REMARK    2  A    between atoms: C_2  and  C_11 
DOCKED: REMARK    3  A    between atoms: C_19  and  C_20 
DOCKED: REMARK    4  A    between atoms: C_20  and  C_21 
DOCKED: REMARK    5  A    between atoms: C_21  and  N_22 
DOCKED: USER                              x       y       z     vdW  Elec       q    Type
DOCKED: USER                           _______ _______ _______ _____ _____    ______ ____
DOCKED: ROOT
DOCKED: ATOM      1  O   UNL     1     -40.723 -18.008  12.366 -0.01 -0.00    -0.346 OA 
DOCKED: ATOM      2  C   UNL     1     -39.873 -17.001  11.729 -0.11 +0.00    +0.130 C  
DOCKED: ATOM      3  C   UNL     1     -39.980 -17.314  10.265 -0.26 +0.00    +0.004 A  
DOCKED: ATOM      4  C   UNL     1     -40.897 -18.338  10.072 -0.26 +0.00    +0.006 A  
DOCKED: ATOM      5  C   UNL     1     -41.462 -18.758  11.374 -0.15 +0.00    +0.169 C  
DOCKED: ATOM      6  C   UNL     1     -39.327 -16.732   9.188 -0.30 -0.00    -0.001 A  
DOCKED: ATOM      7  C   UNL     1     -41.188 -18.815   8.806 -0.37 +0.00    +0.008 A  
DOCKED: ATOM      8  C   UNL     1     -39.606 -17.205   7.905 +0.09 +0.00    +0.010 A  
DOCKED: ATOM      9  C   UNL     1     -40.533 -18.241   7.715 -0.37 +0.00    +0.068 A  
DOCKED: ATOM     10  N   UNL     1     -41.033 -19.093   5.320 -2.54 -0.00    -0.191 NA 
DOCKED: ATOM     11  C   UNL     1     -40.808 -18.711   6.394 -0.42 +0.00    +0.101 C  
DOCKED: ENDROOT
DOCKED: BRANCH   2  12
DOCKED: ATOM     12  C   UNL     1     -40.412 -15.620  12.082 -0.08 +0.00    +0.038 C  
DOCKED: BRANCH  12  13
DOCKED: ATOM     13  C   UNL     1     -41.938 -15.589  12.033 -0.09 +0.00    +0.038 C  
DOCKED: BRANCH  13  14
DOCKED: ATOM     14  C   UNL     1     -42.446 -14.224  11.572 -0.07 +0.00    +0.251 C  
DOCKED: BRANCH  14  15
DOCKED: ATOM     15  N   UNL     1     -43.688 -14.372  10.822 -0.15 +0.00    +0.141 N  
DOCKED: ATOM     16  C   UNL     1     -44.032 -13.122  10.142 -0.13 +0.00    +0.285 C  
DOCKED: ATOM     17  C   UNL     1     -43.578 -15.463   9.852 +0.03 +0.00    +0.285 C  
DOCKED: ENDBRANCH  14  15
DOCKED: ENDBRANCH  13  14
DOCKED: ENDBRANCH  12  13
DOCKED: ENDBRANCH   2  12
DOCKED: BRANCH   2  18
DOCKED: ATOM     18  C   UNL     1     -38.493 -17.194  12.266 -0.14 +0.00    +0.006 A  
DOCKED: ATOM     19  C   UNL     1     -38.239 -16.994  13.622 -0.08 +0.00    +0.001 A  
DOCKED: ATOM     20  C   UNL     1     -36.949 -17.174  14.122 -0.08 +0.00    +0.029 A  
DOCKED: ATOM     21  C   UNL     1     -35.916 -17.553  13.266 -0.07 +0.00    +0.140 A  
DOCKED: ATOM     22  C   UNL     1     -36.171 -17.753  11.910 -0.11 +0.00    +0.029 A  
DOCKED: ATOM     23  F   UNL     1     -34.678 -17.728  13.747 -0.02 -0.00    -0.204 F  
DOCKED: ATOM     24  C   UNL     1     -37.461 -17.573  11.408 -0.24 +0.00    +0.001 A  
DOCKED: ENDBRANCH   2  18
DOCKED: TORSDOF 5
DOCKED: TER
DOCKED: ENDMDL
________________________________________________________________________________


    FINAL DOCKED STATE:
    ________________________


Run:   106 / 512
Time taken for this run:   0.002s

DOCKED: MODEL        106
DOCKED: USER    Run = 106
DOCKED: USER
DOCKED: USER    Estimated Free Energy of Binding    =  -4.52 kcal/mol  [=(1)+(2)+(3)-(4)]
DOCKED: USER
DOCKED: USER    (1) Final Intermolecular Energy     =  -6.01 kcal/mol
DOCKED: USER        vdW + Hbond + desolv Energy     =  -6.01 kcal/mol
DOCKED: USER        Electrostatic Energy            =  +0.00 kcal/mol
DOCKED: USER        Moving Ligand-Fixed Receptor    =  -6.01 kcal/mol
DOCKED: USER        Moving Ligand-Moving Receptor   =  +0.00 kcal/mol
DOCKED: USER    (2) Final Total Internal Energy     =  -1.34 kcal/mol
DOCKED: USER    (3) Torsional Free Energy           =  +1.49 kcal/mol
DOCKED: USER    (4) Unbound System's Energy         =  -1.34 kcal/mol
DOCKED: USER
DOCKED: USER
DOCKED: REMARK  5 active torsions:
DOCKED: REMARK  status: ('A' for Active; 'I' for Inactive)
DOCKED: REMARK    1  A    between atoms: C_2  and  C_19 
DOCKED: REMARK    2  A    between atoms: C_2  and  C_11 
DOCKED: REMARK    3  A    between atoms: C_19  and  C_20 
DOCKED: REMARK    4  A    between atoms: C_20  and  C_21 
DOCKED: REMARK    5  A    between atoms: C_21  and  N_22 
DOCKED: USER                              x       y       z     vdW  Elec       q    Type
DOCKED: USER                           _______ _______ _______ _____ _____    ______ ____
DOCKED: ROOT
DOCKED: ATOM      1  O   UNL     1     -39.260 -13.958  10.819 -0.05 -0.00    -0.346 OA 
DOCKED: ATOM      2  C   UNL     1     -40.655 -14.255  11.148 -0.13 +0.00    +0.130 C  
DOCKED: ATOM      3  C   UNL     1     -40.874 -15.628  10.582 -0.21 +0.00    +0.004 A  
DOCKED: ATOM      4  C   UNL     1     -39.680 -16.119  10.073 -0.27 +0.00    +0.006 A  
DOCKED: ATOM      5  C   UNL     1     -38.602 -15.125  10.274 -0.19 +0.00    +0.169 C  
DOCKED: ATOM      6  C   UNL     1     -42.034 -16.387  10.533 -0.20 -0.00    -0.001 A  
DOCKED: ATOM      7  C   UNL     1     -39.605 -17.375   9.495 -0.34 +0.00    +0.008 A  
DOCKED: ATOM      8  C   UNL     1     -41.976 -17.655   9.950 -0.24 +0.00    +0.010 A  
DOCKED: ATOM      9  C   UNL     1     -40.767 -18.146   9.434 -0.26 +0.00    +0.068 A  
DOCKED: ATOM     10  N   UNL     1     -40.692 -20.504   8.364 -2.39 -0.00    -0.191 NA 
DOCKED: ATOM     11  C   UNL     1     -40.726 -19.446   8.843 -0.39 +0.00    +0.101 C  
DOCKED: ENDROOT
DOCKED: BRANCH   2  12
DOCKED: ATOM     12  C   UNL     1     -40.815 -14.205  12.663 -0.04 +0.00    +0.038 C  
DOCKED: BRANCH  12  13
DOCKED: ATOM     13  C   UNL     1     -41.028 -15.601  13.247 -0.04 +0.00    +0.038 C  
DOCKED: BRANCH  13  14
DOCKED: ATOM     14  C   UNL     1     -39.741 -16.137  13.872 -0.01 +0.00    +0.251 C  
DOCKED: BRANCH  14  15
DOCKED: ATOM     15  N   UNL     1     -38.966 -16.876  12.882 -0.05 +0.00    +0.141 N  
DOCKED: ATOM     16  C   UNL     1     -37.533 -16.661  13.084 -0.05 +0.00    +0.285 C  
DOCKED: ATOM     17  C   UNL     1     -39.279 -18.304  12.944 -0.09 +0.00    +0.285 C  
DOCKED: ENDBRANCH  14  15
DOCKED: ENDBRANCH  13  14
DOCKED: ENDBRANCH  12  13
DOCKED: ENDBRANCH   2  12
DOCKED: BRANCH   2  18
DOCKED: ATOM     18  C   UNL     1     -41.492 -13.213  10.484 -0.20 +0.00    +0.006 A  
DOCKED: ATOM     19  C   UNL     1     -40.887 -12.225   9.708 -0.19 +0.00    +0.001 A  
DOCKED: ATOM     20  C   UNL     1     -41.670 -11.250   9.088 -0.15 +0.00    +0.029 A  
DOCKED: ATOM     21  C   UNL     1     -43.055 -11.265   9.244 -0.09 +0.00    +0.140 A  
DOCKED: ATOM     22  C   UNL     1     -43.659 -12.254  10.021 -0.19 +0.00    +0.029 A  
DOCKED: ATOM     23  F   UNL     1     -43.807 -10.331   8.648 -0.03 -0.00    -0.204 F  
DOCKED: ATOM     24  C   UNL     1     -42.877 -13.229  10.642 -0.20 +0.00    +0.001 A  
DOCKED: ENDBRANCH   2  18
DOCKED: TORSDOF 5
DOCKED: TER
DOCKED: ENDMDL
________________________________________________________________________________


    FINAL DOCKED STATE:
    ________________________


Run:   107 / 512
Time taken for this run:   0.002s

DOCKED: MODEL        107
DOCKED: USER    Run = 107
DOCKED: USER
DOCKED: USER    Estimated Free Energy of Binding    =  -3.88 kcal/mol  [=(1)+(2)+(3)-(4)]
DOCKED: USER
DOCKED: USER    (1) Final Intermolecular Energy     =  -5.37 kcal/mol
DOCKED: USER        vdW + Hbond + desolv Energy     =  -5.37 kcal/mol
DOCKED: USER        Electrostatic Energy            =  +0.00 kcal/mol
DOCKED: USER        Moving Ligand-Fixed Receptor    =  -5.37 kcal/mol
DOCKED: USER        Moving Ligand-Moving Receptor   =  +0.00 kcal/mol
DOCKED: USER    (2) Final Total Internal Energy     =  -1.37 kcal/mol
DOCKED: USER    (3) Torsional Free Energy           =  +1.49 kcal/mol
DOCKED: USER    (4) Unbound System's Energy         =  -1.37 kcal/mol
DOCKED: USER
DOCKED: USER
DOCKED: REMARK  5 active torsions:
DOCKED: REMARK  status: ('A' for Active; 'I' for Inactive)
DOCKED: REMARK    1  A    between atoms: C_2  and  C_19 
DOCKED: REMARK    2  A    between atoms: C_2  and  C_11 
DOCKED: REMARK    3  A    between atoms: C_19  and  C_20 
DOCKED: REMARK    4  A    between atoms: C_20  and  C_21 
DOCKED: REMARK    5  A    between atoms: C_21  and  N_22 
DOCKED: USER                              x       y       z     vdW  Elec       q    Type
DOCKED: USER                           _______ _______ _______ _____ _____    ______ ____
DOCKED: ROOT
DOCKED: ATOM      1  O   UNL     1     -34.932 -10.039   3.985 -0.05 -0.00    -0.346 OA 
DOCKED: ATOM      2  C   UNL     1     -36.317 -10.150   3.527 -0.22 +0.00    +0.130 C  
DOCKED: ATOM      3  C   UNL     1     -36.378  -9.236   2.338 -0.27 +0.00    +0.004 A  
DOCKED: ATOM      4  C   UNL     1     -35.112  -8.732   2.071 -0.16 +0.00    +0.006 A  
DOCKED: ATOM      5  C   UNL     1     -34.139  -9.280   3.042 -0.11 +0.00    +0.169 C  
DOCKED: ATOM      6  C   UNL     1     -37.463  -8.887   1.548 -0.31 -0.00    -0.001 A  
DOCKED: ATOM      7  C   UNL     1     -34.889  -7.865   1.015 -0.20 +0.00    +0.008 A  
DOCKED: ATOM      8  C   UNL     1     -37.256  -8.009   0.482 -0.41 +0.00    +0.010 A  
DOCKED: ATOM      9  C   UNL     1     -35.975  -7.502   0.217 -0.30 +0.00    +0.068 A  
DOCKED: ATOM     10  N   UNL     1     -35.624  -5.879  -1.772 -0.79 -0.00    -0.191 NA 
DOCKED: ATOM     11  C   UNL     1     -35.781  -6.606  -0.880 -0.37 +0.00    +0.101 C  
DOCKED: ENDROOT
DOCKED: BRANCH   2  12
DOCKED: ATOM     12  C   UNL     1     -36.593 -11.606   3.171 -0.21 +0.00    +0.038 C  
DOCKED: BRANCH  12  13
DOCKED: ATOM     13  C   UNL     1     -36.376 -12.523   4.373 -0.23 +0.00    +0.038 C  
DOCKED: BRANCH  13  14
DOCKED: ATOM     14  C   UNL     1     -35.078 -13.315   4.232 -0.13 +0.00    +0.251 C  
DOCKED: BRANCH  14  15
DOCKED: ATOM     15  N   UNL     1     -34.354 -12.895   3.038 -0.10 +0.00    +0.141 N  
DOCKED: ATOM     16  C   UNL     1     -32.997 -12.467   3.381 -0.01 +0.00    +0.285 C  
DOCKED: ATOM     17  C   UNL     1     -34.312 -13.977   2.053 -0.15 +0.00    +0.285 C  
DOCKED: ENDBRANCH  14  15
DOCKED: ENDBRANCH  13  14
DOCKED: ENDBRANCH  12  13
DOCKED: ENDBRANCH   2  12
DOCKED: BRANCH   2  18
DOCKED: ATOM     18  C   UNL     1     -37.186  -9.697   4.653 -0.27 +0.00    +0.006 A  
DOCKED: ATOM     19  C   UNL     1     -36.620  -9.060   5.757 -0.21 +0.00    +0.001 A  
DOCKED: ATOM     20  C   UNL     1     -37.433  -8.638   6.809 -0.20 +0.00    +0.029 A  
DOCKED: ATOM     21  C   UNL     1     -38.810  -8.851   6.756 -0.14 +0.00    +0.140 A  
DOCKED: ATOM     22  C   UNL     1     -39.375  -9.487   5.651 -0.27 +0.00    +0.029 A  
DOCKED: ATOM     23  F   UNL     1     -39.591  -8.444   7.765 +0.00 -0.00    -0.204 F  
DOCKED: ATOM     24  C   UNL     1     -38.563  -9.911   4.598 -0.26 +0.00    +0.001 A  
DOCKED: ENDBRANCH   2  18
DOCKED: TORSDOF 5
DOCKED: TER
DOCKED: ENDMDL
________________________________________________________________________________


    FINAL DOCKED STATE:
    ________________________


Run:   108 / 512
Time taken for this run:   0.002s

DOCKED: MODEL        108
DOCKED: USER    Run = 108
DOCKED: USER
DOCKED: USER    Estimated Free Energy of Binding    =  -5.82 kcal/mol  [=(1)+(2)+(3)-(4)]
DOCKED: USER
DOCKED: USER    (1) Final Intermolecular Energy     =  -7.31 kcal/mol
DOCKED: USER        vdW + Hbond + desolv Energy     =  -7.31 kcal/mol
DOCKED: USER        Electrostatic Energy            =  +0.00 kcal/mol
DOCKED: USER        Moving Ligand-Fixed Receptor    =  -7.31 kcal/mol
DOCKED: USER        Moving Ligand-Moving Receptor   =  +0.00 kcal/mol
DOCKED: USER    (2) Final Total Internal Energy     =  -0.98 kcal/mol
DOCKED: USER    (3) Torsional Free Energy           =  +1.49 kcal/mol
DOCKED: USER    (4) Unbound System's Energy         =  -0.98 kcal/mol
DOCKED: USER
DOCKED: USER
DOCKED: REMARK  5 active torsions:
DOCKED: REMARK  status: ('A' for Active; 'I' for Inactive)
DOCKED: REMARK    1  A    between atoms: C_2  and  C_19 
DOCKED: REMARK    2  A    between atoms: C_2  and  C_11 
DOCKED: REMARK    3  A    between atoms: C_19  and  C_20 
DOCKED: REMARK    4  A    between atoms: C_20  and  C_21 
DOCKED: REMARK    5  A    between atoms: C_21  and  N_22 
DOCKED: USER                              x       y       z     vdW  Elec       q    Type
DOCKED: USER                           _______ _______ _______ _____ _____    ______ ____
DOCKED: ROOT
DOCKED: ATOM      1  O   UNL     1     -38.901 -19.024  11.408 -0.17 -0.00    -0.346 OA 
DOCKED: ATOM      2  C   UNL     1     -40.276 -18.524  11.396 -0.18 +0.00    +0.130 C  
DOCKED: ATOM      3  C   UNL     1     -40.657 -18.554   9.944 -0.28 +0.00    +0.004 A  
DOCKED: ATOM      4  C   UNL     1     -39.630 -19.125   9.204 -0.42 +0.00    +0.006 A  
DOCKED: ATOM      5  C   UNL     1     -38.522 -19.517  10.102 -0.34 +0.00    +0.169 C  
DOCKED: ATOM      6  C   UNL     1     -41.822 -18.122   9.329 -0.29 -0.00    -0.001 A  
DOCKED: ATOM      7  C   UNL     1     -39.731 -19.278   7.832 -0.45 +0.00    +0.008 A  
DOCKED: ATOM      8  C   UNL     1     -41.937 -18.266   7.945 -0.23 +0.00    +0.010 A  
DOCKED: ATOM      9  C   UNL     1     -40.896 -18.841   7.201 -0.41 +0.00    +0.068 A  
DOCKED: ATOM     10  N   UNL     1     -41.143 -19.098   4.634 -3.03 -0.00    -0.191 NA 
DOCKED: ATOM     11  C   UNL     1     -41.032 -18.982   5.785 -0.29 +0.00    +0.101 C  
DOCKED: ENDROOT
DOCKED: BRANCH   2  12
DOCKED: ATOM     12  C   UNL     1     -41.133 -19.448  12.253 -0.25 +0.00    +0.038 C  
DOCKED: BRANCH  12  13
DOCKED: ATOM     13  C   UNL     1     -42.590 -18.992  12.279 -0.20 +0.00    +0.038 C  
DOCKED: BRANCH  13  14
DOCKED: ATOM     14  C   UNL     1     -43.150 -19.020  13.699 -0.06 +0.00    +0.251 C  
DOCKED: BRANCH  14  15
DOCKED: ATOM     15  N   UNL     1     -43.861 -20.270  13.940 -0.13 +0.00    +0.141 N  
DOCKED: ATOM     16  C   UNL     1     -44.028 -21.017  12.692 -0.08 +0.00    +0.285 C  
DOCKED: ATOM     17  C   UNL     1     -43.152 -21.084  14.928 -0.06 +0.00    +0.285 C  
DOCKED: ENDBRANCH  14  15
DOCKED: ENDBRANCH  13  14
DOCKED: ENDBRANCH  12  13
DOCKED: ENDBRANCH   2  12
DOCKED: BRANCH   2  18
DOCKED: ATOM     18  C   UNL     1     -40.243 -17.143  11.960 -0.11 +0.00    +0.006 A  
DOCKED: ATOM     19  C   UNL     1     -40.091 -16.047  11.111 -0.16 +0.00    +0.001 A  
DOCKED: ATOM     20  C   UNL     1     -40.060 -14.756  11.640 -0.09 +0.00    +0.029 A  
DOCKED: ATOM     21  C   UNL     1     -40.182 -14.563  13.015 -0.01 +0.00    +0.140 A  
DOCKED: ATOM     22  C   UNL     1     -40.335 -15.659  13.864 -0.02 +0.00    +0.029 A  
DOCKED: ATOM     23  F   UNL     1     -40.155 -13.324  13.522 +0.00 -0.00    -0.204 F  
DOCKED: ATOM     24  C   UNL     1     -40.366 -16.951  13.336 -0.06 +0.00    +0.001 A  
DOCKED: ENDBRANCH   2  18
DOCKED: TORSDOF 5
DOCKED: TER
DOCKED: ENDMDL
________________________________________________________________________________


    FINAL DOCKED STATE:
    ________________________


Run:   109 / 512
Time taken for this run:   0.002s

DOCKED: MODEL        109
DOCKED: USER    Run = 109
DOCKED: USER
DOCKED: USER    Estimated Free Energy of Binding    =  -4.32 kcal/mol  [=(1)+(2)+(3)-(4)]
DOCKED: USER
DOCKED: USER    (1) Final Intermolecular Energy     =  -5.81 kcal/mol
DOCKED: USER        vdW + Hbond + desolv Energy     =  -5.81 kcal/mol
DOCKED: USER        Electrostatic Energy            =  +0.00 kcal/mol
DOCKED: USER        Moving Ligand-Fixed Receptor    =  -5.81 kcal/mol
DOCKED: USER        Moving Ligand-Moving Receptor   =  +0.00 kcal/mol
DOCKED: USER    (2) Final Total Internal Energy     =  -1.10 kcal/mol
DOCKED: USER    (3) Torsional Free Energy           =  +1.49 kcal/mol
DOCKED: USER    (4) Unbound System's Energy         =  -1.10 kcal/mol
DOCKED: USER
DOCKED: USER
DOCKED: REMARK  5 active torsions:
DOCKED: REMARK  status: ('A' for Active; 'I' for Inactive)
DOCKED: REMARK    1  A    between atoms: C_2  and  C_19 
DOCKED: REMARK    2  A    between atoms: C_2  and  C_11 
DOCKED: REMARK    3  A    between atoms: C_19  and  C_20 
DOCKED: REMARK    4  A    between atoms: C_20  and  C_21 
DOCKED: REMARK    5  A    between atoms: C_21  and  N_22 
DOCKED: USER                              x       y       z     vdW  Elec       q    Type
DOCKED: USER                           _______ _______ _______ _____ _____    ______ ____
DOCKED: ROOT
DOCKED: ATOM      1  O   UNL     1     -34.663 -10.724   2.822 -0.02 -0.00    -0.346 OA 
DOCKED: ATOM      2  C   UNL     1     -33.844 -10.700   1.610 -0.07 +0.00    +0.130 C  
DOCKED: ATOM      3  C   UNL     1     -34.631  -9.844   0.660 -0.16 +0.00    +0.004 A  
DOCKED: ATOM      4  C   UNL     1     -35.746  -9.332   1.308 -0.26 +0.00    +0.006 A  
DOCKED: ATOM      5  C   UNL     1     -35.768  -9.797   2.713 -0.20 +0.00    +0.169 C  
DOCKED: ATOM      6  C   UNL     1     -34.374  -9.533  -0.667 -0.16 -0.00    -0.001 A  
DOCKED: ATOM      7  C   UNL     1     -36.641  -8.501   0.656 -0.31 +0.00    +0.008 A  
DOCKED: ATOM      8  C   UNL     1     -35.269  -8.700  -1.340 -0.20 +0.00    +0.010 A  
DOCKED: ATOM      9  C   UNL     1     -36.396  -8.186  -0.682 -0.13 +0.00    +0.068 A  
DOCKED: ATOM     10  N   UNL     1     -38.034  -6.638  -1.960 -2.46 -0.00    -0.191 NA 
DOCKED: ATOM     11  C   UNL     1     -37.300  -7.333  -1.387 -0.37 +0.00    +0.101 C  
DOCKED: ENDROOT
DOCKED: BRANCH   2  12
DOCKED: ATOM     12  C   UNL     1     -32.484 -10.106   1.958 -0.03 +0.00    +0.038 C  
DOCKED: BRANCH  12  13
DOCKED: ATOM     13  C   UNL     1     -32.622  -8.924   2.915 -0.08 +0.00    +0.038 C  
DOCKED: BRANCH  13  14
DOCKED: ATOM     14  C   UNL     1     -32.821  -7.617   2.150 -0.08 +0.00    +0.251 C  
DOCKED: BRANCH  14  15
DOCKED: ATOM     15  N   UNL     1     -32.687  -6.477   3.050 -0.13 +0.00    +0.141 N  
DOCKED: ATOM     16  C   UNL     1     -31.778  -6.794   4.153 -0.07 +0.00    +0.285 C  
DOCKED: ATOM     17  C   UNL     1     -32.210  -5.300   2.322 -0.08 +0.00    +0.285 C  
DOCKED: ENDBRANCH  14  15
DOCKED: ENDBRANCH  13  14
DOCKED: ENDBRANCH  12  13
DOCKED: ENDBRANCH   2  12
DOCKED: BRANCH   2  18
DOCKED: ATOM     18  C   UNL     1     -33.711 -12.112   1.145 -0.11 +0.00    +0.006 A  
DOCKED: ATOM     19  C   UNL     1     -32.659 -12.902   1.608 -0.04 +0.00    +0.001 A  
DOCKED: ATOM     20  C   UNL     1     -32.536 -14.222   1.173 -0.09 +0.00    +0.029 A  
DOCKED: ATOM     21  C   UNL     1     -33.464 -14.750   0.276 -0.19 +0.00    +0.140 A  
DOCKED: ATOM     22  C   UNL     1     -34.516 -13.960  -0.186 -0.25 +0.00    +0.029 A  
DOCKED: ATOM     23  F   UNL     1     -33.346 -16.018  -0.140 -0.11 -0.00    -0.204 F  
DOCKED: ATOM     24  C   UNL     1     -34.640 -12.639   0.249 -0.22 +0.00    +0.001 A  
DOCKED: ENDBRANCH   2  18
DOCKED: TORSDOF 5
DOCKED: TER
DOCKED: ENDMDL
________________________________________________________________________________


    FINAL DOCKED STATE:
    ________________________


Run:   110 / 512
Time taken for this run:   0.002s

DOCKED: MODEL        110
DOCKED: USER    Run = 110
DOCKED: USER
DOCKED: USER    Estimated Free Energy of Binding    =  -6.47 kcal/mol  [=(1)+(2)+(3)-(4)]
DOCKED: USER
DOCKED: USER    (1) Final Intermolecular Energy     =  -7.96 kcal/mol
DOCKED: USER        vdW + Hbond + desolv Energy     =  -7.96 kcal/mol
DOCKED: USER        Electrostatic Energy            =  +0.00 kcal/mol
DOCKED: USER        Moving Ligand-Fixed Receptor    =  -7.96 kcal/mol
DOCKED: USER        Moving Ligand-Moving Receptor   =  +0.00 kcal/mol
DOCKED: USER    (2) Final Total Internal Energy     =  -0.94 kcal/mol
DOCKED: USER    (3) Torsional Free Energy           =  +1.49 kcal/mol
DOCKED: USER    (4) Unbound System's Energy         =  -0.94 kcal/mol
DOCKED: USER
DOCKED: USER
DOCKED: REMARK  5 active torsions:
DOCKED: REMARK  status: ('A' for Active; 'I' for Inactive)
DOCKED: REMARK    1  A    between atoms: C_2  and  C_19 
DOCKED: REMARK    2  A    between atoms: C_2  and  C_11 
DOCKED: REMARK    3  A    between atoms: C_19  and  C_20 
DOCKED: REMARK    4  A    between atoms: C_20  and  C_21 
DOCKED: REMARK    5  A    between atoms: C_21  and  N_22 
DOCKED: USER                              x       y       z     vdW  Elec       q    Type
DOCKED: USER                           _______ _______ _______ _____ _____    ______ ____
DOCKED: ROOT
DOCKED: ATOM      1  O   UNL     1     -38.412 -19.941  11.035 -0.63 -0.00    -0.346 OA 
DOCKED: ATOM      2  C   UNL     1     -39.584 -19.079  11.198 -0.25 +0.00    +0.130 C  
DOCKED: ATOM      3  C   UNL     1     -40.110 -18.921   9.801 -0.34 +0.00    +0.004 A  
DOCKED: ATOM      4  C   UNL     1     -39.372 -19.712   8.931 -0.38 +0.00    +0.006 A  
DOCKED: ATOM      5  C   UNL     1     -38.330 -20.447   9.682 -0.03 +0.00    +0.169 C  
DOCKED: ATOM      6  C   UNL     1     -41.165 -18.148   9.338 -0.31 -0.00    -0.001 A  
DOCKED: ATOM      7  C   UNL     1     -39.658 -19.755   7.577 -0.41 +0.00    +0.008 A  
DOCKED: ATOM      8  C   UNL     1     -41.463 -18.177   7.975 -0.25 +0.00    +0.010 A  
DOCKED: ATOM      9  C   UNL     1     -40.714 -18.977   7.099 -0.45 +0.00    +0.068 A  
DOCKED: ATOM     10  N   UNL     1     -41.296 -19.011   4.575 -3.23 -0.00    -0.191 NA 
DOCKED: ATOM     11  C   UNL     1     -41.034 -18.995   5.707 -0.29 +0.00    +0.101 C  
DOCKED: ENDROOT
DOCKED: BRANCH   2  12
DOCKED: ATOM     12  C   UNL     1     -40.570 -19.775  12.129 -0.28 +0.00    +0.038 C  
DOCKED: BRANCH  12  13
DOCKED: ATOM     13  C   UNL     1     -41.979 -19.208  11.971 -0.23 +0.00    +0.038 C  
DOCKED: BRANCH  13  14
DOCKED: ATOM     14  C   UNL     1     -42.031 -17.740  12.392 -0.04 +0.00    +0.251 C  
DOCKED: BRANCH  14  15
DOCKED: ATOM     15  N   UNL     1     -43.341 -17.173  12.092 -0.06 +0.00    +0.141 N  
DOCKED: ATOM     16  C   UNL     1     -44.009 -16.741  13.321 -0.01 +0.00    +0.285 C  
DOCKED: ATOM     17  C   UNL     1     -43.216 -16.050  11.161 -0.08 +0.00    +0.285 C  
DOCKED: ENDBRANCH  14  15
DOCKED: ENDBRANCH  13  14
DOCKED: ENDBRANCH  12  13
DOCKED: ENDBRANCH   2  12
DOCKED: BRANCH   2  18
DOCKED: ATOM     18  C   UNL     1     -39.102 -17.795  11.786 -0.18 +0.00    +0.006 A  
DOCKED: ATOM     19  C   UNL     1     -38.882 -16.691  10.964 -0.21 +0.00    +0.001 A  
DOCKED: ATOM     20  C   UNL     1     -38.431 -15.491  11.515 -0.12 +0.00    +0.029 A  
DOCKED: ATOM     21  C   UNL     1     -38.202 -15.397  12.887 -0.03 +0.00    +0.140 A  
DOCKED: ATOM     22  C   UNL     1     -38.422 -16.502  13.709 -0.05 +0.00    +0.029 A  
DOCKED: ATOM     23  F   UNL     1     -37.771 -14.244  13.416 +0.00 -0.00    -0.204 F  
DOCKED: ATOM     24  C   UNL     1     -38.872 -17.702  13.158 -0.12 +0.00    +0.001 A  
DOCKED: ENDBRANCH   2  18
DOCKED: TORSDOF 5
DOCKED: TER
DOCKED: ENDMDL
________________________________________________________________________________


    FINAL DOCKED STATE:
    ________________________


Run:   111 / 512
Time taken for this run:   0.002s

DOCKED: MODEL        111
DOCKED: USER    Run = 111
DOCKED: USER
DOCKED: USER    Estimated Free Energy of Binding    =  -4.54 kcal/mol  [=(1)+(2)+(3)-(4)]
DOCKED: USER
DOCKED: USER    (1) Final Intermolecular Energy     =  -6.03 kcal/mol
DOCKED: USER        vdW + Hbond + desolv Energy     =  -6.03 kcal/mol
DOCKED: USER        Electrostatic Energy            =  +0.00 kcal/mol
DOCKED: USER        Moving Ligand-Fixed Receptor    =  -6.03 kcal/mol
DOCKED: USER        Moving Ligand-Moving Receptor   =  +0.00 kcal/mol
DOCKED: USER    (2) Final Total Internal Energy     =  -1.34 kcal/mol
DOCKED: USER    (3) Torsional Free Energy           =  +1.49 kcal/mol
DOCKED: USER    (4) Unbound System's Energy         =  -1.34 kcal/mol
DOCKED: USER
DOCKED: USER
DOCKED: REMARK  5 active torsions:
DOCKED: REMARK  status: ('A' for Active; 'I' for Inactive)
DOCKED: REMARK    1  A    between atoms: C_2  and  C_19 
DOCKED: REMARK    2  A    between atoms: C_2  and  C_11 
DOCKED: REMARK    3  A    between atoms: C_19  and  C_20 
DOCKED: REMARK    4  A    between atoms: C_20  and  C_21 
DOCKED: REMARK    5  A    between atoms: C_21  and  N_22 
DOCKED: USER                              x       y       z     vdW  Elec       q    Type
DOCKED: USER                           _______ _______ _______ _____ _____    ______ ____
DOCKED: ROOT
DOCKED: ATOM      1  O   UNL     1     -38.815 -13.745  10.267 -0.07 -0.00    -0.346 OA 
DOCKED: ATOM      2  C   UNL     1     -40.165 -13.894  10.812 -0.15 +0.00    +0.130 C  
DOCKED: ATOM      3  C   UNL     1     -40.556 -15.291  10.426 -0.22 +0.00    +0.004 A  
DOCKED: ATOM      4  C   UNL     1     -39.485 -15.923   9.812 -0.27 +0.00    +0.006 A  
DOCKED: ATOM      5  C   UNL     1     -38.323 -15.007   9.762 -0.18 +0.00    +0.169 C  
DOCKED: ATOM      6  C   UNL     1     -41.761 -15.953  10.613 -0.20 -0.00    -0.001 A  
DOCKED: ATOM      7  C   UNL     1     -39.579 -17.229   9.363 -0.34 +0.00    +0.008 A  
DOCKED: ATOM      8  C   UNL     1     -41.874 -17.269  10.162 -0.22 +0.00    +0.010 A  
DOCKED: ATOM      9  C   UNL     1     -40.788 -17.904   9.540 -0.25 +0.00    +0.068 A  
DOCKED: ATOM     10  N   UNL     1     -41.029 -20.349   8.718 -2.55 -0.00    -0.191 NA 
DOCKED: ATOM     11  C   UNL     1     -40.921 -19.252   9.086 -0.36 +0.00    +0.101 C  
DOCKED: ENDROOT
DOCKED: BRANCH   2  12
DOCKED: ATOM     12  C   UNL     1     -40.102 -13.691  12.321 -0.05 +0.00    +0.038 C  
DOCKED: BRANCH  12  13
DOCKED: ATOM     13  C   UNL     1     -39.819 -15.004  13.048 -0.04 +0.00    +0.038 C  
DOCKED: BRANCH  13  14
DOCKED: ATOM     14  C   UNL     1     -38.656 -14.851  14.026 -0.01 +0.00    +0.251 C  
DOCKED: BRANCH  14  15
DOCKED: ATOM     15  N   UNL     1     -37.456 -15.484  13.491 -0.02 +0.00    +0.141 N  
DOCKED: ATOM     16  C   UNL     1     -37.804 -16.673  12.712 -0.06 +0.00    +0.285 C  
DOCKED: ATOM     17  C   UNL     1     -36.699 -14.540  12.667 -0.02 +0.00    +0.285 C  
DOCKED: ENDBRANCH  14  15
DOCKED: ENDBRANCH  13  14
DOCKED: ENDBRANCH  12  13
DOCKED: ENDBRANCH   2  12
DOCKED: BRANCH   2  18
DOCKED: ATOM     18  C   UNL     1     -41.015 -12.852  10.164 -0.20 +0.00    +0.006 A  
DOCKED: ATOM     19  C   UNL     1     -42.392 -12.842  10.381 -0.20 +0.00    +0.001 A  
DOCKED: ATOM     20  C   UNL     1     -43.185 -11.867   9.774 -0.18 +0.00    +0.029 A  
DOCKED: ATOM     21  C   UNL     1     -42.600 -10.905   8.952 -0.08 +0.00    +0.140 A  
DOCKED: ATOM     22  C   UNL     1     -41.223 -10.915   8.736 -0.14 +0.00    +0.029 A  
DOCKED: ATOM     23  F   UNL     1     -43.362  -9.968   8.372 -0.02 -0.00    -0.204 F  
DOCKED: ATOM     24  C   UNL     1     -40.429 -11.890   9.342 -0.17 +0.00    +0.001 A  
DOCKED: ENDBRANCH   2  18
DOCKED: TORSDOF 5
DOCKED: TER
DOCKED: ENDMDL
________________________________________________________________________________


    FINAL DOCKED STATE:
    ________________________


Run:   112 / 512
Time taken for this run:   0.002s

DOCKED: MODEL        112
DOCKED: USER    Run = 112
DOCKED: USER
DOCKED: USER    Estimated Free Energy of Binding    =  -3.80 kcal/mol  [=(1)+(2)+(3)-(4)]
DOCKED: USER
DOCKED: USER    (1) Final Intermolecular Energy     =  -5.29 kcal/mol
DOCKED: USER        vdW + Hbond + desolv Energy     =  -5.29 kcal/mol
DOCKED: USER        Electrostatic Energy            =  +0.00 kcal/mol
DOCKED: USER        Moving Ligand-Fixed Receptor    =  -5.29 kcal/mol
DOCKED: USER        Moving Ligand-Moving Receptor   =  +0.00 kcal/mol
DOCKED: USER    (2) Final Total Internal Energy     =  -1.44 kcal/mol
DOCKED: USER    (3) Torsional Free Energy           =  +1.49 kcal/mol
DOCKED: USER    (4) Unbound System's Energy         =  -1.44 kcal/mol
DOCKED: USER
DOCKED: USER
DOCKED: REMARK  5 active torsions:
DOCKED: REMARK  status: ('A' for Active; 'I' for Inactive)
DOCKED: REMARK    1  A    between atoms: C_2  and  C_19 
DOCKED: REMARK    2  A    between atoms: C_2  and  C_11 
DOCKED: REMARK    3  A    between atoms: C_19  and  C_20 
DOCKED: REMARK    4  A    between atoms: C_20  and  C_21 
DOCKED: REMARK    5  A    between atoms: C_21  and  N_22 
DOCKED: USER                              x       y       z     vdW  Elec       q    Type
DOCKED: USER                           _______ _______ _______ _____ _____    ______ ____
DOCKED: ROOT
DOCKED: ATOM      1  O   UNL     1     -38.080 -14.881  12.479 -0.01 -0.00    -0.346 OA 
DOCKED: ATOM      2  C   UNL     1     -38.202 -14.517  11.067 -0.12 +0.00    +0.130 C  
DOCKED: ATOM      3  C   UNL     1     -38.807 -15.736  10.433 -0.23 +0.00    +0.004 A  
DOCKED: ATOM      4  C   UNL     1     -39.107 -16.672  11.412 -0.16 +0.00    +0.006 A  
DOCKED: ATOM      5  C   UNL     1     -38.739 -16.141  12.744 -0.05 +0.00    +0.169 C  
DOCKED: ATOM      6  C   UNL     1     -39.080 -15.991   9.097 -0.07 -0.00    -0.001 A  
DOCKED: ATOM      7  C   UNL     1     -39.684 -17.889  11.093 -0.21 +0.00    +0.008 A  
DOCKED: ATOM      8  C   UNL     1     -39.657 -17.217   8.758 -0.33 +0.00    +0.010 A  
DOCKED: ATOM      9  C   UNL     1     -39.958 -18.160   9.752 -0.28 +0.00    +0.068 A  
DOCKED: ATOM     10  N   UNL     1     -41.033 -20.423   9.090 -2.50 -0.00    -0.191 NA 
DOCKED: ATOM     11  C   UNL     1     -40.550 -19.408   9.387 -0.29 +0.00    +0.101 C  
DOCKED: ENDROOT
DOCKED: BRANCH   2  12
DOCKED: ATOM     12  C   UNL     1     -39.095 -13.287  10.961 -0.12 +0.00    +0.038 C  
DOCKED: BRANCH  12  13
DOCKED: ATOM     13  C   UNL     1     -40.234 -13.337  11.977 -0.06 +0.00    +0.038 C  
DOCKED: BRANCH  13  14
DOCKED: ATOM     14  C   UNL     1     -41.594 -13.302  11.281 -0.08 +0.00    +0.251 C  
DOCKED: BRANCH  14  15
DOCKED: ATOM     15  N   UNL     1     -42.112 -14.654  11.111 -0.12 +0.00    +0.141 N  
DOCKED: ATOM     16  C   UNL     1     -42.378 -15.272  12.411 -0.01 +0.00    +0.285 C  
DOCKED: ATOM     17  C   UNL     1     -43.328 -14.642  10.296 -0.14 +0.00    +0.285 C  
DOCKED: ENDBRANCH  14  15
DOCKED: ENDBRANCH  13  14
DOCKED: ENDBRANCH  12  13
DOCKED: ENDBRANCH   2  12
DOCKED: BRANCH   2  18
DOCKED: ATOM     18  C   UNL     1     -36.824 -14.227  10.571 -0.14 +0.00    +0.006 A  
DOCKED: ATOM     19  C   UNL     1     -36.560 -13.027   9.912 -0.11 +0.00    +0.001 A  
DOCKED: ATOM     20  C   UNL     1     -35.272 -12.756   9.448 -0.08 +0.00    +0.029 A  
DOCKED: ATOM     21  C   UNL     1     -34.251 -13.685   9.645 -0.07 +0.00    +0.140 A  
DOCKED: ATOM     22  C   UNL     1     -34.516 -14.885  10.304 -0.07 +0.00    +0.029 A  
DOCKED: ATOM     23  F   UNL     1     -33.014 -13.424   9.201 -0.01 -0.00    -0.204 F  
DOCKED: ATOM     24  C   UNL     1     -35.804 -15.156  10.768 -0.03 +0.00    +0.001 A  
DOCKED: ENDBRANCH   2  18
DOCKED: TORSDOF 5
DOCKED: TER
DOCKED: ENDMDL
________________________________________________________________________________


    FINAL DOCKED STATE:
    ________________________


Run:   113 / 512
Time taken for this run:   0.002s

DOCKED: MODEL        113
DOCKED: USER    Run = 113
DOCKED: USER
DOCKED: USER    Estimated Free Energy of Binding    =  -4.52 kcal/mol  [=(1)+(2)+(3)-(4)]
DOCKED: USER
DOCKED: USER    (1) Final Intermolecular Energy     =  -6.01 kcal/mol
DOCKED: USER        vdW + Hbond + desolv Energy     =  -6.01 kcal/mol
DOCKED: USER        Electrostatic Energy            =  +0.00 kcal/mol
DOCKED: USER        Moving Ligand-Fixed Receptor    =  -6.01 kcal/mol
DOCKED: USER        Moving Ligand-Moving Receptor   =  +0.00 kcal/mol
DOCKED: USER    (2) Final Total Internal Energy     =  -1.08 kcal/mol
DOCKED: USER    (3) Torsional Free Energy           =  +1.49 kcal/mol
DOCKED: USER    (4) Unbound System's Energy         =  -1.08 kcal/mol
DOCKED: USER
DOCKED: USER
DOCKED: REMARK  5 active torsions:
DOCKED: REMARK  status: ('A' for Active; 'I' for Inactive)
DOCKED: REMARK    1  A    between atoms: C_2  and  C_19 
DOCKED: REMARK    2  A    between atoms: C_2  and  C_11 
DOCKED: REMARK    3  A    between atoms: C_19  and  C_20 
DOCKED: REMARK    4  A    between atoms: C_20  and  C_21 
DOCKED: REMARK    5  A    between atoms: C_21  and  N_22 
DOCKED: USER                              x       y       z     vdW  Elec       q    Type
DOCKED: USER                           _______ _______ _______ _____ _____    ______ ____
DOCKED: ROOT
DOCKED: ATOM      1  O   UNL     1     -39.102 -16.273  11.984 -0.02 -0.00    -0.346 OA 
DOCKED: ATOM      2  C   UNL     1     -38.142 -17.357  11.772 -0.18 +0.00    +0.130 C  
DOCKED: ATOM      3  C   UNL     1     -38.642 -18.044  10.534 -0.31 +0.00    +0.004 A  
DOCKED: ATOM      4  C   UNL     1     -39.726 -17.348  10.020 -0.30 +0.00    +0.006 A  
DOCKED: ATOM      5  C   UNL     1     -40.007 -16.163  10.861 -0.15 +0.00    +0.169 C  
DOCKED: ATOM      6  C   UNL     1     -38.167 -19.187   9.907 -0.29 -0.00    -0.001 A  
DOCKED: ATOM      7  C   UNL     1     -40.373 -17.768   8.870 -0.36 +0.00    +0.008 A  
DOCKED: ATOM      8  C   UNL     1     -38.811 -19.626   8.749 -0.17 +0.00    +0.010 A  
DOCKED: ATOM      9  C   UNL     1     -39.908 -18.920   8.234 -0.42 +0.00    +0.068 A  
DOCKED: ATOM     10  N   UNL     1     -41.079 -19.761   6.080 -1.58 -0.00    -0.191 NA 
DOCKED: ATOM     11  C   UNL     1     -40.554 -19.384   7.046 -0.53 +0.00    +0.101 C  
DOCKED: ENDROOT
DOCKED: BRANCH   2  12
DOCKED: ATOM     12  C   UNL     1     -36.756 -16.748  11.595 -0.19 +0.00    +0.038 C  
DOCKED: BRANCH  12  13
DOCKED: ATOM     13  C   UNL     1     -36.785 -15.233  11.790 -0.12 +0.00    +0.038 C  
DOCKED: BRANCH  13  14
DOCKED: ATOM     14  C   UNL     1     -36.988 -14.512  10.459 -0.12 +0.00    +0.251 C  
DOCKED: BRANCH  14  15
DOCKED: ATOM     15  N   UNL     1     -35.800 -13.739  10.114 -0.09 +0.00    +0.141 N  
DOCKED: ATOM     16  C   UNL     1     -34.636 -14.225  10.857 -0.06 +0.00    +0.285 C  
DOCKED: ATOM     17  C   UNL     1     -35.545 -13.800   8.674 -0.09 +0.00    +0.285 C  
DOCKED: ENDBRANCH  14  15
DOCKED: ENDBRANCH  13  14
DOCKED: ENDBRANCH  12  13
DOCKED: ENDBRANCH   2  12
DOCKED: BRANCH   2  18
DOCKED: ATOM     18  C   UNL     1     -38.196 -18.229  12.982 -0.16 +0.00    +0.006 A  
DOCKED: ATOM     19  C   UNL     1     -37.337 -17.987  14.054 -0.12 +0.00    +0.001 A  
DOCKED: ATOM     20  C   UNL     1     -37.388 -18.803  15.185 -0.14 +0.00    +0.029 A  
DOCKED: ATOM     21  C   UNL     1     -38.297 -19.859  15.243 -0.18 +0.00    +0.140 A  
DOCKED: ATOM     22  C   UNL     1     -39.155 -20.100  14.170 -0.14 +0.00    +0.029 A  
DOCKED: ATOM     23  F   UNL     1     -38.347 -20.641  16.329 -0.07 -0.00    -0.204 F  
DOCKED: ATOM     24  C   UNL     1     -39.105 -19.285  13.038 -0.24 +0.00    +0.001 A  
DOCKED: ENDBRANCH   2  18
DOCKED: TORSDOF 5
DOCKED: TER
DOCKED: ENDMDL
________________________________________________________________________________


    FINAL DOCKED STATE:
    ________________________


Run:   114 / 512
Time taken for this run:   0.002s

DOCKED: MODEL        114
DOCKED: USER    Run = 114
DOCKED: USER
DOCKED: USER    Estimated Free Energy of Binding    =  -5.90 kcal/mol  [=(1)+(2)+(3)-(4)]
DOCKED: USER
DOCKED: USER    (1) Final Intermolecular Energy     =  -7.39 kcal/mol
DOCKED: USER        vdW + Hbond + desolv Energy     =  -7.39 kcal/mol
DOCKED: USER        Electrostatic Energy            =  +0.00 kcal/mol
DOCKED: USER        Moving Ligand-Fixed Receptor    =  -7.39 kcal/mol
DOCKED: USER        Moving Ligand-Moving Receptor   =  +0.00 kcal/mol
DOCKED: USER    (2) Final Total Internal Energy     =  -1.01 kcal/mol
DOCKED: USER    (3) Torsional Free Energy           =  +1.49 kcal/mol
DOCKED: USER    (4) Unbound System's Energy         =  -1.01 kcal/mol
DOCKED: USER
DOCKED: USER
DOCKED: REMARK  5 active torsions:
DOCKED: REMARK  status: ('A' for Active; 'I' for Inactive)
DOCKED: REMARK    1  A    between atoms: C_2  and  C_19 
DOCKED: REMARK    2  A    between atoms: C_2  and  C_11 
DOCKED: REMARK    3  A    between atoms: C_19  and  C_20 
DOCKED: REMARK    4  A    between atoms: C_20  and  C_21 
DOCKED: REMARK    5  A    between atoms: C_21  and  N_22 
DOCKED: USER                              x       y       z     vdW  Elec       q    Type
DOCKED: USER                           _______ _______ _______ _____ _____    ______ ____
DOCKED: ROOT
DOCKED: ATOM      1  O   UNL     1     -39.075 -16.391  11.326 -0.04 -0.00    -0.346 OA 
DOCKED: ATOM      2  C   UNL     1     -38.686 -17.801  11.278 -0.22 +0.00    +0.130 C  
DOCKED: ATOM      3  C   UNL     1     -39.161 -18.259   9.930 -0.35 +0.00    +0.004 A  
DOCKED: ATOM      4  C   UNL     1     -39.676 -17.181   9.225 -0.34 +0.00    +0.006 A  
DOCKED: ATOM      5  C   UNL     1     -39.568 -15.950  10.040 -0.23 +0.00    +0.169 C  
DOCKED: ATOM      6  C   UNL     1     -39.129 -19.527   9.367 -0.37 -0.00    -0.001 A  
DOCKED: ATOM      7  C   UNL     1     -40.178 -17.331   7.943 +0.04 +0.00    +0.008 A  
DOCKED: ATOM      8  C   UNL     1     -39.636 -19.696   8.077 -0.45 +0.00    +0.010 A  
DOCKED: ATOM      9  C   UNL     1     -40.157 -18.603   7.369 -0.42 +0.00    +0.068 A  
DOCKED: ATOM     10  N   UNL     1     -41.085 -18.950   4.975 -3.00 -0.00    -0.191 NA 
DOCKED: ATOM     11  C   UNL     1     -40.669 -18.794   6.049 -0.41 +0.00    +0.101 C  
DOCKED: ENDROOT
DOCKED: BRANCH   2  12
DOCKED: ATOM     12  C   UNL     1     -37.173 -17.890  11.436 -0.25 +0.00    +0.038 C  
DOCKED: BRANCH  12  13
DOCKED: ATOM     13  C   UNL     1     -36.563 -16.524  11.743 -0.19 +0.00    +0.038 C  
DOCKED: BRANCH  13  14
DOCKED: ATOM     14  C   UNL     1     -35.076 -16.646  12.069 -0.11 +0.00    +0.251 C  
DOCKED: BRANCH  14  15
DOCKED: ATOM     15  N   UNL     1     -34.393 -15.386  11.801 -0.07 +0.00    +0.141 N  
DOCKED: ATOM     16  C   UNL     1     -33.595 -15.483  10.578 -0.07 +0.00    +0.285 C  
DOCKED: ATOM     17  C   UNL     1     -35.357 -14.290  11.693 -0.04 +0.00    +0.285 C  
DOCKED: ENDBRANCH  14  15
DOCKED: ENDBRANCH  13  14
DOCKED: ENDBRANCH  12  13
DOCKED: ENDBRANCH   2  12
DOCKED: BRANCH   2  18
DOCKED: ATOM     18  C   UNL     1     -39.386 -18.486  12.405 -0.19 +0.00    +0.006 A  
DOCKED: ATOM     19  C   UNL     1     -40.654 -19.031  12.208 -0.21 +0.00    +0.001 A  
DOCKED: ATOM     20  C   UNL     1     -41.308 -19.670  13.262 -0.09 +0.00    +0.029 A  
DOCKED: ATOM     21  C   UNL     1     -40.692 -19.764  14.510 +0.01 +0.00    +0.140 A  
DOCKED: ATOM     22  C   UNL     1     -39.424 -19.218  14.705 -0.18 +0.00    +0.029 A  
DOCKED: ATOM     23  F   UNL     1     -41.319 -20.379  15.521 -0.03 -0.00    -0.204 F  
DOCKED: ATOM     24  C   UNL     1     -38.769 -18.578  13.652 -0.17 +0.00    +0.001 A  
DOCKED: ENDBRANCH   2  18
DOCKED: TORSDOF 5
DOCKED: TER
DOCKED: ENDMDL
________________________________________________________________________________


    FINAL DOCKED STATE:
    ________________________


Run:   115 / 512
Time taken for this run:   0.002s

DOCKED: MODEL        115
DOCKED: USER    Run = 115
DOCKED: USER
DOCKED: USER    Estimated Free Energy of Binding    =  -3.85 kcal/mol  [=(1)+(2)+(3)-(4)]
DOCKED: USER
DOCKED: USER    (1) Final Intermolecular Energy     =  -5.34 kcal/mol
DOCKED: USER        vdW + Hbond + desolv Energy     =  -5.34 kcal/mol
DOCKED: USER        Electrostatic Energy            =  +0.00 kcal/mol
DOCKED: USER        Moving Ligand-Fixed Receptor    =  -5.34 kcal/mol
DOCKED: USER        Moving Ligand-Moving Receptor   =  +0.00 kcal/mol
DOCKED: USER    (2) Final Total Internal Energy     =  -1.29 kcal/mol
DOCKED: USER    (3) Torsional Free Energy           =  +1.49 kcal/mol
DOCKED: USER    (4) Unbound System's Energy         =  -1.29 kcal/mol
DOCKED: USER
DOCKED: USER
DOCKED: REMARK  5 active torsions:
DOCKED: REMARK  status: ('A' for Active; 'I' for Inactive)
DOCKED: REMARK    1  A    between atoms: C_2  and  C_19 
DOCKED: REMARK    2  A    between atoms: C_2  and  C_11 
DOCKED: REMARK    3  A    between atoms: C_19  and  C_20 
DOCKED: REMARK    4  A    between atoms: C_20  and  C_21 
DOCKED: REMARK    5  A    between atoms: C_21  and  N_22 
DOCKED: USER                              x       y       z     vdW  Elec       q    Type
DOCKED: USER                           _______ _______ _______ _____ _____    ______ ____
DOCKED: ROOT
DOCKED: ATOM      1  O   UNL     1     -37.473 -14.284  10.615 -0.06 -0.00    -0.346 OA 
DOCKED: ATOM      2  C   UNL     1     -37.051 -15.360  11.513 -0.12 +0.00    +0.130 C  
DOCKED: ATOM      3  C   UNL     1     -37.857 -16.543  11.060 -0.20 +0.00    +0.004 A  
DOCKED: ATOM      4  C   UNL     1     -38.591 -16.204   9.933 -0.24 +0.00    +0.006 A  
DOCKED: ATOM      5  C   UNL     1     -38.317 -14.798   9.559 -0.12 +0.00    +0.169 C  
DOCKED: ATOM      6  C   UNL     1     -37.926 -17.821  11.596 -0.24 -0.00    -0.001 A  
DOCKED: ATOM      7  C   UNL     1     -39.418 -17.122   9.308 -0.33 +0.00    +0.008 A  
DOCKED: ATOM      8  C   UNL     1     -38.758 -18.757  10.980 -0.32 +0.00    +0.010 A  
DOCKED: ATOM      9  C   UNL     1     -39.500 -18.409   9.841 -0.31 +0.00    +0.068 A  
DOCKED: ATOM     10  N   UNL     1     -41.032 -20.172   8.719 -2.56 -0.00    -0.191 NA 
DOCKED: ATOM     11  C   UNL     1     -40.345 -19.381   9.223 -0.35 +0.00    +0.101 C  
DOCKED: ENDROOT
DOCKED: BRANCH   2  12
DOCKED: ATOM     12  C   UNL     1     -35.550 -15.566  11.349 -0.13 +0.00    +0.038 C  
DOCKED: BRANCH  12  13
DOCKED: ATOM     13  C   UNL     1     -34.760 -14.402  11.942 -0.06 +0.00    +0.038 C  
DOCKED: BRANCH  13  14
DOCKED: ATOM     14  C   UNL     1     -34.920 -13.141  11.095 -0.03 +0.00    +0.251 C  
DOCKED: BRANCH  14  15
DOCKED: ATOM     15  N   UNL     1     -34.297 -13.324   9.789 -0.05 +0.00    +0.141 N  
DOCKED: ATOM     16  C   UNL     1     -35.242 -13.009   8.717 -0.08 +0.00    +0.285 C  
DOCKED: ATOM     17  C   UNL     1     -33.098 -12.493   9.669 -0.01 +0.00    +0.285 C  
DOCKED: ENDBRANCH  14  15
DOCKED: ENDBRANCH  13  14
DOCKED: ENDBRANCH  12  13
DOCKED: ENDBRANCH   2  12
DOCKED: BRANCH   2  18
DOCKED: ATOM     18  C   UNL     1     -37.386 -14.926  12.901 -0.04 +0.00    +0.006 A  
DOCKED: ATOM     19  C   UNL     1     -38.080 -13.735  13.110 -0.02 +0.00    +0.001 A  
DOCKED: ATOM     20  C   UNL     1     -38.393 -13.330  14.408 -0.00 +0.00    +0.029 A  
DOCKED: ATOM     21  C   UNL     1     -38.011 -14.115  15.495 -0.00 +0.00    +0.140 A  
DOCKED: ATOM     22  C   UNL     1     -37.317 -15.306  15.285 -0.01 +0.00    +0.029 A  
DOCKED: ATOM     23  F   UNL     1     -38.312 -13.727  16.741 +0.00 -0.00    -0.204 F  
DOCKED: ATOM     24  C   UNL     1     -37.003 -15.712  13.987 -0.04 +0.00    +0.001 A  
DOCKED: ENDBRANCH   2  18
DOCKED: TORSDOF 5
DOCKED: TER
DOCKED: ENDMDL
________________________________________________________________________________


    FINAL DOCKED STATE:
    ________________________


Run:   116 / 512
Time taken for this run:   0.002s

DOCKED: MODEL        116
DOCKED: USER    Run = 116
DOCKED: USER
DOCKED: USER    Estimated Free Energy of Binding    =  -3.34 kcal/mol  [=(1)+(2)+(3)-(4)]
DOCKED: USER
DOCKED: USER    (1) Final Intermolecular Energy     =  -4.83 kcal/mol
DOCKED: USER        vdW + Hbond + desolv Energy     =  -4.83 kcal/mol
DOCKED: USER        Electrostatic Energy            =  +0.00 kcal/mol
DOCKED: USER        Moving Ligand-Fixed Receptor    =  -4.83 kcal/mol
DOCKED: USER        Moving Ligand-Moving Receptor   =  +0.00 kcal/mol
DOCKED: USER    (2) Final Total Internal Energy     =  -1.17 kcal/mol
DOCKED: USER    (3) Torsional Free Energy           =  +1.49 kcal/mol
DOCKED: USER    (4) Unbound System's Energy         =  -1.17 kcal/mol
DOCKED: USER
DOCKED: USER
DOCKED: REMARK  5 active torsions:
DOCKED: REMARK  status: ('A' for Active; 'I' for Inactive)
DOCKED: REMARK    1  A    between atoms: C_2  and  C_19 
DOCKED: REMARK    2  A    between atoms: C_2  and  C_11 
DOCKED: REMARK    3  A    between atoms: C_19  and  C_20 
DOCKED: REMARK    4  A    between atoms: C_20  and  C_21 
DOCKED: REMARK    5  A    between atoms: C_21  and  N_22 
DOCKED: USER                              x       y       z     vdW  Elec       q    Type
DOCKED: USER                           _______ _______ _______ _____ _____    ______ ____
DOCKED: ROOT
DOCKED: ATOM      1  O   UNL     1     -34.530 -10.566   4.096 -0.02 -0.00    -0.346 OA 
DOCKED: ATOM      2  C   UNL     1     -35.738 -10.500   3.272 -0.18 +0.00    +0.130 C  
DOCKED: ATOM      3  C   UNL     1     -35.454  -9.386   2.306 -0.21 +0.00    +0.004 A  
DOCKED: ATOM      4  C   UNL     1     -34.156  -8.930   2.488 -0.14 +0.00    +0.006 A  
DOCKED: ATOM      5  C   UNL     1     -33.497  -9.706   3.562 -0.08 +0.00    +0.169 C  
DOCKED: ATOM      6  C   UNL     1     -36.275  -8.830   1.336 -0.30 -0.00    -0.001 A  
DOCKED: ATOM      7  C   UNL     1     -33.638  -7.905   1.715 -0.13 +0.00    +0.008 A  
DOCKED: ATOM      8  C   UNL     1     -35.768  -7.792   0.551 -0.29 +0.00    +0.010 A  
DOCKED: ATOM      9  C   UNL     1     -34.456  -7.333   0.740 -0.16 +0.00    +0.068 A  
DOCKED: ATOM     10  N   UNL     1     -33.546  -5.409  -0.737 -0.74 -0.00    -0.191 NA 
DOCKED: ATOM     11  C   UNL     1     -33.954  -6.271  -0.074 -0.18 +0.00    +0.101 C  
DOCKED: ENDROOT
DOCKED: BRANCH   2  12
DOCKED: ATOM     12  C   UNL     1     -35.928 -11.847   2.586 -0.21 +0.00    +0.038 C  
DOCKED: BRANCH  12  13
DOCKED: ATOM     13  C   UNL     1     -34.715 -12.753   2.792 -0.18 +0.00    +0.038 C  
DOCKED: BRANCH  13  14
DOCKED: ATOM     14  C   UNL     1     -33.834 -12.783   1.545 -0.11 +0.00    +0.251 C  
DOCKED: BRANCH  14  15
DOCKED: ATOM     15  N   UNL     1     -34.649 -12.649   0.344 -0.21 +0.00    +0.141 N  
DOCKED: ATOM     16  C   UNL     1     -34.315 -11.416  -0.372 -0.10 +0.00    +0.285 C  
DOCKED: ATOM     17  C   UNL     1     -34.471 -13.808  -0.533 -0.21 +0.00    +0.285 C  
DOCKED: ENDBRANCH  14  15
DOCKED: ENDBRANCH  13  14
DOCKED: ENDBRANCH  12  13
DOCKED: ENDBRANCH   2  12
DOCKED: BRANCH   2  18
DOCKED: ATOM     18  C   UNL     1     -36.876 -10.198   4.189 -0.25 +0.00    +0.006 A  
DOCKED: ATOM     19  C   UNL     1     -37.795  -9.204   3.856 -0.27 +0.00    +0.001 A  
DOCKED: ATOM     20  C   UNL     1     -38.858  -8.922   4.714 -0.30 +0.00    +0.029 A  
DOCKED: ATOM     21  C   UNL     1     -39.001  -9.635   5.904 -0.19 +0.00    +0.140 A  
DOCKED: ATOM     22  C   UNL     1     -38.081 -10.629   6.237 -0.17 +0.00    +0.029 A  
DOCKED: ATOM     23  F   UNL     1     -40.023  -9.366   6.727 -0.03 -0.00    -0.204 F  
DOCKED: ATOM     24  C   UNL     1     -37.017 -10.911   5.379 -0.18 +0.00    +0.001 A  
DOCKED: ENDBRANCH   2  18
DOCKED: TORSDOF 5
DOCKED: TER
DOCKED: ENDMDL
________________________________________________________________________________


    FINAL DOCKED STATE:
    ________________________


Run:   117 / 512
Time taken for this run:   0.002s

DOCKED: MODEL        117
DOCKED: USER    Run = 117
DOCKED: USER
DOCKED: USER    Estimated Free Energy of Binding    =  -4.27 kcal/mol  [=(1)+(2)+(3)-(4)]
DOCKED: USER
DOCKED: USER    (1) Final Intermolecular Energy     =  -5.76 kcal/mol
DOCKED: USER        vdW + Hbond + desolv Energy     =  -5.76 kcal/mol
DOCKED: USER        Electrostatic Energy            =  +0.00 kcal/mol
DOCKED: USER        Moving Ligand-Fixed Receptor    =  -5.76 kcal/mol
DOCKED: USER        Moving Ligand-Moving Receptor   =  +0.00 kcal/mol
DOCKED: USER    (2) Final Total Internal Energy     =  -1.26 kcal/mol
DOCKED: USER    (3) Torsional Free Energy           =  +1.49 kcal/mol
DOCKED: USER    (4) Unbound System's Energy         =  -1.26 kcal/mol
DOCKED: USER
DOCKED: USER
DOCKED: REMARK  5 active torsions:
DOCKED: REMARK  status: ('A' for Active; 'I' for Inactive)
DOCKED: REMARK    1  A    between atoms: C_2  and  C_19 
DOCKED: REMARK    2  A    between atoms: C_2  and  C_11 
DOCKED: REMARK    3  A    between atoms: C_19  and  C_20 
DOCKED: REMARK    4  A    between atoms: C_20  and  C_21 
DOCKED: REMARK    5  A    between atoms: C_21  and  N_22 
DOCKED: USER                              x       y       z     vdW  Elec       q    Type
DOCKED: USER                           _______ _______ _______ _____ _____    ______ ____
DOCKED: ROOT
DOCKED: ATOM      1  O   UNL     1     -36.261 -15.917  11.754 -0.07 -0.00    -0.346 OA 
DOCKED: ATOM      2  C   UNL     1     -37.251 -15.078  11.078 -0.14 +0.00    +0.130 C  
DOCKED: ATOM      3  C   UNL     1     -38.196 -16.066  10.457 -0.22 +0.00    +0.004 A  
DOCKED: ATOM      4  C   UNL     1     -37.842 -17.353  10.837 -0.22 +0.00    +0.006 A  
DOCKED: ATOM      5  C   UNL     1     -36.664 -17.306  11.732 -0.18 +0.00    +0.169 C  
DOCKED: ATOM      6  C   UNL     1     -39.288 -15.842   9.632 -0.26 -0.00    -0.001 A  
DOCKED: ATOM      7  C   UNL     1     -38.559 -18.455  10.404 -0.34 +0.00    +0.008 A  
DOCKED: ATOM      8  C   UNL     1     -40.019 -16.944   9.184 -0.31 +0.00    +0.010 A  
DOCKED: ATOM      9  C   UNL     1     -39.657 -18.243   9.569 -0.31 +0.00    +0.068 A  
DOCKED: ATOM     10  N   UNL     1     -41.039 -20.265   8.723 -2.56 -0.00    -0.191 NA 
DOCKED: ATOM     11  C   UNL     1     -40.418 -19.358   9.102 -0.38 +0.00    +0.101 C  
DOCKED: ENDROOT
DOCKED: BRANCH   2  12
DOCKED: ATOM     12  C   UNL     1     -37.921 -14.189  12.118 -0.06 +0.00    +0.038 C  
DOCKED: BRANCH  12  13
DOCKED: ATOM     13  C   UNL     1     -37.866 -14.819  13.509 -0.03 +0.00    +0.038 C  
DOCKED: BRANCH  13  14
DOCKED: ATOM     14  C   UNL     1     -38.987 -15.840  13.694 -0.01 +0.00    +0.251 C  
DOCKED: BRANCH  14  15
DOCKED: ATOM     15  N   UNL     1     -40.287 -15.181  13.639 -0.01 +0.00    +0.141 N  
DOCKED: ATOM     16  C   UNL     1     -41.021 -15.587  12.440 -0.02 +0.00    +0.285 C  
DOCKED: ATOM     17  C   UNL     1     -41.069 -15.483  14.840 -0.00 +0.00    +0.285 C  
DOCKED: ENDBRANCH  14  15
DOCKED: ENDBRANCH  13  14
DOCKED: ENDBRANCH  12  13
DOCKED: ENDBRANCH   2  12
DOCKED: BRANCH   2  18
DOCKED: ATOM     18  C   UNL     1     -36.515 -14.263  10.067 -0.14 +0.00    +0.006 A  
DOCKED: ATOM     19  C   UNL     1     -37.189 -13.287   9.335 -0.14 +0.00    +0.001 A  
DOCKED: ATOM     20  C   UNL     1     -36.499 -12.526   8.390 -0.12 +0.00    +0.029 A  
DOCKED: ATOM     21  C   UNL     1     -35.138 -12.742   8.179 -0.08 +0.00    +0.140 A  
DOCKED: ATOM     22  C   UNL     1     -34.464 -13.718   8.913 -0.10 +0.00    +0.029 A  
DOCKED: ATOM     23  F   UNL     1     -34.476 -12.010   7.274 -0.00 -0.00    -0.204 F  
DOCKED: ATOM     24  C   UNL     1     -35.153 -14.480   9.858 -0.07 +0.00    +0.001 A  
DOCKED: ENDBRANCH   2  18
DOCKED: TORSDOF 5
DOCKED: TER
DOCKED: ENDMDL
________________________________________________________________________________


    FINAL DOCKED STATE:
    ________________________


Run:   118 / 512
Time taken for this run:   0.002s

DOCKED: MODEL        118
DOCKED: USER    Run = 118
DOCKED: USER
DOCKED: USER    Estimated Free Energy of Binding    =  -4.39 kcal/mol  [=(1)+(2)+(3)-(4)]
DOCKED: USER
DOCKED: USER    (1) Final Intermolecular Energy     =  -5.88 kcal/mol
DOCKED: USER        vdW + Hbond + desolv Energy     =  -5.88 kcal/mol
DOCKED: USER        Electrostatic Energy            =  +0.00 kcal/mol
DOCKED: USER        Moving Ligand-Fixed Receptor    =  -5.88 kcal/mol
DOCKED: USER        Moving Ligand-Moving Receptor   =  +0.00 kcal/mol
DOCKED: USER    (2) Final Total Internal Energy     =  -0.85 kcal/mol
DOCKED: USER    (3) Torsional Free Energy           =  +1.49 kcal/mol
DOCKED: USER    (4) Unbound System's Energy         =  -0.85 kcal/mol
DOCKED: USER
DOCKED: USER
DOCKED: REMARK  5 active torsions:
DOCKED: REMARK  status: ('A' for Active; 'I' for Inactive)
DOCKED: REMARK    1  A    between atoms: C_2  and  C_19 
DOCKED: REMARK    2  A    between atoms: C_2  and  C_11 
DOCKED: REMARK    3  A    between atoms: C_19  and  C_20 
DOCKED: REMARK    4  A    between atoms: C_20  and  C_21 
DOCKED: REMARK    5  A    between atoms: C_21  and  N_22 
DOCKED: USER                              x       y       z     vdW  Elec       q    Type
DOCKED: USER                           _______ _______ _______ _____ _____    ______ ____
DOCKED: ROOT
DOCKED: ATOM      1  O   UNL     1     -38.800 -13.885  10.411 -0.07 -0.00    -0.346 OA 
DOCKED: ATOM      2  C   UNL     1     -40.132 -14.108  10.976 -0.14 +0.00    +0.130 C  
DOCKED: ATOM      3  C   UNL     1     -40.476 -15.504  10.545 -0.21 +0.00    +0.004 A  
DOCKED: ATOM      4  C   UNL     1     -39.393 -16.070   9.887 -0.28 +0.00    +0.006 A  
DOCKED: ATOM      5  C   UNL     1     -38.270 -15.108   9.849 -0.20 +0.00    +0.169 C  
DOCKED: ATOM      6  C   UNL     1     -41.650 -16.220  10.730 -0.19 -0.00    -0.001 A  
DOCKED: ATOM      7  C   UNL     1     -39.446 -17.362   9.391 -0.34 +0.00    +0.008 A  
DOCKED: ATOM      8  C   UNL     1     -41.721 -17.522  10.231 -0.22 +0.00    +0.010 A  
DOCKED: ATOM      9  C   UNL     1     -40.624 -18.090   9.565 -0.26 +0.00    +0.068 A  
DOCKED: ATOM     10  N   UNL     1     -40.787 -20.511   8.657 -2.56 -0.00    -0.191 NA 
DOCKED: ATOM     11  C   UNL     1     -40.714 -19.424   9.064 -0.36 +0.00    +0.101 C  
DOCKED: ENDROOT
DOCKED: BRANCH   2  12
DOCKED: ATOM     12  C   UNL     1     -40.046 -13.959  12.490 -0.04 +0.00    +0.038 C  
DOCKED: BRANCH  12  13
DOCKED: ATOM     13  C   UNL     1     -39.060 -14.958  13.093 -0.04 +0.00    +0.038 C  
DOCKED: BRANCH  13  14
DOCKED: ATOM     14  C   UNL     1     -38.953 -14.779  14.606 -0.00 +0.00    +0.251 C  
DOCKED: BRANCH  14  15
DOCKED: ATOM     15  N   UNL     1     -39.474 -15.955  15.293 -0.01 +0.00    +0.141 N  
DOCKED: ATOM     16  C   UNL     1     -38.546 -16.396  16.336 -0.00 +0.00    +0.285 C  
DOCKED: ATOM     17  C   UNL     1     -40.789 -15.674  15.871 -0.00 +0.00    +0.285 C  
DOCKED: ENDBRANCH  14  15
DOCKED: ENDBRANCH  13  14
DOCKED: ENDBRANCH  12  13
DOCKED: ENDBRANCH   2  12
DOCKED: BRANCH   2  18
DOCKED: ATOM     18  C   UNL     1     -41.034 -13.077  10.384 -0.20 +0.00    +0.006 A  
DOCKED: ATOM     19  C   UNL     1     -40.540 -11.808  10.083 -0.15 +0.00    +0.001 A  
DOCKED: ATOM     20  C   UNL     1     -41.385 -10.846   9.530 -0.14 +0.00    +0.029 A  
DOCKED: ATOM     21  C   UNL     1     -42.722 -11.152   9.278 -0.11 +0.00    +0.140 A  
DOCKED: ATOM     22  C   UNL     1     -43.215 -12.422   9.579 -0.12 +0.00    +0.029 A  
DOCKED: ATOM     23  F   UNL     1     -43.532 -10.229   8.745 -0.02 -0.00    -0.204 F  
DOCKED: ATOM     24  C   UNL     1     -42.371 -13.386  10.133 -0.23 +0.00    +0.001 A  
DOCKED: ENDBRANCH   2  18
DOCKED: TORSDOF 5
DOCKED: TER
DOCKED: ENDMDL
________________________________________________________________________________


    FINAL DOCKED STATE:
    ________________________


Run:   119 / 512
Time taken for this run:   0.002s

DOCKED: MODEL        119
DOCKED: USER    Run = 119
DOCKED: USER
DOCKED: USER    Estimated Free Energy of Binding    =  -5.64 kcal/mol  [=(1)+(2)+(3)-(4)]
DOCKED: USER
DOCKED: USER    (1) Final Intermolecular Energy     =  -7.13 kcal/mol
DOCKED: USER        vdW + Hbond + desolv Energy     =  -7.13 kcal/mol
DOCKED: USER        Electrostatic Energy            =  +0.00 kcal/mol
DOCKED: USER        Moving Ligand-Fixed Receptor    =  -7.13 kcal/mol
DOCKED: USER        Moving Ligand-Moving Receptor   =  +0.00 kcal/mol
DOCKED: USER    (2) Final Total Internal Energy     =  -1.57 kcal/mol
DOCKED: USER    (3) Torsional Free Energy           =  +1.49 kcal/mol
DOCKED: USER    (4) Unbound System's Energy         =  -1.57 kcal/mol
DOCKED: USER
DOCKED: USER
DOCKED: REMARK  5 active torsions:
DOCKED: REMARK  status: ('A' for Active; 'I' for Inactive)
DOCKED: REMARK    1  A    between atoms: C_2  and  C_19 
DOCKED: REMARK    2  A    between atoms: C_2  and  C_11 
DOCKED: REMARK    3  A    between atoms: C_19  and  C_20 
DOCKED: REMARK    4  A    between atoms: C_20  and  C_21 
DOCKED: REMARK    5  A    between atoms: C_21  and  N_22 
DOCKED: USER                              x       y       z     vdW  Elec       q    Type
DOCKED: USER                           _______ _______ _______ _____ _____    ______ ____
DOCKED: ROOT
DOCKED: ATOM      1  O   UNL     1     -38.756 -16.492  10.705 -0.09 -0.00    -0.346 OA 
DOCKED: ATOM      2  C   UNL     1     -39.093 -17.898  10.929 -0.23 +0.00    +0.130 C  
DOCKED: ATOM      3  C   UNL     1     -39.658 -18.347   9.613 -0.36 +0.00    +0.004 A  
DOCKED: ATOM      4  C   UNL     1     -39.551 -17.321   8.684 -0.33 +0.00    +0.006 A  
DOCKED: ATOM      5  C   UNL     1     -38.906 -16.144   9.309 -0.12 +0.00    +0.169 C  
DOCKED: ATOM      6  C   UNL     1     -40.211 -19.570   9.262 -0.15 -0.00    -0.001 A  
DOCKED: ATOM      7  C   UNL     1     -39.994 -17.479   7.382 -0.07 +0.00    +0.008 A  
DOCKED: ATOM      8  C   UNL     1     -40.667 -19.743   7.954 -0.49 +0.00    +0.010 A  
DOCKED: ATOM      9  C   UNL     1     -40.558 -18.702   7.019 -0.45 +0.00    +0.068 A  
DOCKED: ATOM     10  N   UNL     1     -41.409 -19.058   4.598 -3.30 -0.00    -0.191 NA 
DOCKED: ATOM     11  C   UNL     1     -41.028 -18.898   5.684 -0.28 +0.00    +0.101 C  
DOCKED: ENDROOT
DOCKED: BRANCH   2  12
DOCKED: ATOM     12  C   UNL     1     -37.821 -18.643  11.315 -0.26 +0.00    +0.038 C  
DOCKED: BRANCH  12  13
DOCKED: ATOM     13  C   UNL     1     -36.646 -17.684  11.493 -0.17 +0.00    +0.038 C  
DOCKED: BRANCH  13  14
DOCKED: ATOM     14  C   UNL     1     -36.457 -17.312  12.962 -0.09 +0.00    +0.251 C  
DOCKED: BRANCH  14  15
DOCKED: ATOM     15  N   UNL     1     -37.558 -16.470  13.417 -0.05 +0.00    +0.141 N  
DOCKED: ATOM     16  C   UNL     1     -37.940 -16.817  14.787 -0.02 +0.00    +0.285 C  
DOCKED: ATOM     17  C   UNL     1     -37.192 -15.055  13.335 -0.01 +0.00    +0.285 C  
DOCKED: ENDBRANCH  14  15
DOCKED: ENDBRANCH  13  14
DOCKED: ENDBRANCH  12  13
DOCKED: ENDBRANCH   2  12
DOCKED: BRANCH   2  18
DOCKED: ATOM     18  C   UNL     1     -40.095 -17.935  12.035 -0.14 +0.00    +0.006 A  
DOCKED: ATOM     19  C   UNL     1     -41.094 -16.965  12.103 -0.09 +0.00    +0.001 A  
DOCKED: ATOM     20  C   UNL     1     -42.030 -17.001  13.137 -0.05 +0.00    +0.029 A  
DOCKED: ATOM     21  C   UNL     1     -41.966 -18.006  14.101 -0.04 +0.00    +0.140 A  
DOCKED: ATOM     22  C   UNL     1     -40.967 -18.977  14.032 -0.14 +0.00    +0.029 A  
DOCKED: ATOM     23  F   UNL     1     -42.866 -18.041  15.092 +0.01 -0.00    -0.204 F  
DOCKED: ATOM     24  C   UNL     1     -40.030 -18.941  12.998 -0.20 +0.00    +0.001 A  
DOCKED: ENDBRANCH   2  18
DOCKED: TORSDOF 5
DOCKED: TER
DOCKED: ENDMDL
________________________________________________________________________________


    FINAL DOCKED STATE:
    ________________________


Run:   120 / 512
Time taken for this run:   0.002s

DOCKED: MODEL        120
DOCKED: USER    Run = 120
DOCKED: USER
DOCKED: USER    Estimated Free Energy of Binding    =  -4.64 kcal/mol  [=(1)+(2)+(3)-(4)]
DOCKED: USER
DOCKED: USER    (1) Final Intermolecular Energy     =  -6.13 kcal/mol
DOCKED: USER        vdW + Hbond + desolv Energy     =  -6.13 kcal/mol
DOCKED: USER        Electrostatic Energy            =  +0.00 kcal/mol
DOCKED: USER        Moving Ligand-Fixed Receptor    =  -6.13 kcal/mol
DOCKED: USER        Moving Ligand-Moving Receptor   =  +0.00 kcal/mol
DOCKED: USER    (2) Final Total Internal Energy     =  -1.41 kcal/mol
DOCKED: USER    (3) Torsional Free Energy           =  +1.49 kcal/mol
DOCKED: USER    (4) Unbound System's Energy         =  -1.41 kcal/mol
DOCKED: USER
DOCKED: USER
DOCKED: REMARK  5 active torsions:
DOCKED: REMARK  status: ('A' for Active; 'I' for Inactive)
DOCKED: REMARK    1  A    between atoms: C_2  and  C_19 
DOCKED: REMARK    2  A    between atoms: C_2  and  C_11 
DOCKED: REMARK    3  A    between atoms: C_19  and  C_20 
DOCKED: REMARK    4  A    between atoms: C_20  and  C_21 
DOCKED: REMARK    5  A    between atoms: C_21  and  N_22 
DOCKED: USER                              x       y       z     vdW  Elec       q    Type
DOCKED: USER                           _______ _______ _______ _____ _____    ______ ____
DOCKED: ROOT
DOCKED: ATOM      1  O   UNL     1     -38.317 -14.007  10.389 -0.07 -0.00    -0.346 OA 
DOCKED: ATOM      2  C   UNL     1     -39.702 -14.070  10.856 -0.14 +0.00    +0.130 C  
DOCKED: ATOM      3  C   UNL     1     -40.158 -15.440  10.446 -0.22 +0.00    +0.004 A  
DOCKED: ATOM      4  C   UNL     1     -39.095 -16.140   9.893 -0.28 +0.00    +0.006 A  
DOCKED: ATOM      5  C   UNL     1     -37.877 -15.299   9.910 -0.11 +0.00    +0.169 C  
DOCKED: ATOM      6  C   UNL     1     -41.411 -16.025  10.564 -0.21 -0.00    -0.001 A  
DOCKED: ATOM      7  C   UNL     1     -39.247 -17.438   9.437 -0.34 +0.00    +0.008 A  
DOCKED: ATOM      8  C   UNL     1     -41.581 -17.332  10.104 -0.22 +0.00    +0.010 A  
DOCKED: ATOM      9  C   UNL     1     -40.503 -18.035   9.544 -0.27 +0.00    +0.068 A  
DOCKED: ATOM     10  N   UNL     1     -40.852 -20.462   8.706 -2.56 -0.00    -0.191 NA 
DOCKED: ATOM     11  C   UNL     1     -40.696 -19.373   9.081 -0.37 +0.00    +0.101 C  
DOCKED: ENDROOT
DOCKED: BRANCH   2  12
DOCKED: ATOM     12  C   UNL     1     -39.712 -13.869  12.367 -0.05 +0.00    +0.038 C  
DOCKED: BRANCH  12  13
DOCKED: ATOM     13  C   UNL     1     -39.684 -15.205  13.107 -0.04 +0.00    +0.038 C  
DOCKED: BRANCH  13  14
DOCKED: ATOM     14  C   UNL     1     -38.250 -15.679  13.331 -0.02 +0.00    +0.251 C  
DOCKED: BRANCH  14  15
DOCKED: ATOM     15  N   UNL     1     -38.046 -16.985  12.716 -0.08 +0.00    +0.141 N  
DOCKED: ATOM     16  C   UNL     1     -36.625 -17.337  12.712 -0.09 +0.00    +0.285 C  
DOCKED: ATOM     17  C   UNL     1     -38.821 -18.011  13.415 -0.07 +0.00    +0.285 C  
DOCKED: ENDBRANCH  14  15
DOCKED: ENDBRANCH  13  14
DOCKED: ENDBRANCH  12  13
DOCKED: ENDBRANCH   2  12
DOCKED: BRANCH   2  18
DOCKED: ATOM     18  C   UNL     1     -40.446 -12.978  10.163 -0.19 +0.00    +0.006 A  
DOCKED: ATOM     19  C   UNL     1     -39.760 -12.070   9.357 -0.14 +0.00    +0.001 A  
DOCKED: ATOM     20  C   UNL     1     -40.457 -11.049   8.710 -0.15 +0.00    +0.029 A  
DOCKED: ATOM     21  C   UNL     1     -41.838 -10.937   8.869 -0.09 +0.00    +0.140 A  
DOCKED: ATOM     22  C   UNL     1     -42.523 -11.846   9.675 -0.17 +0.00    +0.029 A  
DOCKED: ATOM     23  F   UNL     1     -42.507  -9.959   8.246 -0.03 -0.00    -0.204 F  
DOCKED: ATOM     24  C   UNL     1     -41.827 -12.867  10.323 -0.21 +0.00    +0.001 A  
DOCKED: ENDBRANCH   2  18
DOCKED: TORSDOF 5
DOCKED: TER
DOCKED: ENDMDL
________________________________________________________________________________


    FINAL DOCKED STATE:
    ________________________


Run:   121 / 512
Time taken for this run:   0.002s

DOCKED: MODEL        121
DOCKED: USER    Run = 121
DOCKED: USER
DOCKED: USER    Estimated Free Energy of Binding    =  -3.93 kcal/mol  [=(1)+(2)+(3)-(4)]
DOCKED: USER
DOCKED: USER    (1) Final Intermolecular Energy     =  -5.42 kcal/mol
DOCKED: USER        vdW + Hbond + desolv Energy     =  -5.42 kcal/mol
DOCKED: USER        Electrostatic Energy            =  +0.00 kcal/mol
DOCKED: USER        Moving Ligand-Fixed Receptor    =  -5.42 kcal/mol
DOCKED: USER        Moving Ligand-Moving Receptor   =  +0.00 kcal/mol
DOCKED: USER    (2) Final Total Internal Energy     =  -1.24 kcal/mol
DOCKED: USER    (3) Torsional Free Energy           =  +1.49 kcal/mol
DOCKED: USER    (4) Unbound System's Energy         =  -1.24 kcal/mol
DOCKED: USER
DOCKED: USER
DOCKED: REMARK  5 active torsions:
DOCKED: REMARK  status: ('A' for Active; 'I' for Inactive)
DOCKED: REMARK    1  A    between atoms: C_2  and  C_19 
DOCKED: REMARK    2  A    between atoms: C_2  and  C_11 
DOCKED: REMARK    3  A    between atoms: C_19  and  C_20 
DOCKED: REMARK    4  A    between atoms: C_20  and  C_21 
DOCKED: REMARK    5  A    between atoms: C_21  and  N_22 
DOCKED: USER                              x       y       z     vdW  Elec       q    Type
DOCKED: USER                           _______ _______ _______ _____ _____    ______ ____
DOCKED: ROOT
DOCKED: ATOM      1  O   UNL     1     -31.292 -18.622   1.303 -0.02 -0.00    -0.346 OA 
DOCKED: ATOM      2  C   UNL     1     -31.134 -17.514   2.245 -0.09 +0.00    +0.130 C  
DOCKED: ATOM      3  C   UNL     1     -31.653 -18.066   3.541 -0.12 +0.00    +0.004 A  
DOCKED: ATOM      4  C   UNL     1     -31.977 -19.406   3.381 -0.18 +0.00    +0.006 A  
DOCKED: ATOM      5  C   UNL     1     -31.687 -19.831   1.993 -0.06 +0.00    +0.169 C  
DOCKED: ATOM      6  C   UNL     1     -31.816 -17.436   4.766 -0.11 -0.00    -0.001 A  
DOCKED: ATOM      7  C   UNL     1     -32.475 -20.157   4.432 -0.29 +0.00    +0.008 A  
DOCKED: ATOM      8  C   UNL     1     -32.321 -18.179   5.834 -0.21 +0.00    +0.010 A  
DOCKED: ATOM      9  C   UNL     1     -32.649 -19.533   5.668 -0.30 +0.00    +0.068 A  
DOCKED: ATOM     10  N   UNL     1     -33.580 -20.885   7.672 -2.64 -0.00    -0.191 NA 
DOCKED: ATOM     11  C   UNL     1     -33.163 -20.278   6.773 -0.40 +0.00    +0.101 C  
DOCKED: ENDROOT
DOCKED: BRANCH   2  12
DOCKED: ATOM     12  C   UNL     1     -29.657 -17.141   2.309 -0.02 +0.00    +0.038 C  
DOCKED: BRANCH  12  13
DOCKED: ATOM     13  C   UNL     1     -29.434 -15.887   3.151 -0.01 +0.00    +0.038 C  
DOCKED: BRANCH  13  14
DOCKED: ATOM     14  C   UNL     1     -28.596 -14.858   2.394 -0.00 +0.00    +0.251 C  
DOCKED: BRANCH  14  15
DOCKED: ATOM     15  N   UNL     1     -29.343 -14.333   1.257 -0.00 +0.00    +0.141 N  
DOCKED: ATOM     16  C   UNL     1     -29.695 -12.929   1.475 -0.00 +0.00    +0.285 C  
DOCKED: ATOM     17  C   UNL     1     -28.570 -14.477   0.022 +0.00 +0.00    +0.285 C  
DOCKED: ENDBRANCH  14  15
DOCKED: ENDBRANCH  13  14
DOCKED: ENDBRANCH  12  13
DOCKED: ENDBRANCH   2  12
DOCKED: BRANCH   2  18
DOCKED: ATOM     18  C   UNL     1     -31.953 -16.379   1.727 -0.12 +0.00    +0.006 A  
DOCKED: ATOM     19  C   UNL     1     -31.915 -16.056   0.371 -0.13 +0.00    +0.001 A  
DOCKED: ATOM     20  C   UNL     1     -32.682 -14.995  -0.113 -0.15 +0.00    +0.029 A  
DOCKED: ATOM     21  C   UNL     1     -33.484 -14.260   0.759 -0.17 +0.00    +0.140 A  
DOCKED: ATOM     22  C   UNL     1     -33.521 -14.584   2.115 -0.17 +0.00    +0.029 A  
DOCKED: ATOM     23  F   UNL     1     -34.221 -13.242   0.294 -0.08 -0.00    -0.204 F  
DOCKED: ATOM     24  C   UNL     1     -32.754 -15.645   2.600 -0.13 +0.00    +0.001 A  
DOCKED: ENDBRANCH   2  18
DOCKED: TORSDOF 5
DOCKED: TER
DOCKED: ENDMDL
________________________________________________________________________________


    FINAL DOCKED STATE:
    ________________________


Run:   122 / 512
Time taken for this run:   0.002s

DOCKED: MODEL        122
DOCKED: USER    Run = 122
DOCKED: USER
DOCKED: USER    Estimated Free Energy of Binding    =  -5.58 kcal/mol  [=(1)+(2)+(3)-(4)]
DOCKED: USER
DOCKED: USER    (1) Final Intermolecular Energy     =  -7.07 kcal/mol
DOCKED: USER        vdW + Hbond + desolv Energy     =  -7.07 kcal/mol
DOCKED: USER        Electrostatic Energy            =  +0.00 kcal/mol
DOCKED: USER        Moving Ligand-Fixed Receptor    =  -7.07 kcal/mol
DOCKED: USER        Moving Ligand-Moving Receptor   =  +0.00 kcal/mol
DOCKED: USER    (2) Final Total Internal Energy     =  -1.17 kcal/mol
DOCKED: USER    (3) Torsional Free Energy           =  +1.49 kcal/mol
DOCKED: USER    (4) Unbound System's Energy         =  -1.17 kcal/mol
DOCKED: USER
DOCKED: USER
DOCKED: REMARK  5 active torsions:
DOCKED: REMARK  status: ('A' for Active; 'I' for Inactive)
DOCKED: REMARK    1  A    between atoms: C_2  and  C_19 
DOCKED: REMARK    2  A    between atoms: C_2  and  C_11 
DOCKED: REMARK    3  A    between atoms: C_19  and  C_20 
DOCKED: REMARK    4  A    between atoms: C_20  and  C_21 
DOCKED: REMARK    5  A    between atoms: C_21  and  N_22 
DOCKED: USER                              x       y       z     vdW  Elec       q    Type
DOCKED: USER                           _______ _______ _______ _____ _____    ______ ____
DOCKED: ROOT
DOCKED: ATOM      1  O   UNL     1     -39.248 -16.597  10.989 -0.05 -0.00    -0.346 OA 
DOCKED: ATOM      2  C   UNL     1     -39.678 -17.985  11.161 -0.19 +0.00    +0.130 C  
DOCKED: ATOM      3  C   UNL     1     -40.107 -18.402   9.784 -0.32 +0.00    +0.004 A  
DOCKED: ATOM      4  C   UNL     1     -39.842 -17.380   8.883 -0.36 +0.00    +0.006 A  
DOCKED: ATOM      5  C   UNL     1     -39.217 -16.239   9.588 -0.25 +0.00    +0.169 C  
DOCKED: ATOM      6  C   UNL     1     -40.675 -19.594   9.360 -0.17 -0.00    -0.001 A  
DOCKED: ATOM      7  C   UNL     1     -40.137 -17.511   7.537 -0.13 +0.00    +0.008 A  
DOCKED: ATOM      8  C   UNL     1     -40.983 -19.740   8.006 -0.45 +0.00    +0.010 A  
DOCKED: ATOM      9  C   UNL     1     -40.715 -18.704   7.100 -0.43 +0.00    +0.068 A  
DOCKED: ATOM     10  N   UNL     1     -41.295 -19.010   4.593 -3.25 -0.00    -0.191 NA 
DOCKED: ATOM     11  C   UNL     1     -41.035 -18.872   5.717 -0.28 +0.00    +0.101 C  
DOCKED: ENDROOT
DOCKED: BRANCH   2  12
DOCKED: ATOM     12  C   UNL     1     -38.498 -18.795  11.685 -0.29 +0.00    +0.038 C  
DOCKED: BRANCH  12  13
DOCKED: ATOM     13  C   UNL     1     -38.414 -18.733  13.209 -0.18 +0.00    +0.038 C  
DOCKED: BRANCH  13  14
DOCKED: ATOM     14  C   UNL     1     -38.205 -17.298  13.690 -0.06 +0.00    +0.251 C  
DOCKED: BRANCH  14  15
DOCKED: ATOM     15  N   UNL     1     -38.324 -17.227  15.142 -0.03 +0.00    +0.141 N  
DOCKED: ATOM     16  C   UNL     1     -39.338 -18.167  15.623 -0.03 +0.00    +0.285 C  
DOCKED: ATOM     17  C   UNL     1     -37.035 -17.502  15.779 -0.03 +0.00    +0.285 C  
DOCKED: ENDBRANCH  14  15
DOCKED: ENDBRANCH  13  14
DOCKED: ENDBRANCH  12  13
DOCKED: ENDBRANCH   2  12
DOCKED: BRANCH   2  18
DOCKED: ATOM     18  C   UNL     1     -40.803 -17.975  12.142 -0.13 +0.00    +0.006 A  
DOCKED: ATOM     19  C   UNL     1     -41.359 -19.178  12.576 -0.19 +0.00    +0.001 A  
DOCKED: ATOM     20  C   UNL     1     -42.411 -19.167  13.493 -0.13 +0.00    +0.029 A  
DOCKED: ATOM     21  C   UNL     1     -42.904 -17.955  13.975 -0.03 +0.00    +0.140 A  
DOCKED: ATOM     22  C   UNL     1     -42.347 -16.753  13.540 -0.04 +0.00    +0.029 A  
DOCKED: ATOM     23  F   UNL     1     -43.912 -17.945  14.856 +0.02 -0.00    -0.204 F  
DOCKED: ATOM     24  C   UNL     1     -41.295 -16.763  12.622 -0.07 +0.00    +0.001 A  
DOCKED: ENDBRANCH   2  18
DOCKED: TORSDOF 5
DOCKED: TER
DOCKED: ENDMDL
________________________________________________________________________________


    FINAL DOCKED STATE:
    ________________________


Run:   123 / 512
Time taken for this run:   0.002s

DOCKED: MODEL        123
DOCKED: USER    Run = 123
DOCKED: USER
DOCKED: USER    Estimated Free Energy of Binding    =  -3.68 kcal/mol  [=(1)+(2)+(3)-(4)]
DOCKED: USER
DOCKED: USER    (1) Final Intermolecular Energy     =  -5.17 kcal/mol
DOCKED: USER        vdW + Hbond + desolv Energy     =  -5.17 kcal/mol
DOCKED: USER        Electrostatic Energy            =  +0.00 kcal/mol
DOCKED: USER        Moving Ligand-Fixed Receptor    =  -5.17 kcal/mol
DOCKED: USER        Moving Ligand-Moving Receptor   =  +0.00 kcal/mol
DOCKED: USER    (2) Final Total Internal Energy     =  -1.22 kcal/mol
DOCKED: USER    (3) Torsional Free Energy           =  +1.49 kcal/mol
DOCKED: USER    (4) Unbound System's Energy         =  -1.22 kcal/mol
DOCKED: USER
DOCKED: USER
DOCKED: REMARK  5 active torsions:
DOCKED: REMARK  status: ('A' for Active; 'I' for Inactive)
DOCKED: REMARK    1  A    between atoms: C_2  and  C_19 
DOCKED: REMARK    2  A    between atoms: C_2  and  C_11 
DOCKED: REMARK    3  A    between atoms: C_19  and  C_20 
DOCKED: REMARK    4  A    between atoms: C_20  and  C_21 
DOCKED: REMARK    5  A    between atoms: C_21  and  N_22 
DOCKED: USER                              x       y       z     vdW  Elec       q    Type
DOCKED: USER                           _______ _______ _______ _____ _____    ______ ____
DOCKED: ROOT
DOCKED: ATOM      1  O   UNL     1     -33.571 -14.278   4.537 -0.00 -0.00    -0.346 OA 
DOCKED: ATOM      2  C   UNL     1     -32.530 -15.030   3.834 -0.08 +0.00    +0.130 C  
DOCKED: ATOM      3  C   UNL     1     -32.579 -16.390   4.470 -0.14 +0.00    +0.004 A  
DOCKED: ATOM      4  C   UNL     1     -33.627 -16.444   5.377 -0.25 +0.00    +0.006 A  
DOCKED: ATOM      5  C   UNL     1     -34.343 -15.149   5.396 -0.20 +0.00    +0.169 C  
DOCKED: ATOM      6  C   UNL     1     -31.767 -17.493   4.254 -0.11 -0.00    -0.001 A  
DOCKED: ATOM      7  C   UNL     1     -33.896 -17.594   6.099 -0.23 +0.00    +0.008 A  
DOCKED: ATOM      8  C   UNL     1     -32.023 -18.660   4.977 -0.18 +0.00    +0.010 A  
DOCKED: ATOM      9  C   UNL     1     -33.083 -18.710   5.895 -0.30 +0.00    +0.068 A  
DOCKED: ATOM     10  N   UNL     1     -33.534 -20.891   7.217 -2.55 -0.00    -0.191 NA 
DOCKED: ATOM     11  C   UNL     1     -33.331 -19.913   6.624 -0.36 +0.00    +0.101 C  
DOCKED: ENDROOT
DOCKED: BRANCH   2  12
DOCKED: ATOM     12  C   UNL     1     -32.873 -15.057   2.350 -0.15 +0.00    +0.038 C  
DOCKED: BRANCH  12  13
DOCKED: ATOM     13  C   UNL     1     -33.388 -13.700   1.873 -0.14 +0.00    +0.038 C  
DOCKED: BRANCH  13  14
DOCKED: ATOM     14  C   UNL     1     -34.898 -13.583   2.077 -0.03 +0.00    +0.251 C  
DOCKED: BRANCH  14  15
DOCKED: ATOM     15  N   UNL     1     -35.328 -12.201   1.899 -0.20 +0.00    +0.141 N  
DOCKED: ATOM     16  C   UNL     1     -35.606 -11.577   3.193 -0.12 +0.00    +0.285 C  
DOCKED: ATOM     17  C   UNL     1     -34.313 -11.435   1.173 -0.11 +0.00    +0.285 C  
DOCKED: ENDBRANCH  14  15
DOCKED: ENDBRANCH  13  14
DOCKED: ENDBRANCH  12  13
DOCKED: ENDBRANCH   2  12
DOCKED: BRANCH   2  18
DOCKED: ATOM     18  C   UNL     1     -31.240 -14.321   4.076 -0.02 +0.00    +0.006 A  
DOCKED: ATOM     19  C   UNL     1     -30.869 -13.973   5.375 -0.01 +0.00    +0.001 A  
DOCKED: ATOM     20  C   UNL     1     -29.662 -13.309   5.600 -0.00 +0.00    +0.029 A  
DOCKED: ATOM     21  C   UNL     1     -28.829 -12.994   4.527 +0.00 +0.00    +0.140 A  
DOCKED: ATOM     22  C   UNL     1     -29.201 -13.342   3.229 -0.00 +0.00    +0.029 A  
DOCKED: ATOM     23  F   UNL     1     -27.670 -12.359   4.744 +0.00 -0.00    -0.204 F  
DOCKED: ATOM     24  C   UNL     1     -30.408 -14.006   3.003 -0.00 +0.00    +0.001 A  
DOCKED: ENDBRANCH   2  18
DOCKED: TORSDOF 5
DOCKED: TER
DOCKED: ENDMDL
________________________________________________________________________________


    FINAL DOCKED STATE:
    ________________________


Run:   124 / 512
Time taken for this run:   0.002s

DOCKED: MODEL        124
DOCKED: USER    Run = 124
DOCKED: USER
DOCKED: USER    Estimated Free Energy of Binding    =  -3.64 kcal/mol  [=(1)+(2)+(3)-(4)]
DOCKED: USER
DOCKED: USER    (1) Final Intermolecular Energy     =  -5.13 kcal/mol
DOCKED: USER        vdW + Hbond + desolv Energy     =  -5.13 kcal/mol
DOCKED: USER        Electrostatic Energy            =  +0.00 kcal/mol
DOCKED: USER        Moving Ligand-Fixed Receptor    =  -5.13 kcal/mol
DOCKED: USER        Moving Ligand-Moving Receptor   =  +0.00 kcal/mol
DOCKED: USER    (2) Final Total Internal Energy     =  -1.42 kcal/mol
DOCKED: USER    (3) Torsional Free Energy           =  +1.49 kcal/mol
DOCKED: USER    (4) Unbound System's Energy         =  -1.42 kcal/mol
DOCKED: USER
DOCKED: USER
DOCKED: REMARK  5 active torsions:
DOCKED: REMARK  status: ('A' for Active; 'I' for Inactive)
DOCKED: REMARK    1  A    between atoms: C_2  and  C_19 
DOCKED: REMARK    2  A    between atoms: C_2  and  C_11 
DOCKED: REMARK    3  A    between atoms: C_19  and  C_20 
DOCKED: REMARK    4  A    between atoms: C_20  and  C_21 
DOCKED: REMARK    5  A    between atoms: C_21  and  N_22 
DOCKED: USER                              x       y       z     vdW  Elec       q    Type
DOCKED: USER                           _______ _______ _______ _____ _____    ______ ____
DOCKED: ROOT
DOCKED: ATOM      1  O   UNL     1     -37.209 -16.873  13.620 -0.03 -0.00    -0.346 OA 
DOCKED: ATOM      2  C   UNL     1     -37.218 -16.026  12.427 -0.10 +0.00    +0.130 C  
DOCKED: ATOM      3  C   UNL     1     -38.059 -16.794  11.448 -0.20 +0.00    +0.004 A  
DOCKED: ATOM      4  C   UNL     1     -38.576 -17.925  12.063 -0.19 +0.00    +0.006 A  
DOCKED: ATOM      5  C   UNL     1     -38.131 -17.978  13.473 -0.11 +0.00    +0.169 C  
DOCKED: ATOM      6  C   UNL     1     -38.352 -16.508  10.123 -0.21 -0.00    -0.001 A  
DOCKED: ATOM      7  C   UNL     1     -39.395 -18.807  11.378 -0.26 +0.00    +0.008 A  
DOCKED: ATOM      8  C   UNL     1     -39.173 -17.389   9.417 -0.33 +0.00    +0.010 A  
DOCKED: ATOM      9  C   UNL     1     -39.692 -18.533  10.042 -0.28 +0.00    +0.068 A  
DOCKED: ATOM     10  N   UNL     1     -41.217 -20.146   8.706 -2.43 -0.00    -0.191 NA 
DOCKED: ATOM     11  C   UNL     1     -40.532 -19.423   9.305 -0.30 +0.00    +0.101 C  
DOCKED: ENDROOT
DOCKED: BRANCH   2  12
DOCKED: ATOM     12  C   UNL     1     -37.822 -14.677  12.797 -0.04 +0.00    +0.038 C  
DOCKED: BRANCH  12  13
DOCKED: ATOM     13  C   UNL     1     -38.289 -14.656  14.252 -0.01 +0.00    +0.038 C  
DOCKED: BRANCH  13  14
DOCKED: ATOM     14  C   UNL     1     -37.188 -14.135  15.174 -0.00 +0.00    +0.251 C  
DOCKED: BRANCH  14  15
DOCKED: ATOM     15  N   UNL     1     -37.185 -14.876  16.429 -0.00 +0.00    +0.141 N  
DOCKED: ATOM     16  C   UNL     1     -38.354 -15.753  16.514 -0.00 +0.00    +0.285 C  
DOCKED: ATOM     17  C   UNL     1     -35.954 -15.658  16.563 -0.00 +0.00    +0.285 C  
DOCKED: ENDBRANCH  14  15
DOCKED: ENDBRANCH  13  14
DOCKED: ENDBRANCH  12  13
DOCKED: ENDBRANCH   2  12
DOCKED: BRANCH   2  18
DOCKED: ATOM     18  C   UNL     1     -35.801 -15.879  11.985 -0.12 +0.00    +0.006 A  
DOCKED: ATOM     19  C   UNL     1     -35.446 -14.851  11.112 -0.11 +0.00    +0.001 A  
DOCKED: ATOM     20  C   UNL     1     -34.120 -14.714  10.700 -0.09 +0.00    +0.029 A  
DOCKED: ATOM     21  C   UNL     1     -33.151 -15.604  11.162 -0.07 +0.00    +0.140 A  
DOCKED: ATOM     22  C   UNL     1     -33.506 -16.631  12.035 -0.11 +0.00    +0.029 A  
DOCKED: ATOM     23  F   UNL     1     -31.878 -15.471  10.767 -0.00 -0.00    -0.204 F  
DOCKED: ATOM     24  C   UNL     1     -34.833 -16.769  12.448 -0.14 +0.00    +0.001 A  
DOCKED: ENDBRANCH   2  18
DOCKED: TORSDOF 5
DOCKED: TER
DOCKED: ENDMDL
________________________________________________________________________________


    FINAL DOCKED STATE:
    ________________________


Run:   125 / 512
Time taken for this run:   0.002s

DOCKED: MODEL        125
DOCKED: USER    Run = 125
DOCKED: USER
DOCKED: USER    Estimated Free Energy of Binding    =  -4.22 kcal/mol  [=(1)+(2)+(3)-(4)]
DOCKED: USER
DOCKED: USER    (1) Final Intermolecular Energy     =  -5.71 kcal/mol
DOCKED: USER        vdW + Hbond + desolv Energy     =  -5.71 kcal/mol
DOCKED: USER        Electrostatic Energy            =  +0.00 kcal/mol
DOCKED: USER        Moving Ligand-Fixed Receptor    =  -5.71 kcal/mol
DOCKED: USER        Moving Ligand-Moving Receptor   =  +0.00 kcal/mol
DOCKED: USER    (2) Final Total Internal Energy     =  -1.09 kcal/mol
DOCKED: USER    (3) Torsional Free Energy           =  +1.49 kcal/mol
DOCKED: USER    (4) Unbound System's Energy         =  -1.09 kcal/mol
DOCKED: USER
DOCKED: USER
DOCKED: REMARK  5 active torsions:
DOCKED: REMARK  status: ('A' for Active; 'I' for Inactive)
DOCKED: REMARK    1  A    between atoms: C_2  and  C_19 
DOCKED: REMARK    2  A    between atoms: C_2  and  C_11 
DOCKED: REMARK    3  A    between atoms: C_19  and  C_20 
DOCKED: REMARK    4  A    between atoms: C_20  and  C_21 
DOCKED: REMARK    5  A    between atoms: C_21  and  N_22 
DOCKED: USER                              x       y       z     vdW  Elec       q    Type
DOCKED: USER                           _______ _______ _______ _____ _____    ______ ____
DOCKED: ROOT
DOCKED: ATOM      1  O   UNL     1     -37.684 -15.178  12.400 -0.02 -0.00    -0.346 OA 
DOCKED: ATOM      2  C   UNL     1     -38.083 -14.642  11.098 -0.13 +0.00    +0.130 C  
DOCKED: ATOM      3  C   UNL     1     -38.681 -15.823  10.391 -0.24 +0.00    +0.004 A  
DOCKED: ATOM      4  C   UNL     1     -38.723 -16.911  11.252 -0.20 +0.00    +0.006 A  
DOCKED: ATOM      5  C   UNL     1     -38.175 -16.527  12.572 -0.08 +0.00    +0.169 C  
DOCKED: ATOM      6  C   UNL     1     -39.161 -15.924   9.093 -0.02 -0.00    -0.001 A  
DOCKED: ATOM      7  C   UNL     1     -39.238 -18.130  10.848 -0.27 +0.00    +0.008 A  
DOCKED: ATOM      8  C   UNL     1     -39.680 -17.149   8.669 -0.31 +0.00    +0.010 A  
DOCKED: ATOM      9  C   UNL     1     -39.719 -18.246   9.543 -0.31 +0.00    +0.068 A  
DOCKED: ATOM     10  N   UNL     1     -40.693 -20.504   8.725 -2.61 -0.00    -0.191 NA 
DOCKED: ATOM     11  C   UNL     1     -40.255 -19.491   9.092 -0.32 +0.00    +0.101 C  
DOCKED: ENDROOT
DOCKED: BRANCH   2  12
DOCKED: ATOM     12  C   UNL     1     -39.085 -13.516  11.325 -0.10 +0.00    +0.038 C  
DOCKED: BRANCH  12  13
DOCKED: ATOM     13  C   UNL     1     -40.507 -14.056  11.462 -0.12 +0.00    +0.038 C  
DOCKED: BRANCH  13  14
DOCKED: ATOM     14  C   UNL     1     -41.535 -13.014  11.024 -0.10 +0.00    +0.251 C  
DOCKED: BRANCH  14  15
DOCKED: ATOM     15  N   UNL     1     -42.879 -13.439  11.397 -0.08 +0.00    +0.141 N  
DOCKED: ATOM     16  C   UNL     1     -43.559 -14.059  10.259 -0.14 +0.00    +0.285 C  
DOCKED: ATOM     17  C   UNL     1     -42.830 -14.367  12.528 -0.01 +0.00    +0.285 C  
DOCKED: ENDBRANCH  14  15
DOCKED: ENDBRANCH  13  14
DOCKED: ENDBRANCH  12  13
DOCKED: ENDBRANCH   2  12
DOCKED: BRANCH   2  18
DOCKED: ATOM     18  C   UNL     1     -36.844 -14.135  10.437 -0.14 +0.00    +0.006 A  
DOCKED: ATOM     19  C   UNL     1     -35.598 -14.383  11.010 -0.10 +0.00    +0.001 A  
DOCKED: ATOM     20  C   UNL     1     -34.440 -13.908  10.392 -0.08 +0.00    +0.029 A  
DOCKED: ATOM     21  C   UNL     1     -34.531 -13.187   9.202 -0.07 +0.00    +0.140 A  
DOCKED: ATOM     22  C   UNL     1     -35.779 -12.940   8.629 -0.12 +0.00    +0.029 A  
DOCKED: ATOM     23  F   UNL     1     -33.420 -12.733   8.607 -0.00 -0.00    -0.204 F  
DOCKED: ATOM     24  C   UNL     1     -36.937 -13.414   9.247 -0.15 +0.00    +0.001 A  
DOCKED: ENDBRANCH   2  18
DOCKED: TORSDOF 5
DOCKED: TER
DOCKED: ENDMDL
________________________________________________________________________________


    FINAL DOCKED STATE:
    ________________________


Run:   126 / 512
Time taken for this run:   0.002s

DOCKED: MODEL        126
DOCKED: USER    Run = 126
DOCKED: USER
DOCKED: USER    Estimated Free Energy of Binding    =  -4.01 kcal/mol  [=(1)+(2)+(3)-(4)]
DOCKED: USER
DOCKED: USER    (1) Final Intermolecular Energy     =  -5.50 kcal/mol
DOCKED: USER        vdW + Hbond + desolv Energy     =  -5.50 kcal/mol
DOCKED: USER        Electrostatic Energy            =  +0.00 kcal/mol
DOCKED: USER        Moving Ligand-Fixed Receptor    =  -5.50 kcal/mol
DOCKED: USER        Moving Ligand-Moving Receptor   =  +0.00 kcal/mol
DOCKED: USER    (2) Final Total Internal Energy     =  -1.04 kcal/mol
DOCKED: USER    (3) Torsional Free Energy           =  +1.49 kcal/mol
DOCKED: USER    (4) Unbound System's Energy         =  -1.04 kcal/mol
DOCKED: USER
DOCKED: USER
DOCKED: REMARK  5 active torsions:
DOCKED: REMARK  status: ('A' for Active; 'I' for Inactive)
DOCKED: REMARK    1  A    between atoms: C_2  and  C_19 
DOCKED: REMARK    2  A    between atoms: C_2  and  C_11 
DOCKED: REMARK    3  A    between atoms: C_19  and  C_20 
DOCKED: REMARK    4  A    between atoms: C_20  and  C_21 
DOCKED: REMARK    5  A    between atoms: C_21  and  N_22 
DOCKED: USER                              x       y       z     vdW  Elec       q    Type
DOCKED: USER                           _______ _______ _______ _____ _____    ______ ____
DOCKED: ROOT
DOCKED: ATOM      1  O   UNL     1     -36.089 -10.875   3.613 -0.06 -0.00    -0.346 OA 
DOCKED: ATOM      2  C   UNL     1     -34.878 -10.542   2.862 -0.12 +0.00    +0.130 C  
DOCKED: ATOM      3  C   UNL     1     -35.377  -9.676   1.741 -0.22 +0.00    +0.004 A  
DOCKED: ATOM      4  C   UNL     1     -36.735  -9.443   1.901 -0.26 +0.00    +0.006 A  
DOCKED: ATOM      5  C   UNL     1     -37.221 -10.117   3.126 -0.21 +0.00    +0.169 C  
DOCKED: ATOM      6  C   UNL     1     -34.682  -9.129   0.673 -0.17 -0.00    -0.001 A  
DOCKED: ATOM      7  C   UNL     1     -37.443  -8.664   1.002 -0.25 +0.00    +0.008 A  
DOCKED: ATOM      8  C   UNL     1     -35.382  -8.345  -0.245 -0.24 +0.00    +0.010 A  
DOCKED: ATOM      9  C   UNL     1     -36.756  -8.113  -0.081 -0.25 +0.00    +0.068 A  
DOCKED: ATOM     10  N   UNL     1     -38.025  -6.647  -1.800 -2.36 -0.00    -0.191 NA 
DOCKED: ATOM     11  C   UNL     1     -37.456  -7.305  -1.029 -0.40 +0.00    +0.101 C  
DOCKED: ENDROOT
DOCKED: BRANCH   2  12
DOCKED: ATOM     12  C   UNL     1     -33.917  -9.813   3.793 -0.11 +0.00    +0.038 C  
DOCKED: BRANCH  12  13
DOCKED: ATOM     13  C   UNL     1     -32.472 -10.243   3.550 -0.03 +0.00    +0.038 C  
DOCKED: BRANCH  13  14
DOCKED: ATOM     14  C   UNL     1     -31.684 -10.283   4.858 -0.01 +0.00    +0.251 C  
DOCKED: BRANCH  14  15
DOCKED: ATOM     15  N   UNL     1     -31.177 -11.628   5.104 -0.00 +0.00    +0.141 N  
DOCKED: ATOM     16  C   UNL     1     -30.433 -12.120   3.943 +0.00 +0.00    +0.285 C  
DOCKED: ATOM     17  C   UNL     1     -30.328 -11.649   6.297 +0.00 +0.00    +0.285 C  
DOCKED: ENDBRANCH  14  15
DOCKED: ENDBRANCH  13  14
DOCKED: ENDBRANCH  12  13
DOCKED: ENDBRANCH   2  12
DOCKED: BRANCH   2  18
DOCKED: ATOM     18  C   UNL     1     -34.293 -11.830   2.385 -0.11 +0.00    +0.006 A  
DOCKED: ATOM     19  C   UNL     1     -33.788 -11.928   1.089 -0.11 +0.00    +0.001 A  
DOCKED: ATOM     20  C   UNL     1     -33.242 -13.133   0.645 -0.11 +0.00    +0.029 A  
DOCKED: ATOM     21  C   UNL     1     -33.200 -14.236   1.496 -0.13 +0.00    +0.140 A  
DOCKED: ATOM     22  C   UNL     1     -33.705 -14.136   2.793 -0.16 +0.00    +0.029 A  
DOCKED: ATOM     23  F   UNL     1     -32.673 -15.391   1.070 -0.06 -0.00    -0.204 F  
DOCKED: ATOM     24  C   UNL     1     -34.252 -12.932   3.238 -0.12 +0.00    +0.001 A  
DOCKED: ENDBRANCH   2  18
DOCKED: TORSDOF 5
DOCKED: TER
DOCKED: ENDMDL
________________________________________________________________________________


    FINAL DOCKED STATE:
    ________________________


Run:   127 / 512
Time taken for this run:   0.002s

DOCKED: MODEL        127
DOCKED: USER    Run = 127
DOCKED: USER
DOCKED: USER    Estimated Free Energy of Binding    =  -4.63 kcal/mol  [=(1)+(2)+(3)-(4)]
DOCKED: USER
DOCKED: USER    (1) Final Intermolecular Energy     =  -6.12 kcal/mol
DOCKED: USER        vdW + Hbond + desolv Energy     =  -6.12 kcal/mol
DOCKED: USER        Electrostatic Energy            =  +0.00 kcal/mol
DOCKED: USER        Moving Ligand-Fixed Receptor    =  -6.12 kcal/mol
DOCKED: USER        Moving Ligand-Moving Receptor   =  +0.00 kcal/mol
DOCKED: USER    (2) Final Total Internal Energy     =  -1.13 kcal/mol
DOCKED: USER    (3) Torsional Free Energy           =  +1.49 kcal/mol
DOCKED: USER    (4) Unbound System's Energy         =  -1.13 kcal/mol
DOCKED: USER
DOCKED: USER
DOCKED: REMARK  5 active torsions:
DOCKED: REMARK  status: ('A' for Active; 'I' for Inactive)
DOCKED: REMARK    1  A    between atoms: C_2  and  C_19 
DOCKED: REMARK    2  A    between atoms: C_2  and  C_11 
DOCKED: REMARK    3  A    between atoms: C_19  and  C_20 
DOCKED: REMARK    4  A    between atoms: C_20  and  C_21 
DOCKED: REMARK    5  A    between atoms: C_21  and  N_22 
DOCKED: USER                              x       y       z     vdW  Elec       q    Type
DOCKED: USER                           _______ _______ _______ _____ _____    ______ ____
DOCKED: ROOT
DOCKED: ATOM      1  O   UNL     1     -41.540 -18.377  12.060 -0.02 -0.00    -0.346 OA 
DOCKED: ATOM      2  C   UNL     1     -40.615 -17.343  11.593 -0.11 +0.00    +0.130 C  
DOCKED: ATOM      3  C   UNL     1     -40.554 -17.558  10.109 -0.25 +0.00    +0.004 A  
DOCKED: ATOM      4  C   UNL     1     -41.450 -18.554   9.744 -0.28 +0.00    +0.006 A  
DOCKED: ATOM      5  C   UNL     1     -42.164 -19.050  10.942 -0.16 +0.00    +0.169 C  
DOCKED: ATOM      6  C   UNL     1     -39.777 -16.917   9.156 -0.33 -0.00    -0.001 A  
DOCKED: ATOM      7  C   UNL     1     -41.596 -18.943   8.424 -0.38 +0.00    +0.008 A  
DOCKED: ATOM      8  C   UNL     1     -39.909 -17.301   7.820 -0.06 +0.00    +0.010 A  
DOCKED: ATOM      9  C   UNL     1     -40.815 -18.309   7.457 -0.36 +0.00    +0.068 A  
DOCKED: ATOM     10  N   UNL     1     -41.040 -18.996   4.968 -2.97 -0.00    -0.191 NA 
DOCKED: ATOM     11  C   UNL     1     -40.938 -18.688   6.084 -0.30 +0.00    +0.101 C  
DOCKED: ENDROOT
DOCKED: BRANCH   2  12
DOCKED: ATOM     12  C   UNL     1     -41.182 -15.980  11.973 -0.10 +0.00    +0.038 C  
DOCKED: BRANCH  12  13
DOCKED: ATOM     13  C   UNL     1     -40.377 -15.336  13.100 -0.04 +0.00    +0.038 C  
DOCKED: BRANCH  13  14
DOCKED: ATOM     14  C   UNL     1     -41.042 -15.572  14.454 -0.00 +0.00    +0.251 C  
DOCKED: BRANCH  14  15
DOCKED: ATOM     15  N   UNL     1     -40.223 -15.017  15.525 -0.00 +0.00    +0.141 N  
DOCKED: ATOM     16  C   UNL     1     -40.613 -15.581  16.818 +0.00 +0.00    +0.285 C  
DOCKED: ATOM     17  C   UNL     1     -38.803 -15.265  15.270 -0.00 +0.00    +0.285 C  
DOCKED: ENDBRANCH  14  15
DOCKED: ENDBRANCH  13  14
DOCKED: ENDBRANCH  12  13
DOCKED: ENDBRANCH   2  12
DOCKED: BRANCH   2  18
DOCKED: ATOM     18  C   UNL     1     -39.308 -17.590  12.271 -0.13 +0.00    +0.006 A  
DOCKED: ATOM     19  C   UNL     1     -38.138 -17.043  11.747 -0.19 +0.00    +0.001 A  
DOCKED: ATOM     20  C   UNL     1     -36.916 -17.275  12.381 -0.17 +0.00    +0.029 A  
DOCKED: ATOM     21  C   UNL     1     -36.868 -18.052  13.537 +0.05 +0.00    +0.140 A  
DOCKED: ATOM     22  C   UNL     1     -38.039 -18.598  14.061 -0.14 +0.00    +0.029 A  
DOCKED: ATOM     23  F   UNL     1     -35.696 -18.272  14.147 -0.02 -0.00    -0.204 F  
DOCKED: ATOM     24  C   UNL     1     -39.261 -18.367  13.427 -0.15 +0.00    +0.001 A  
DOCKED: ENDBRANCH   2  18
DOCKED: TORSDOF 5
DOCKED: TER
DOCKED: ENDMDL
________________________________________________________________________________


    FINAL DOCKED STATE:
    ________________________


Run:   128 / 512
Time taken for this run:   0.002s

DOCKED: MODEL        128
DOCKED: USER    Run = 128
DOCKED: USER
DOCKED: USER    Estimated Free Energy of Binding    =  -4.21 kcal/mol  [=(1)+(2)+(3)-(4)]
DOCKED: USER
DOCKED: USER    (1) Final Intermolecular Energy     =  -5.70 kcal/mol
DOCKED: USER        vdW + Hbond + desolv Energy     =  -5.70 kcal/mol
DOCKED: USER        Electrostatic Energy            =  +0.00 kcal/mol
DOCKED: USER        Moving Ligand-Fixed Receptor    =  -5.70 kcal/mol
DOCKED: USER        Moving Ligand-Moving Receptor   =  +0.00 kcal/mol
DOCKED: USER    (2) Final Total Internal Energy     =  -1.25 kcal/mol
DOCKED: USER    (3) Torsional Free Energy           =  +1.49 kcal/mol
DOCKED: USER    (4) Unbound System's Energy         =  -1.25 kcal/mol
DOCKED: USER
DOCKED: USER
DOCKED: REMARK  5 active torsions:
DOCKED: REMARK  status: ('A' for Active; 'I' for Inactive)
DOCKED: REMARK    1  A    between atoms: C_2  and  C_19 
DOCKED: REMARK    2  A    between atoms: C_2  and  C_11 
DOCKED: REMARK    3  A    between atoms: C_19  and  C_20 
DOCKED: REMARK    4  A    between atoms: C_20  and  C_21 
DOCKED: REMARK    5  A    between atoms: C_21  and  N_22 
DOCKED: USER                              x       y       z     vdW  Elec       q    Type
DOCKED: USER                           _______ _______ _______ _____ _____    ______ ____
DOCKED: ROOT
DOCKED: ATOM      1  O   UNL     1     -37.750 -14.306  10.999 -0.04 -0.00    -0.346 OA 
DOCKED: ATOM      2  C   UNL     1     -39.191 -14.054  11.050 -0.12 +0.00    +0.130 C  
DOCKED: ATOM      3  C   UNL     1     -39.797 -15.329  10.538 -0.21 +0.00    +0.004 A  
DOCKED: ATOM      4  C   UNL     1     -38.798 -16.266  10.318 -0.26 +0.00    +0.006 A  
DOCKED: ATOM      5  C   UNL     1     -37.482 -15.690  10.675 -0.13 +0.00    +0.169 C  
DOCKED: ATOM      6  C   UNL     1     -41.128 -15.638  10.297 -0.23 -0.00    -0.001 A  
DOCKED: ATOM      7  C   UNL     1     -39.090 -17.535   9.848 -0.32 +0.00    +0.008 A  
DOCKED: ATOM      8  C   UNL     1     -41.439 -16.912   9.819 -0.22 +0.00    +0.010 A  
DOCKED: ATOM      9  C   UNL     1     -40.425 -17.856   9.596 -0.26 +0.00    +0.068 A  
DOCKED: ATOM     10  N   UNL     1     -41.037 -20.213   8.713 -2.56 -0.00    -0.191 NA 
DOCKED: ATOM     11  C   UNL     1     -40.763 -19.156   9.109 -0.36 +0.00    +0.101 C  
DOCKED: ENDROOT
DOCKED: BRANCH   2  12
DOCKED: ATOM     12  C   UNL     1     -39.577 -13.752  12.494 -0.04 +0.00    +0.038 C  
DOCKED: BRANCH  12  13
DOCKED: ATOM     13  C   UNL     1     -39.670 -15.030  13.325 -0.03 +0.00    +0.038 C  
DOCKED: BRANCH  13  14
DOCKED: ATOM     14  C   UNL     1     -39.219 -14.784  14.763 -0.00 +0.00    +0.251 C  
DOCKED: BRANCH  14  15
DOCKED: ATOM     15  N   UNL     1     -37.780 -14.980  14.884 -0.01 +0.00    +0.141 N  
DOCKED: ATOM     16  C   UNL     1     -37.341 -16.106  14.058 -0.02 +0.00    +0.285 C  
DOCKED: ATOM     17  C   UNL     1     -37.060 -13.763  14.507 -0.00 +0.00    +0.285 C  
DOCKED: ENDBRANCH  14  15
DOCKED: ENDBRANCH  13  14
DOCKED: ENDBRANCH  12  13
DOCKED: ENDBRANCH   2  12
DOCKED: BRANCH   2  18
DOCKED: ATOM     18  C   UNL     1     -39.462 -12.884  10.164 -0.16 +0.00    +0.006 A  
DOCKED: ATOM     19  C   UNL     1     -38.417 -12.287   9.461 -0.12 +0.00    +0.001 A  
DOCKED: ATOM     20  C   UNL     1     -38.671 -11.193   8.633 -0.11 +0.00    +0.029 A  
DOCKED: ATOM     21  C   UNL     1     -39.969 -10.698   8.510 -0.13 +0.00    +0.140 A  
DOCKED: ATOM     22  C   UNL     1     -41.014 -11.297   9.214 -0.16 +0.00    +0.029 A  
DOCKED: ATOM     23  F   UNL     1     -40.213  -9.649   7.714 -0.02 -0.00    -0.204 F  
DOCKED: ATOM     24  C   UNL     1     -40.760 -12.391  10.042 -0.19 +0.00    +0.001 A  
DOCKED: ENDBRANCH   2  18
DOCKED: TORSDOF 5
DOCKED: TER
DOCKED: ENDMDL
________________________________________________________________________________


    FINAL DOCKED STATE:
    ________________________


Run:   129 / 512
Time taken for this run:   0.002s

DOCKED: MODEL        129
DOCKED: USER    Run = 129
DOCKED: USER
DOCKED: USER    Estimated Free Energy of Binding    =  -4.06 kcal/mol  [=(1)+(2)+(3)-(4)]
DOCKED: USER
DOCKED: USER    (1) Final Intermolecular Energy     =  -5.55 kcal/mol
DOCKED: USER        vdW + Hbond + desolv Energy     =  -5.55 kcal/mol
DOCKED: USER        Electrostatic Energy            =  +0.00 kcal/mol
DOCKED: USER        Moving Ligand-Fixed Receptor    =  -5.55 kcal/mol
DOCKED: USER        Moving Ligand-Moving Receptor   =  +0.00 kcal/mol
DOCKED: USER    (2) Final Total Internal Energy     =  -1.57 kcal/mol
DOCKED: USER    (3) Torsional Free Energy           =  +1.49 kcal/mol
DOCKED: USER    (4) Unbound System's Energy         =  -1.57 kcal/mol
DOCKED: USER
DOCKED: USER
DOCKED: REMARK  5 active torsions:
DOCKED: REMARK  status: ('A' for Active; 'I' for Inactive)
DOCKED: REMARK    1  A    between atoms: C_2  and  C_19 
DOCKED: REMARK    2  A    between atoms: C_2  and  C_11 
DOCKED: REMARK    3  A    between atoms: C_19  and  C_20 
DOCKED: REMARK    4  A    between atoms: C_20  and  C_21 
DOCKED: REMARK    5  A    between atoms: C_21  and  N_22 
DOCKED: USER                              x       y       z     vdW  Elec       q    Type
DOCKED: USER                           _______ _______ _______ _____ _____    ______ ____
DOCKED: ROOT
DOCKED: ATOM      1  O   UNL     1     -41.715 -13.880  11.123 -0.05 -0.00    -0.346 OA 
DOCKED: ATOM      2  C   UNL     1     -40.349 -13.950  10.603 -0.18 +0.00    +0.130 C  
DOCKED: ATOM      3  C   UNL     1     -40.215 -15.371  10.137 -0.23 +0.00    +0.004 A  
DOCKED: ATOM      4  C   UNL     1     -41.430 -16.025  10.276 -0.22 +0.00    +0.006 A  
DOCKED: ATOM      5  C   UNL     1     -42.442 -15.094  10.823 -0.16 +0.00    +0.169 C  
DOCKED: ATOM      6  C   UNL     1     -39.108 -16.029   9.620 -0.28 -0.00    -0.001 A  
DOCKED: ATOM      7  C   UNL     1     -41.581 -17.352   9.910 -0.24 +0.00    +0.008 A  
DOCKED: ATOM      8  C   UNL     1     -39.242 -17.368   9.251 -0.32 +0.00    +0.010 A  
DOCKED: ATOM      9  C   UNL     1     -40.473 -18.026   9.395 -0.28 +0.00    +0.068 A  
DOCKED: ATOM     10  N   UNL     1     -40.690 -20.511   8.694 -2.60 -0.00    -0.191 NA 
DOCKED: ATOM     11  C   UNL     1     -40.592 -19.397   9.009 -0.38 +0.00    +0.101 C  
DOCKED: ENDROOT
DOCKED: BRANCH   2  12
DOCKED: ATOM     12  C   UNL     1     -40.211 -12.939   9.471 -0.14 +0.00    +0.038 C  
DOCKED: BRANCH  12  13
DOCKED: ATOM     13  C   UNL     1     -41.321 -11.891   9.522 -0.21 +0.00    +0.038 C  
DOCKED: BRANCH  13  14
DOCKED: ATOM     14  C   UNL     1     -40.804 -10.568  10.083 -0.06 +0.00    +0.251 C  
DOCKED: BRANCH  14  15
DOCKED: ATOM     15  N   UNL     1     -40.597 -10.674  11.522 -0.02 +0.00    +0.141 N  
DOCKED: ATOM     16  C   UNL     1     -39.940  -9.472  12.039 -0.00 +0.00    +0.285 C  
DOCKED: ATOM     17  C   UNL     1     -41.871 -10.891  12.211 -0.00 +0.00    +0.285 C  
DOCKED: ENDBRANCH  14  15
DOCKED: ENDBRANCH  13  14
DOCKED: ENDBRANCH  12  13
DOCKED: ENDBRANCH   2  12
DOCKED: BRANCH   2  18
DOCKED: ATOM     18  C   UNL     1     -39.433 -13.620  11.734 -0.07 +0.00    +0.006 A  
DOCKED: ATOM     19  C   UNL     1     -38.116 -13.242  11.477 -0.06 +0.00    +0.001 A  
DOCKED: ATOM     20  C   UNL     1     -37.261 -12.934  12.536 -0.02 +0.00    +0.029 A  
DOCKED: ATOM     21  C   UNL     1     -37.724 -13.005  13.849 -0.00 +0.00    +0.140 A  
DOCKED: ATOM     22  C   UNL     1     -39.042 -13.383  14.106 -0.00 +0.00    +0.029 A  
DOCKED: ATOM     23  F   UNL     1     -36.904 -12.707  14.865 -0.00 -0.00    -0.204 F  
DOCKED: ATOM     24  C   UNL     1     -39.898 -13.691  13.047 -0.02 +0.00    +0.001 A  
DOCKED: ENDBRANCH   2  18
DOCKED: TORSDOF 5
DOCKED: TER
DOCKED: ENDMDL
________________________________________________________________________________


    FINAL DOCKED STATE:
    ________________________


Run:   130 / 512
Time taken for this run:   0.002s

DOCKED: MODEL        130
DOCKED: USER    Run = 130
DOCKED: USER
DOCKED: USER    Estimated Free Energy of Binding    =  -4.43 kcal/mol  [=(1)+(2)+(3)-(4)]
DOCKED: USER
DOCKED: USER    (1) Final Intermolecular Energy     =  -5.92 kcal/mol
DOCKED: USER        vdW + Hbond + desolv Energy     =  -5.92 kcal/mol
DOCKED: USER        Electrostatic Energy            =  +0.00 kcal/mol
DOCKED: USER        Moving Ligand-Fixed Receptor    =  -5.92 kcal/mol
DOCKED: USER        Moving Ligand-Moving Receptor   =  +0.00 kcal/mol
DOCKED: USER    (2) Final Total Internal Energy     =  -1.45 kcal/mol
DOCKED: USER    (3) Torsional Free Energy           =  +1.49 kcal/mol
DOCKED: USER    (4) Unbound System's Energy         =  -1.45 kcal/mol
DOCKED: USER
DOCKED: USER
DOCKED: REMARK  5 active torsions:
DOCKED: REMARK  status: ('A' for Active; 'I' for Inactive)
DOCKED: REMARK    1  A    between atoms: C_2  and  C_19 
DOCKED: REMARK    2  A    between atoms: C_2  and  C_11 
DOCKED: REMARK    3  A    between atoms: C_19  and  C_20 
DOCKED: REMARK    4  A    between atoms: C_20  and  C_21 
DOCKED: REMARK    5  A    between atoms: C_21  and  N_22 
DOCKED: USER                              x       y       z     vdW  Elec       q    Type
DOCKED: USER                           _______ _______ _______ _____ _____    ______ ____
DOCKED: ROOT
DOCKED: ATOM      1  O   UNL     1     -39.529 -13.952  11.187 -0.03 -0.00    -0.346 OA 
DOCKED: ATOM      2  C   UNL     1     -40.957 -14.237  11.333 -0.12 +0.00    +0.130 C  
DOCKED: ATOM      3  C   UNL     1     -41.110 -15.613  10.751 -0.19 +0.00    +0.004 A  
DOCKED: ATOM      4  C   UNL     1     -39.864 -16.115  10.405 -0.23 +0.00    +0.006 A  
DOCKED: ATOM      5  C   UNL     1     -38.814 -15.128  10.741 -0.16 +0.00    +0.169 C  
DOCKED: ATOM      6  C   UNL     1     -42.260 -16.364  10.554 -0.20 -0.00    -0.001 A  
DOCKED: ATOM      7  C   UNL     1     -39.723 -17.376   9.850 -0.31 +0.00    +0.008 A  
DOCKED: ATOM      8  C   UNL     1     -42.135 -17.636   9.991 -0.24 +0.00    +0.010 A  
DOCKED: ATOM      9  C   UNL     1     -40.873 -18.139   9.642 -0.24 +0.00    +0.068 A  
DOCKED: ATOM     10  N   UNL     1     -40.677 -20.505   8.604 -2.54 -0.00    -0.191 NA 
DOCKED: ATOM     11  C   UNL     1     -40.765 -19.443   9.069 -0.35 +0.00    +0.101 C  
DOCKED: ENDROOT
DOCKED: BRANCH   2  12
DOCKED: ATOM     12  C   UNL     1     -41.313 -14.176  12.813 -0.04 +0.00    +0.038 C  
DOCKED: BRANCH  12  13
DOCKED: ATOM     13  C   UNL     1     -41.267 -15.561  13.455 -0.04 +0.00    +0.038 C  
DOCKED: BRANCH  13  14
DOCKED: ATOM     14  C   UNL     1     -39.866 -15.879  13.974 -0.01 +0.00    +0.251 C  
DOCKED: BRANCH  14  15
DOCKED: ATOM     15  N   UNL     1     -39.638 -17.320  13.970 -0.04 +0.00    +0.141 N  
DOCKED: ATOM     16  C   UNL     1     -40.791 -18.022  13.403 -0.04 +0.00    +0.285 C  
DOCKED: ATOM     17  C   UNL     1     -38.425 -17.647  13.220 -0.06 +0.00    +0.285 C  
DOCKED: ENDBRANCH  14  15
DOCKED: ENDBRANCH  13  14
DOCKED: ENDBRANCH  12  13
DOCKED: ENDBRANCH   2  12
DOCKED: BRANCH   2  18
DOCKED: ATOM     18  C   UNL     1     -41.691 -13.194  10.558 -0.20 +0.00    +0.006 A  
DOCKED: ATOM     19  C   UNL     1     -43.085 -13.171  10.568 -0.20 +0.00    +0.001 A  
DOCKED: ATOM     20  C   UNL     1     -43.770 -12.194   9.844 -0.20 +0.00    +0.029 A  
DOCKED: ATOM     21  C   UNL     1     -43.061 -11.243   9.112 -0.08 +0.00    +0.140 A  
DOCKED: ATOM     22  C   UNL     1     -41.667 -11.267   9.102 -0.15 +0.00    +0.029 A  
DOCKED: ATOM     23  F   UNL     1     -43.719 -10.305   8.418 -0.03 -0.00    -0.204 F  
DOCKED: ATOM     24  C   UNL     1     -40.980 -12.244   9.826 -0.20 +0.00    +0.001 A  
DOCKED: ENDBRANCH   2  18
DOCKED: TORSDOF 5
DOCKED: TER
DOCKED: ENDMDL
________________________________________________________________________________


    FINAL DOCKED STATE:
    ________________________


Run:   131 / 512
Time taken for this run:   0.002s

DOCKED: MODEL        131
DOCKED: USER    Run = 131
DOCKED: USER
DOCKED: USER    Estimated Free Energy of Binding    =  -5.81 kcal/mol  [=(1)+(2)+(3)-(4)]
DOCKED: USER
DOCKED: USER    (1) Final Intermolecular Energy     =  -7.30 kcal/mol
DOCKED: USER        vdW + Hbond + desolv Energy     =  -7.30 kcal/mol
DOCKED: USER        Electrostatic Energy            =  +0.00 kcal/mol
DOCKED: USER        Moving Ligand-Fixed Receptor    =  -7.30 kcal/mol
DOCKED: USER        Moving Ligand-Moving Receptor   =  +0.00 kcal/mol
DOCKED: USER    (2) Final Total Internal Energy     =  -1.13 kcal/mol
DOCKED: USER    (3) Torsional Free Energy           =  +1.49 kcal/mol
DOCKED: USER    (4) Unbound System's Energy         =  -1.13 kcal/mol
DOCKED: USER
DOCKED: USER
DOCKED: REMARK  5 active torsions:
DOCKED: REMARK  status: ('A' for Active; 'I' for Inactive)
DOCKED: REMARK    1  A    between atoms: C_2  and  C_19 
DOCKED: REMARK    2  A    between atoms: C_2  and  C_11 
DOCKED: REMARK    3  A    between atoms: C_19  and  C_20 
DOCKED: REMARK    4  A    between atoms: C_20  and  C_21 
DOCKED: REMARK    5  A    between atoms: C_21  and  N_22 
DOCKED: USER                              x       y       z     vdW  Elec       q    Type
DOCKED: USER                           _______ _______ _______ _____ _____    ______ ____
DOCKED: ROOT
DOCKED: ATOM      1  O   UNL     1     -37.831 -19.524  11.328 -0.13 -0.00    -0.346 OA 
DOCKED: ATOM      2  C   UNL     1     -38.546 -18.248  11.272 -0.25 +0.00    +0.130 C  
DOCKED: ATOM      3  C   UNL     1     -39.176 -18.249   9.909 -0.35 +0.00    +0.004 A  
DOCKED: ATOM      4  C   UNL     1     -38.936 -19.465   9.284 -0.40 +0.00    +0.006 A  
DOCKED: ATOM      5  C   UNL     1     -38.153 -20.344  10.181 -0.19 +0.00    +0.169 C  
DOCKED: ATOM      6  C   UNL     1     -39.913 -17.258   9.278 -0.34 -0.00    -0.001 A  
DOCKED: ATOM      7  C   UNL     1     -39.417 -19.729   8.013 -0.32 +0.00    +0.008 A  
DOCKED: ATOM      8  C   UNL     1     -40.402 -17.508   7.994 -0.11 +0.00    +0.010 A  
DOCKED: ATOM      9  C   UNL     1     -40.155 -18.737   7.365 -0.44 +0.00    +0.068 A  
DOCKED: ATOM     10  N   UNL     1     -41.080 -19.170   4.984 -2.82 -0.00    -0.191 NA 
DOCKED: ATOM     11  C   UNL     1     -40.664 -18.976   6.052 -0.39 +0.00    +0.101 C  
DOCKED: ENDROOT
DOCKED: BRANCH   2  12
DOCKED: ATOM     12  C   UNL     1     -39.570 -18.219  12.400 -0.18 +0.00    +0.038 C  
DOCKED: BRANCH  12  13
DOCKED: ATOM     13  C   UNL     1     -40.617 -17.129  12.173 -0.11 +0.00    +0.038 C  
DOCKED: BRANCH  13  14
DOCKED: ATOM     14  C   UNL     1     -42.013 -17.731  12.027 -0.04 +0.00    +0.251 C  
DOCKED: BRANCH  14  15
DOCKED: ATOM     15  N   UNL     1     -41.966 -18.924  11.190 -0.14 +0.00    +0.141 N  
DOCKED: ATOM     16  C   UNL     1     -42.550 -20.069  11.891 -0.07 +0.00    +0.285 C  
DOCKED: ATOM     17  C   UNL     1     -42.665 -18.693   9.925 -0.11 +0.00    +0.285 C  
DOCKED: ENDBRANCH  14  15
DOCKED: ENDBRANCH  13  14
DOCKED: ENDBRANCH  12  13
DOCKED: ENDBRANCH   2  12
DOCKED: BRANCH   2  18
DOCKED: ATOM     18  C   UNL     1     -37.528 -17.170  11.441 -0.22 +0.00    +0.006 A  
DOCKED: ATOM     19  C   UNL     1     -36.223 -17.495  11.810 -0.20 +0.00    +0.001 A  
DOCKED: ATOM     20  C   UNL     1     -35.273 -16.486  11.968 -0.14 +0.00    +0.029 A  
DOCKED: ATOM     21  C   UNL     1     -35.627 -15.155  11.756 -0.08 +0.00    +0.140 A  
DOCKED: ATOM     22  C   UNL     1     -36.932 -14.830  11.386 -0.11 +0.00    +0.029 A  
DOCKED: ATOM     23  F   UNL     1     -34.714 -14.187  11.906 -0.01 -0.00    -0.204 F  
DOCKED: ATOM     24  C   UNL     1     -37.884 -15.839  11.228 -0.17 +0.00    +0.001 A  
DOCKED: ENDBRANCH   2  18
DOCKED: TORSDOF 5
DOCKED: TER
DOCKED: ENDMDL
________________________________________________________________________________


    FINAL DOCKED STATE:
    ________________________


Run:   132 / 512
Time taken for this run:   0.002s

DOCKED: MODEL        132
DOCKED: USER    Run = 132
DOCKED: USER
DOCKED: USER    Estimated Free Energy of Binding    =  -4.00 kcal/mol  [=(1)+(2)+(3)-(4)]
DOCKED: USER
DOCKED: USER    (1) Final Intermolecular Energy     =  -5.49 kcal/mol
DOCKED: USER        vdW + Hbond + desolv Energy     =  -5.49 kcal/mol
DOCKED: USER        Electrostatic Energy            =  +0.00 kcal/mol
DOCKED: USER        Moving Ligand-Fixed Receptor    =  -5.49 kcal/mol
DOCKED: USER        Moving Ligand-Moving Receptor   =  +0.00 kcal/mol
DOCKED: USER    (2) Final Total Internal Energy     =  -1.13 kcal/mol
DOCKED: USER    (3) Torsional Free Energy           =  +1.49 kcal/mol
DOCKED: USER    (4) Unbound System's Energy         =  -1.13 kcal/mol
DOCKED: USER
DOCKED: USER
DOCKED: REMARK  5 active torsions:
DOCKED: REMARK  status: ('A' for Active; 'I' for Inactive)
DOCKED: REMARK    1  A    between atoms: C_2  and  C_19 
DOCKED: REMARK    2  A    between atoms: C_2  and  C_11 
DOCKED: REMARK    3  A    between atoms: C_19  and  C_20 
DOCKED: REMARK    4  A    between atoms: C_20  and  C_21 
DOCKED: REMARK    5  A    between atoms: C_21  and  N_22 
DOCKED: USER                              x       y       z     vdW  Elec       q    Type
DOCKED: USER                           _______ _______ _______ _____ _____    ______ ____
DOCKED: ROOT
DOCKED: ATOM      1  O   UNL     1     -36.010 -10.623   4.145 -0.05 -0.00    -0.346 OA 
DOCKED: ATOM      2  C   UNL     1     -34.931  -9.694   3.806 -0.15 +0.00    +0.130 C  
DOCKED: ATOM      3  C   UNL     1     -35.429  -8.997   2.573 -0.14 +0.00    +0.004 A  
DOCKED: ATOM      4  C   UNL     1     -36.725  -9.410   2.295 -0.29 +0.00    +0.006 A  
DOCKED: ATOM      5  C   UNL     1     -37.172 -10.384   3.316 -0.20 +0.00    +0.169 C  
DOCKED: ATOM      6  C   UNL     1     -34.792  -8.064   1.769 -0.12 -0.00    -0.001 A  
DOCKED: ATOM      7  C   UNL     1     -37.422  -8.911   1.208 -0.22 +0.00    +0.008 A  
DOCKED: ATOM      8  C   UNL     1     -35.480  -7.555   0.666 -0.27 +0.00    +0.010 A  
DOCKED: ATOM      9  C   UNL     1     -36.789  -7.976   0.388 -0.34 +0.00    +0.068 A  
DOCKED: ATOM     10  N   UNL     1     -38.040  -7.008  -1.664 -2.42 -0.00    -0.191 NA 
DOCKED: ATOM     11  C   UNL     1     -37.479  -7.443  -0.744 -0.41 +0.00    +0.101 C  
DOCKED: ENDROOT
DOCKED: BRANCH   2  12
DOCKED: ATOM     12  C   UNL     1     -34.723  -8.746   4.981 +0.00 +0.00    +0.038 C  
DOCKED: BRANCH  12  13
DOCKED: ATOM     13  C   UNL     1     -35.683  -9.060   6.127 -0.18 +0.00    +0.038 C  
DOCKED: BRANCH  13  14
DOCKED: ATOM     14  C   UNL     1     -37.079  -8.511   5.840 -0.13 +0.00    +0.251 C  
DOCKED: BRANCH  14  15
DOCKED: ATOM     15  N   UNL     1     -38.023  -8.972   6.851 -0.13 +0.00    +0.141 N  
DOCKED: ATOM     16  C   UNL     1     -38.810  -7.852   7.372 -0.12 +0.00    +0.285 C  
DOCKED: ATOM     17  C   UNL     1     -38.908 -10.000   6.300 -0.14 +0.00    +0.285 C  
DOCKED: ENDBRANCH  14  15
DOCKED: ENDBRANCH  13  14
DOCKED: ENDBRANCH  12  13
DOCKED: ENDBRANCH   2  12
DOCKED: BRANCH   2  18
DOCKED: ATOM     18  C   UNL     1     -33.711 -10.517   3.556 -0.06 +0.00    +0.006 A  
DOCKED: ATOM     19  C   UNL     1     -33.836 -11.859   3.202 -0.06 +0.00    +0.001 A  
DOCKED: ATOM     20  C   UNL     1     -32.695 -12.627   2.969 -0.03 +0.00    +0.029 A  
DOCKED: ATOM     21  C   UNL     1     -31.431 -12.052   3.089 -0.00 +0.00    +0.140 A  
DOCKED: ATOM     22  C   UNL     1     -31.306 -10.709   3.443 -0.01 +0.00    +0.029 A  
DOCKED: ATOM     23  F   UNL     1     -30.335 -12.789   2.863 +0.00 -0.00    -0.204 F  
DOCKED: ATOM     24  C   UNL     1     -32.447  -9.940   3.677 -0.04 +0.00    +0.001 A  
DOCKED: ENDBRANCH   2  18
DOCKED: TORSDOF 5
DOCKED: TER
DOCKED: ENDMDL
________________________________________________________________________________


    FINAL DOCKED STATE:
    ________________________


Run:   133 / 512
Time taken for this run:   0.002s

DOCKED: MODEL        133
DOCKED: USER    Run = 133
DOCKED: USER
DOCKED: USER    Estimated Free Energy of Binding    =  -3.98 kcal/mol  [=(1)+(2)+(3)-(4)]
DOCKED: USER
DOCKED: USER    (1) Final Intermolecular Energy     =  -5.47 kcal/mol
DOCKED: USER        vdW + Hbond + desolv Energy     =  -5.47 kcal/mol
DOCKED: USER        Electrostatic Energy            =  +0.00 kcal/mol
DOCKED: USER        Moving Ligand-Fixed Receptor    =  -5.47 kcal/mol
DOCKED: USER        Moving Ligand-Moving Receptor   =  +0.00 kcal/mol
DOCKED: USER    (2) Final Total Internal Energy     =  -0.70 kcal/mol
DOCKED: USER    (3) Torsional Free Energy           =  +1.49 kcal/mol
DOCKED: USER    (4) Unbound System's Energy         =  -0.70 kcal/mol
DOCKED: USER
DOCKED: USER
DOCKED: REMARK  5 active torsions:
DOCKED: REMARK  status: ('A' for Active; 'I' for Inactive)
DOCKED: REMARK    1  A    between atoms: C_2  and  C_19 
DOCKED: REMARK    2  A    between atoms: C_2  and  C_11 
DOCKED: REMARK    3  A    between atoms: C_19  and  C_20 
DOCKED: REMARK    4  A    between atoms: C_20  and  C_21 
DOCKED: REMARK    5  A    between atoms: C_21  and  N_22 
DOCKED: USER                              x       y       z     vdW  Elec       q    Type
DOCKED: USER                           _______ _______ _______ _____ _____    ______ ____
DOCKED: ROOT
DOCKED: ATOM      1  O   UNL     1     -37.748 -14.287  11.172 -0.04 -0.00    -0.346 OA 
DOCKED: ATOM      2  C   UNL     1     -39.182 -14.001  11.128 -0.11 +0.00    +0.130 C  
DOCKED: ATOM      3  C   UNL     1     -39.784 -15.265  10.587 -0.21 +0.00    +0.004 A  
DOCKED: ATOM      4  C   UNL     1     -38.796 -16.228  10.440 -0.25 +0.00    +0.006 A  
DOCKED: ATOM      5  C   UNL     1     -37.492 -15.680  10.878 -0.14 +0.00    +0.169 C  
DOCKED: ATOM      6  C   UNL     1     -41.104 -15.545  10.262 -0.23 -0.00    -0.001 A  
DOCKED: ATOM      7  C   UNL     1     -39.088 -17.494   9.962 -0.31 +0.00    +0.008 A  
DOCKED: ATOM      8  C   UNL     1     -41.414 -16.816   9.775 -0.21 +0.00    +0.010 A  
DOCKED: ATOM      9  C   UNL     1     -40.411 -17.785   9.626 -0.26 +0.00    +0.068 A  
DOCKED: ATOM     10  N   UNL     1     -41.021 -20.136   8.723 -2.56 -0.00    -0.191 NA 
DOCKED: ATOM     11  C   UNL     1     -40.747 -19.081   9.128 -0.36 +0.00    +0.101 C  
DOCKED: ENDROOT
DOCKED: BRANCH   2  12
DOCKED: ATOM     12  C   UNL     1     -39.653 -13.676  12.540 -0.04 +0.00    +0.038 C  
DOCKED: BRANCH  12  13
DOCKED: ATOM     13  C   UNL     1     -40.698 -12.562  12.536 -0.03 +0.00    +0.038 C  
DOCKED: BRANCH  13  14
DOCKED: ATOM     14  C   UNL     1     -41.982 -13.011  13.232 -0.01 +0.00    +0.251 C  
DOCKED: BRANCH  14  15
DOCKED: ATOM     15  N   UNL     1     -42.063 -12.435  14.569 -0.00 +0.00    +0.141 N  
DOCKED: ATOM     16  C   UNL     1     -40.738 -12.380  15.188 +0.00 +0.00    +0.285 C  
DOCKED: ATOM     17  C   UNL     1     -42.656 -11.098  14.519 +0.00 +0.00    +0.285 C  
DOCKED: ENDBRANCH  14  15
DOCKED: ENDBRANCH  13  14
DOCKED: ENDBRANCH  12  13
DOCKED: ENDBRANCH   2  12
DOCKED: BRANCH   2  18
DOCKED: ATOM     18  C   UNL     1     -39.366 -12.833  10.217 -0.15 +0.00    +0.006 A  
DOCKED: ATOM     19  C   UNL     1     -38.297 -11.976   9.958 -0.10 +0.00    +0.001 A  
DOCKED: ATOM     20  C   UNL     1     -38.471 -10.884   9.106 -0.10 +0.00    +0.029 A  
DOCKED: ATOM     21  C   UNL     1     -39.712 -10.652   8.515 -0.12 +0.00    +0.140 A  
DOCKED: ATOM     22  C   UNL     1     -40.780 -11.510   8.774 -0.05 +0.00    +0.029 A  
DOCKED: ATOM     23  F   UNL     1     -39.878  -9.605   7.696 -0.02 -0.00    -0.204 F  
DOCKED: ATOM     24  C   UNL     1     -40.608 -12.602   9.626 -0.18 +0.00    +0.001 A  
DOCKED: ENDBRANCH   2  18
DOCKED: TORSDOF 5
DOCKED: TER
DOCKED: ENDMDL
________________________________________________________________________________


    FINAL DOCKED STATE:
    ________________________


Run:   134 / 512
Time taken for this run:   0.002s

DOCKED: MODEL        134
DOCKED: USER    Run = 134
DOCKED: USER
DOCKED: USER    Estimated Free Energy of Binding    =  -4.21 kcal/mol  [=(1)+(2)+(3)-(4)]
DOCKED: USER
DOCKED: USER    (1) Final Intermolecular Energy     =  -5.71 kcal/mol
DOCKED: USER        vdW + Hbond + desolv Energy     =  -5.71 kcal/mol
DOCKED: USER        Electrostatic Energy            =  +0.00 kcal/mol
DOCKED: USER        Moving Ligand-Fixed Receptor    =  -5.71 kcal/mol
DOCKED: USER        Moving Ligand-Moving Receptor   =  +0.00 kcal/mol
DOCKED: USER    (2) Final Total Internal Energy     =  -1.55 kcal/mol
DOCKED: USER    (3) Torsional Free Energy           =  +1.49 kcal/mol
DOCKED: USER    (4) Unbound System's Energy         =  -1.55 kcal/mol
DOCKED: USER
DOCKED: USER
DOCKED: REMARK  5 active torsions:
DOCKED: REMARK  status: ('A' for Active; 'I' for Inactive)
DOCKED: REMARK    1  A    between atoms: C_2  and  C_19 
DOCKED: REMARK    2  A    between atoms: C_2  and  C_11 
DOCKED: REMARK    3  A    between atoms: C_19  and  C_20 
DOCKED: REMARK    4  A    between atoms: C_20  and  C_21 
DOCKED: REMARK    5  A    between atoms: C_21  and  N_22 
DOCKED: USER                              x       y       z     vdW  Elec       q    Type
DOCKED: USER                           _______ _______ _______ _____ _____    ______ ____
DOCKED: ROOT
DOCKED: ATOM      1  O   UNL     1     -36.681 -15.553  11.549 -0.07 -0.00    -0.346 OA 
DOCKED: ATOM      2  C   UNL     1     -37.870 -14.856  11.056 -0.14 +0.00    +0.130 C  
DOCKED: ATOM      3  C   UNL     1     -38.709 -15.951  10.464 -0.24 +0.00    +0.004 A  
DOCKED: ATOM      4  C   UNL     1     -38.106 -17.179  10.696 -0.24 +0.00    +0.006 A  
DOCKED: ATOM      5  C   UNL     1     -36.851 -16.987  11.458 -0.14 +0.00    +0.169 C  
DOCKED: ATOM      6  C   UNL     1     -39.916 -15.869   9.785 -0.26 -0.00    -0.001 A  
DOCKED: ATOM      7  C   UNL     1     -38.681 -18.359  10.257 -0.34 +0.00    +0.008 A  
DOCKED: ATOM      8  C   UNL     1     -40.506 -17.049   9.331 -0.27 +0.00    +0.010 A  
DOCKED: ATOM      9  C   UNL     1     -39.892 -18.288   9.567 -0.30 +0.00    +0.068 A  
DOCKED: ATOM     10  N   UNL     1     -41.017 -20.461   8.715 -2.55 -0.00    -0.191 NA 
DOCKED: ATOM     11  C   UNL     1     -40.512 -19.487   9.097 -0.33 +0.00    +0.101 C  
DOCKED: ENDROOT
DOCKED: BRANCH   2  12
DOCKED: ATOM     12  C   UNL     1     -38.545 -14.162  12.233 -0.06 +0.00    +0.038 C  
DOCKED: BRANCH  12  13
DOCKED: ATOM     13  C   UNL     1     -37.628 -14.117  13.454 -0.02 +0.00    +0.038 C  
DOCKED: BRANCH  13  14
DOCKED: ATOM     14  C   UNL     1     -36.761 -12.860  13.445 -0.00 +0.00    +0.251 C  
DOCKED: BRANCH  14  15
DOCKED: ATOM     15  N   UNL     1     -35.348 -13.218  13.441 -0.01 +0.00    +0.141 N  
DOCKED: ATOM     16  C   UNL     1     -35.157 -14.573  13.962 -0.01 +0.00    +0.285 C  
DOCKED: ATOM     17  C   UNL     1     -34.793 -13.112  12.090 -0.01 +0.00    +0.285 C  
DOCKED: ENDBRANCH  14  15
DOCKED: ENDBRANCH  13  14
DOCKED: ENDBRANCH  12  13
DOCKED: ENDBRANCH   2  12
DOCKED: BRANCH   2  18
DOCKED: ATOM     18  C   UNL     1     -37.406 -13.866  10.041 -0.16 +0.00    +0.006 A  
DOCKED: ATOM     19  C   UNL     1     -36.264 -14.127   9.284 -0.12 +0.00    +0.001 A  
DOCKED: ATOM     20  C   UNL     1     -35.831 -13.200   8.335 -0.14 +0.00    +0.029 A  
DOCKED: ATOM     21  C   UNL     1     -36.539 -12.015   8.144 -0.08 +0.00    +0.140 A  
DOCKED: ATOM     22  C   UNL     1     -37.681 -11.754   8.901 -0.09 +0.00    +0.029 A  
DOCKED: ATOM     23  F   UNL     1     -36.124 -11.126   7.232 -0.01 -0.00    -0.204 F  
DOCKED: ATOM     24  C   UNL     1     -38.115 -12.681   9.851 -0.13 +0.00    +0.001 A  
DOCKED: ENDBRANCH   2  18
DOCKED: TORSDOF 5
DOCKED: TER
DOCKED: ENDMDL
________________________________________________________________________________


    FINAL DOCKED STATE:
    ________________________


Run:   135 / 512
Time taken for this run:   0.002s

DOCKED: MODEL        135
DOCKED: USER    Run = 135
DOCKED: USER
DOCKED: USER    Estimated Free Energy of Binding    =  -3.96 kcal/mol  [=(1)+(2)+(3)-(4)]
DOCKED: USER
DOCKED: USER    (1) Final Intermolecular Energy     =  -5.45 kcal/mol
DOCKED: USER        vdW + Hbond + desolv Energy     =  -5.45 kcal/mol
DOCKED: USER        Electrostatic Energy            =  +0.00 kcal/mol
DOCKED: USER        Moving Ligand-Fixed Receptor    =  -5.45 kcal/mol
DOCKED: USER        Moving Ligand-Moving Receptor   =  +0.00 kcal/mol
DOCKED: USER    (2) Final Total Internal Energy     =  -1.21 kcal/mol
DOCKED: USER    (3) Torsional Free Energy           =  +1.49 kcal/mol
DOCKED: USER    (4) Unbound System's Energy         =  -1.21 kcal/mol
DOCKED: USER
DOCKED: USER
DOCKED: REMARK  5 active torsions:
DOCKED: REMARK  status: ('A' for Active; 'I' for Inactive)
DOCKED: REMARK    1  A    between atoms: C_2  and  C_19 
DOCKED: REMARK    2  A    between atoms: C_2  and  C_11 
DOCKED: REMARK    3  A    between atoms: C_19  and  C_20 
DOCKED: REMARK    4  A    between atoms: C_20  and  C_21 
DOCKED: REMARK    5  A    between atoms: C_21  and  N_22 
DOCKED: USER                              x       y       z     vdW  Elec       q    Type
DOCKED: USER                           _______ _______ _______ _____ _____    ______ ____
DOCKED: ROOT
DOCKED: ATOM      1  O   UNL     1     -30.439 -17.276   2.074 +0.00 -0.00    -0.346 OA 
DOCKED: ATOM      2  C   UNL     1     -31.249 -16.325   2.837 -0.06 +0.00    +0.130 C  
DOCKED: ATOM      3  C   UNL     1     -31.874 -17.167   3.912 -0.11 +0.00    +0.004 A  
DOCKED: ATOM      4  C   UNL     1     -31.379 -18.461   3.839 -0.11 +0.00    +0.006 A  
DOCKED: ATOM      5  C   UNL     1     -30.398 -18.562   2.735 -0.05 +0.00    +0.169 C  
DOCKED: ATOM      6  C   UNL     1     -32.798 -16.812   4.884 -0.18 -0.00    -0.001 A  
DOCKED: ATOM      7  C   UNL     1     -31.791 -19.441   4.726 -0.20 +0.00    +0.008 A  
DOCKED: ATOM      8  C   UNL     1     -33.226 -17.790   5.783 -0.29 +0.00    +0.010 A  
DOCKED: ATOM      9  C   UNL     1     -32.725 -19.098   5.704 -0.28 +0.00    +0.068 A  
DOCKED: ATOM     10  N   UNL     1     -33.537 -20.889   7.392 -2.61 -0.00    -0.191 NA 
DOCKED: ATOM     11  C   UNL     1     -33.173 -20.086   6.635 -0.42 +0.00    +0.101 C  
DOCKED: ENDROOT
DOCKED: BRANCH   2  12
DOCKED: ATOM     12  C   UNL     1     -30.330 -15.243   3.390 -0.01 +0.00    +0.038 C  
DOCKED: BRANCH  12  13
DOCKED: ATOM     13  C   UNL     1     -29.724 -15.658   4.730 -0.02 +0.00    +0.038 C  
DOCKED: BRANCH  13  14
DOCKED: ATOM     14  C   UNL     1     -29.611 -14.464   5.676 -0.00 +0.00    +0.251 C  
DOCKED: BRANCH  14  15
DOCKED: ATOM     15  N   UNL     1     -29.945 -14.863   7.038 -0.01 +0.00    +0.141 N  
DOCKED: ATOM     16  C   UNL     1     -30.201 -16.302   7.106 -0.01 +0.00    +0.285 C  
DOCKED: ATOM     17  C   UNL     1     -28.871 -14.494   7.961 -0.00 +0.00    +0.285 C  
DOCKED: ENDBRANCH  14  15
DOCKED: ENDBRANCH  13  14
DOCKED: ENDBRANCH  12  13
DOCKED: ENDBRANCH   2  12
DOCKED: BRANCH   2  18
DOCKED: ATOM     18  C   UNL     1     -32.251 -15.749   1.893 -0.12 +0.00    +0.006 A  
DOCKED: ATOM     19  C   UNL     1     -33.031 -14.661   2.283 -0.14 +0.00    +0.001 A  
DOCKED: ATOM     20  C   UNL     1     -33.968 -14.124   1.399 -0.20 +0.00    +0.029 A  
DOCKED: ATOM     21  C   UNL     1     -34.123 -14.675   0.128 -0.17 +0.00    +0.140 A  
DOCKED: ATOM     22  C   UNL     1     -33.343 -15.764  -0.261 -0.16 +0.00    +0.029 A  
DOCKED: ATOM     23  F   UNL     1     -35.021 -14.158  -0.721 -0.14 -0.00    -0.204 F  
DOCKED: ATOM     24  C   UNL     1     -32.406 -16.302   0.622 -0.14 +0.00    +0.001 A  
DOCKED: ENDBRANCH   2  18
DOCKED: TORSDOF 5
DOCKED: TER
DOCKED: ENDMDL
________________________________________________________________________________


    FINAL DOCKED STATE:
    ________________________


Run:   136 / 512
Time taken for this run:   0.002s

DOCKED: MODEL        136
DOCKED: USER    Run = 136
DOCKED: USER
DOCKED: USER    Estimated Free Energy of Binding    =  -5.01 kcal/mol  [=(1)+(2)+(3)-(4)]
DOCKED: USER
DOCKED: USER    (1) Final Intermolecular Energy     =  -6.50 kcal/mol
DOCKED: USER        vdW + Hbond + desolv Energy     =  -6.50 kcal/mol
DOCKED: USER        Electrostatic Energy            =  +0.00 kcal/mol
DOCKED: USER        Moving Ligand-Fixed Receptor    =  -6.50 kcal/mol
DOCKED: USER        Moving Ligand-Moving Receptor   =  +0.00 kcal/mol
DOCKED: USER    (2) Final Total Internal Energy     =  -1.08 kcal/mol
DOCKED: USER    (3) Torsional Free Energy           =  +1.49 kcal/mol
DOCKED: USER    (4) Unbound System's Energy         =  -1.08 kcal/mol
DOCKED: USER
DOCKED: USER
DOCKED: REMARK  5 active torsions:
DOCKED: REMARK  status: ('A' for Active; 'I' for Inactive)
DOCKED: REMARK    1  A    between atoms: C_2  and  C_19 
DOCKED: REMARK    2  A    between atoms: C_2  and  C_11 
DOCKED: REMARK    3  A    between atoms: C_19  and  C_20 
DOCKED: REMARK    4  A    between atoms: C_20  and  C_21 
DOCKED: REMARK    5  A    between atoms: C_21  and  N_22 
DOCKED: USER                              x       y       z     vdW  Elec       q    Type
DOCKED: USER                           _______ _______ _______ _____ _____    ______ ____
DOCKED: ROOT
DOCKED: ATOM      1  O   UNL     1     -41.841 -16.663  11.820 -0.00 -0.00    -0.346 OA 
DOCKED: ATOM      2  C   UNL     1     -40.432 -17.009  11.631 -0.10 +0.00    +0.130 C  
DOCKED: ATOM      3  C   UNL     1     -40.386 -17.588  10.246 -0.24 +0.00    +0.004 A  
DOCKED: ATOM      4  C   UNL     1     -41.636 -17.480   9.653 -0.25 +0.00    +0.006 A  
DOCKED: ATOM      5  C   UNL     1     -42.579 -16.822  10.585 -0.16 +0.00    +0.169 C  
DOCKED: ATOM      6  C   UNL     1     -39.320 -18.153   9.562 -0.36 -0.00    -0.001 A  
DOCKED: ATOM      7  C   UNL     1     -41.865 -17.935   8.366 -0.15 +0.00    +0.008 A  
DOCKED: ATOM      8  C   UNL     1     -39.536 -18.621   8.264 -0.37 +0.00    +0.010 A  
DOCKED: ATOM      9  C   UNL     1     -40.802 -18.512   7.669 -0.39 +0.00    +0.068 A  
DOCKED: ATOM     10  N   UNL     1     -41.166 -19.385   5.257 -2.45 -0.00    -0.191 NA 
DOCKED: ATOM     11  C   UNL     1     -41.003 -18.994   6.339 -0.33 +0.00    +0.101 C  
DOCKED: ENDROOT
DOCKED: BRANCH   2  12
DOCKED: ATOM     12  C   UNL     1     -39.600 -15.740  11.772 -0.11 +0.00    +0.038 C  
DOCKED: BRANCH  12  13
DOCKED: ATOM     13  C   UNL     1     -39.663 -14.889  10.505 -0.22 +0.00    +0.038 C  
DOCKED: BRANCH  13  14
DOCKED: ATOM     14  C   UNL     1     -38.334 -14.925   9.753 -0.15 +0.00    +0.251 C  
DOCKED: BRANCH  14  15
DOCKED: ATOM     15  N   UNL     1     -37.848 -13.570   9.518 -0.14 +0.00    +0.141 N  
DOCKED: ATOM     16  C   UNL     1     -38.789 -12.584  10.053 -0.10 +0.00    +0.285 C  
DOCKED: ATOM     17  C   UNL     1     -36.525 -13.386  10.116 -0.09 +0.00    +0.285 C  
DOCKED: ENDBRANCH  14  15
DOCKED: ENDBRANCH  13  14
DOCKED: ENDBRANCH  12  13
DOCKED: ENDBRANCH   2  12
DOCKED: BRANCH   2  18
DOCKED: ATOM     18  C   UNL     1     -40.082 -18.003  12.688 -0.12 +0.00    +0.006 A  
DOCKED: ATOM     19  C   UNL     1     -41.090 -18.616  13.429 -0.14 +0.00    +0.001 A  
DOCKED: ATOM     20  C   UNL     1     -40.761 -19.545  14.418 -0.10 +0.00    +0.029 A  
DOCKED: ATOM     21  C   UNL     1     -39.425 -19.858  14.663 -0.12 +0.00    +0.140 A  
DOCKED: ATOM     22  C   UNL     1     -38.417 -19.244  13.921 -0.16 +0.00    +0.029 A  
DOCKED: ATOM     23  F   UNL     1     -39.110 -20.751  15.610 -0.08 -0.00    -0.204 F  
DOCKED: ATOM     24  C   UNL     1     -38.745 -18.315  12.932 -0.17 +0.00    +0.001 A  
DOCKED: ENDBRANCH   2  18
DOCKED: TORSDOF 5
DOCKED: TER
DOCKED: ENDMDL
________________________________________________________________________________


    FINAL DOCKED STATE:
    ________________________


Run:   137 / 512
Time taken for this run:   0.002s

DOCKED: MODEL        137
DOCKED: USER    Run = 137
DOCKED: USER
DOCKED: USER    Estimated Free Energy of Binding    =  -4.53 kcal/mol  [=(1)+(2)+(3)-(4)]
DOCKED: USER
DOCKED: USER    (1) Final Intermolecular Energy     =  -6.03 kcal/mol
DOCKED: USER        vdW + Hbond + desolv Energy     =  -6.03 kcal/mol
DOCKED: USER        Electrostatic Energy            =  +0.00 kcal/mol
DOCKED: USER        Moving Ligand-Fixed Receptor    =  -6.03 kcal/mol
DOCKED: USER        Moving Ligand-Moving Receptor   =  +0.00 kcal/mol
DOCKED: USER    (2) Final Total Internal Energy     =  -1.06 kcal/mol
DOCKED: USER    (3) Torsional Free Energy           =  +1.49 kcal/mol
DOCKED: USER    (4) Unbound System's Energy         =  -1.06 kcal/mol
DOCKED: USER
DOCKED: USER
DOCKED: REMARK  5 active torsions:
DOCKED: REMARK  status: ('A' for Active; 'I' for Inactive)
DOCKED: REMARK    1  A    between atoms: C_2  and  C_19 
DOCKED: REMARK    2  A    between atoms: C_2  and  C_11 
DOCKED: REMARK    3  A    between atoms: C_19  and  C_20 
DOCKED: REMARK    4  A    between atoms: C_20  and  C_21 
DOCKED: REMARK    5  A    between atoms: C_21  and  N_22 
DOCKED: USER                              x       y       z     vdW  Elec       q    Type
DOCKED: USER                           _______ _______ _______ _____ _____    ______ ____
DOCKED: ROOT
DOCKED: ATOM      1  O   UNL     1     -36.170 -16.130  11.922 -0.08 -0.00    -0.346 OA 
DOCKED: ATOM      2  C   UNL     1     -37.106 -15.245  11.228 -0.13 +0.00    +0.130 C  
DOCKED: ATOM      3  C   UNL     1     -38.073 -16.188  10.572 -0.22 +0.00    +0.004 A  
DOCKED: ATOM      4  C   UNL     1     -37.782 -17.491  10.948 -0.24 +0.00    +0.006 A  
DOCKED: ATOM      5  C   UNL     1     -36.628 -17.501  11.874 -0.17 +0.00    +0.169 C  
DOCKED: ATOM      6  C   UNL     1     -39.133 -15.913   9.720 -0.27 -0.00    -0.001 A  
DOCKED: ATOM      7  C   UNL     1     -38.532 -18.559  10.485 -0.34 +0.00    +0.008 A  
DOCKED: ATOM      8  C   UNL     1     -39.896 -16.979   9.241 -0.32 +0.00    +0.010 A  
DOCKED: ATOM      9  C   UNL     1     -39.597 -18.296   9.622 -0.31 +0.00    +0.068 A  
DOCKED: ATOM     10  N   UNL     1     -41.036 -20.252   8.719 -2.56 -0.00    -0.191 NA 
DOCKED: ATOM     11  C   UNL     1     -40.390 -19.374   9.124 -0.37 +0.00    +0.101 C  
DOCKED: ENDROOT
DOCKED: BRANCH   2  12
DOCKED: ATOM     12  C   UNL     1     -37.768 -14.339  12.259 -0.06 +0.00    +0.038 C  
DOCKED: BRANCH  12  13
DOCKED: ATOM     13  C   UNL     1     -37.891 -12.906  11.744 -0.05 +0.00    +0.038 C  
DOCKED: BRANCH  13  14
DOCKED: ATOM     14  C   UNL     1     -39.188 -12.712  10.962 -0.07 +0.00    +0.251 C  
DOCKED: BRANCH  14  15
DOCKED: ATOM     15  N   UNL     1     -40.308 -13.307  11.682 -0.05 +0.00    +0.141 N  
DOCKED: ATOM     16  C   UNL     1     -40.876 -12.351  12.634 -0.01 +0.00    +0.285 C  
DOCKED: ATOM     17  C   UNL     1     -41.337 -13.765  10.747 -0.14 +0.00    +0.285 C  
DOCKED: ENDBRANCH  14  15
DOCKED: ENDBRANCH  13  14
DOCKED: ENDBRANCH  12  13
DOCKED: ENDBRANCH   2  12
DOCKED: BRANCH   2  18
DOCKED: ATOM     18  C   UNL     1     -36.311 -14.451  10.246 -0.13 +0.00    +0.006 A  
DOCKED: ATOM     19  C   UNL     1     -34.982 -14.132  10.521 -0.10 +0.00    +0.001 A  
DOCKED: ATOM     20  C   UNL     1     -34.239 -13.390   9.602 -0.07 +0.00    +0.029 A  
DOCKED: ATOM     21  C   UNL     1     -34.826 -12.969   8.410 -0.08 +0.00    +0.140 A  
DOCKED: ATOM     22  C   UNL     1     -36.155 -13.289   8.135 -0.14 +0.00    +0.029 A  
DOCKED: ATOM     23  F   UNL     1     -34.112 -12.258   7.527 -0.00 -0.00    -0.204 F  
DOCKED: ATOM     24  C   UNL     1     -36.899 -14.031   9.053 -0.11 +0.00    +0.001 A  
DOCKED: ENDBRANCH   2  18
DOCKED: TORSDOF 5
DOCKED: TER
DOCKED: ENDMDL
________________________________________________________________________________


    FINAL DOCKED STATE:
    ________________________


Run:   138 / 512
Time taken for this run:   0.002s

DOCKED: MODEL        138
DOCKED: USER    Run = 138
DOCKED: USER
DOCKED: USER    Estimated Free Energy of Binding    =  -4.20 kcal/mol  [=(1)+(2)+(3)-(4)]
DOCKED: USER
DOCKED: USER    (1) Final Intermolecular Energy     =  -5.69 kcal/mol
DOCKED: USER        vdW + Hbond + desolv Energy     =  -5.69 kcal/mol
DOCKED: USER        Electrostatic Energy            =  +0.00 kcal/mol
DOCKED: USER        Moving Ligand-Fixed Receptor    =  -5.69 kcal/mol
DOCKED: USER        Moving Ligand-Moving Receptor   =  +0.00 kcal/mol
DOCKED: USER    (2) Final Total Internal Energy     =  -1.29 kcal/mol
DOCKED: USER    (3) Torsional Free Energy           =  +1.49 kcal/mol
DOCKED: USER    (4) Unbound System's Energy         =  -1.29 kcal/mol
DOCKED: USER
DOCKED: USER
DOCKED: REMARK  5 active torsions:
DOCKED: REMARK  status: ('A' for Active; 'I' for Inactive)
DOCKED: REMARK    1  A    between atoms: C_2  and  C_19 
DOCKED: REMARK    2  A    between atoms: C_2  and  C_11 
DOCKED: REMARK    3  A    between atoms: C_19  and  C_20 
DOCKED: REMARK    4  A    between atoms: C_20  and  C_21 
DOCKED: REMARK    5  A    between atoms: C_21  and  N_22 
DOCKED: USER                              x       y       z     vdW  Elec       q    Type
DOCKED: USER                           _______ _______ _______ _____ _____    ______ ____
DOCKED: ROOT
DOCKED: ATOM      1  O   UNL     1     -35.841 -16.534  11.984 -0.09 -0.00    -0.346 OA 
DOCKED: ATOM      2  C   UNL     1     -36.865 -15.567  11.585 -0.12 +0.00    +0.130 C  
DOCKED: ATOM      3  C   UNL     1     -37.901 -16.406  10.895 -0.20 +0.00    +0.004 A  
DOCKED: ATOM      4  C   UNL     1     -37.556 -17.746  10.988 -0.23 +0.00    +0.006 A  
DOCKED: ATOM      5  C   UNL     1     -36.292 -17.887  11.746 -0.08 +0.00    +0.169 C  
DOCKED: ATOM      6  C   UNL     1     -39.063 -16.014  10.246 -0.26 -0.00    -0.001 A  
DOCKED: ATOM      7  C   UNL     1     -38.351 -18.736  10.437 -0.35 +0.00    +0.008 A  
DOCKED: ATOM      8  C   UNL     1     -39.874 -17.000   9.681 -0.31 +0.00    +0.010 A  
DOCKED: ATOM      9  C   UNL     1     -39.520 -18.354   9.777 -0.31 +0.00    +0.068 A  
DOCKED: ATOM     10  N   UNL     1     -41.050 -20.159   8.721 -2.55 -0.00    -0.191 NA 
DOCKED: ATOM     11  C   UNL     1     -40.363 -19.349   9.194 -0.36 +0.00    +0.101 C  
DOCKED: ENDROOT
DOCKED: BRANCH   2  12
DOCKED: ATOM     12  C   UNL     1     -37.395 -14.880  12.838 -0.05 +0.00    +0.038 C  
DOCKED: BRANCH  12  13
DOCKED: ATOM     13  C   UNL     1     -38.031 -15.885  13.796 -0.04 +0.00    +0.038 C  
DOCKED: BRANCH  13  14
DOCKED: ATOM     14  C   UNL     1     -39.539 -15.665  13.901 -0.01 +0.00    +0.251 C  
DOCKED: BRANCH  14  15
DOCKED: ATOM     15  N   UNL     1     -40.203 -16.892  14.323 -0.02 +0.00    +0.141 N  
DOCKED: ATOM     16  C   UNL     1     -40.137 -17.904  13.267 -0.04 +0.00    +0.285 C  
DOCKED: ATOM     17  C   UNL     1     -39.602 -17.406  15.556 -0.01 +0.00    +0.285 C  
DOCKED: ENDBRANCH  14  15
DOCKED: ENDBRANCH  13  14
DOCKED: ENDBRANCH  12  13
DOCKED: ENDBRANCH   2  12
DOCKED: BRANCH   2  18
DOCKED: ATOM     18  C   UNL     1     -36.207 -14.587  10.671 -0.13 +0.00    +0.006 A  
DOCKED: ATOM     19  C   UNL     1     -34.818 -14.576  10.545 -0.11 +0.00    +0.001 A  
DOCKED: ATOM     20  C   UNL     1     -34.205 -13.659   9.690 -0.08 +0.00    +0.029 A  
DOCKED: ATOM     21  C   UNL     1     -34.980 -12.756   8.964 -0.06 +0.00    +0.140 A  
DOCKED: ATOM     22  C   UNL     1     -36.368 -12.768   9.091 -0.12 +0.00    +0.029 A  
DOCKED: ATOM     23  F   UNL     1     -34.391 -11.877   8.143 -0.00 -0.00    -0.204 F  
DOCKED: ATOM     24  C   UNL     1     -36.983 -13.684   9.946 -0.15 +0.00    +0.001 A  
DOCKED: ENDBRANCH   2  18
DOCKED: TORSDOF 5
DOCKED: TER
DOCKED: ENDMDL
________________________________________________________________________________


    FINAL DOCKED STATE:
    ________________________


Run:   139 / 512
Time taken for this run:   0.002s

DOCKED: MODEL        139
DOCKED: USER    Run = 139
DOCKED: USER
DOCKED: USER    Estimated Free Energy of Binding    =  -4.12 kcal/mol  [=(1)+(2)+(3)-(4)]
DOCKED: USER
DOCKED: USER    (1) Final Intermolecular Energy     =  -5.61 kcal/mol
DOCKED: USER        vdW + Hbond + desolv Energy     =  -5.61 kcal/mol
DOCKED: USER        Electrostatic Energy            =  +0.00 kcal/mol
DOCKED: USER        Moving Ligand-Fixed Receptor    =  -5.61 kcal/mol
DOCKED: USER        Moving Ligand-Moving Receptor   =  +0.00 kcal/mol
DOCKED: USER    (2) Final Total Internal Energy     =  -0.96 kcal/mol
DOCKED: USER    (3) Torsional Free Energy           =  +1.49 kcal/mol
DOCKED: USER    (4) Unbound System's Energy         =  -0.96 kcal/mol
DOCKED: USER
DOCKED: USER
DOCKED: REMARK  5 active torsions:
DOCKED: REMARK  status: ('A' for Active; 'I' for Inactive)
DOCKED: REMARK    1  A    between atoms: C_2  and  C_19 
DOCKED: REMARK    2  A    between atoms: C_2  and  C_11 
DOCKED: REMARK    3  A    between atoms: C_19  and  C_20 
DOCKED: REMARK    4  A    between atoms: C_20  and  C_21 
DOCKED: REMARK    5  A    between atoms: C_21  and  N_22 
DOCKED: USER                              x       y       z     vdW  Elec       q    Type
DOCKED: USER                           _______ _______ _______ _____ _____    ______ ____
DOCKED: ROOT
DOCKED: ATOM      1  O   UNL     1     -41.332 -13.454  10.987 -0.06 -0.00    -0.346 OA 
DOCKED: ATOM      2  C   UNL     1     -39.940 -13.734  10.633 -0.16 +0.00    +0.130 C  
DOCKED: ATOM      3  C   UNL     1     -39.963 -15.169  10.192 -0.23 +0.00    +0.004 A  
DOCKED: ATOM      4  C   UNL     1     -41.270 -15.636  10.187 -0.22 +0.00    +0.006 A  
DOCKED: ATOM      5  C   UNL     1     -42.190 -14.555  10.606 -0.19 +0.00    +0.169 C  
DOCKED: ATOM      6  C   UNL     1     -38.912 -15.992   9.813 -0.28 -0.00    -0.001 A  
DOCKED: ATOM      7  C   UNL     1     -41.571 -16.933   9.811 -0.22 +0.00    +0.008 A  
DOCKED: ATOM      8  C   UNL     1     -39.199 -17.305   9.435 -0.33 +0.00    +0.010 A  
DOCKED: ATOM      9  C   UNL     1     -40.521 -17.773   9.433 -0.27 +0.00    +0.068 A  
DOCKED: ATOM     10  N   UNL     1     -41.019 -20.214   8.721 -2.56 -0.00    -0.191 NA 
DOCKED: ATOM     11  C   UNL     1     -40.796 -19.119   9.041 -0.37 +0.00    +0.101 C  
DOCKED: ENDROOT
DOCKED: BRANCH   2  12
DOCKED: ATOM     12  C   UNL     1     -39.522 -12.778   9.523 -0.11 +0.00    +0.038 C  
DOCKED: BRANCH  12  13
DOCKED: ATOM     13  C   UNL     1     -40.363 -11.503   9.540 -0.17 +0.00    +0.038 C  
DOCKED: BRANCH  13  14
DOCKED: ATOM     14  C   UNL     1     -40.276 -10.769   8.204 -0.11 +0.00    +0.251 C  
DOCKED: BRANCH  14  15
DOCKED: ATOM     15  N   UNL     1     -40.209  -9.328   8.420 -0.07 +0.00    +0.141 N  
DOCKED: ATOM     16  C   UNL     1     -38.927  -8.795   7.955 -0.05 +0.00    +0.285 C  
DOCKED: ATOM     17  C   UNL     1     -41.316  -8.653   7.740 -0.06 +0.00    +0.285 C  
DOCKED: ENDBRANCH  14  15
DOCKED: ENDBRANCH  13  14
DOCKED: ENDBRANCH  12  13
DOCKED: ENDBRANCH   2  12
DOCKED: BRANCH   2  18
DOCKED: ATOM     18  C   UNL     1     -39.125 -13.518  11.865 -0.06 +0.00    +0.006 A  
DOCKED: ATOM     19  C   UNL     1     -37.743 -13.364  11.767 -0.05 +0.00    +0.001 A  
DOCKED: ATOM     20  C   UNL     1     -36.982 -13.162  12.919 -0.01 +0.00    +0.029 A  
DOCKED: ATOM     21  C   UNL     1     -37.604 -13.114  14.166 -0.00 +0.00    +0.140 A  
DOCKED: ATOM     22  C   UNL     1     -38.987 -13.268  14.263 -0.00 +0.00    +0.029 A  
DOCKED: ATOM     23  F   UNL     1     -36.874 -12.918  15.272 -0.00 -0.00    -0.204 F  
DOCKED: ATOM     24  C   UNL     1     -39.749 -13.470  13.111 -0.02 +0.00    +0.001 A  
DOCKED: ENDBRANCH   2  18
DOCKED: TORSDOF 5
DOCKED: TER
DOCKED: ENDMDL
________________________________________________________________________________


    FINAL DOCKED STATE:
    ________________________


Run:   140 / 512
Time taken for this run:   0.002s

DOCKED: MODEL        140
DOCKED: USER    Run = 140
DOCKED: USER
DOCKED: USER    Estimated Free Energy of Binding    =  -6.30 kcal/mol  [=(1)+(2)+(3)-(4)]
DOCKED: USER
DOCKED: USER    (1) Final Intermolecular Energy     =  -7.80 kcal/mol
DOCKED: USER        vdW + Hbond + desolv Energy     =  -7.80 kcal/mol
DOCKED: USER        Electrostatic Energy            =  +0.00 kcal/mol
DOCKED: USER        Moving Ligand-Fixed Receptor    =  -7.80 kcal/mol
DOCKED: USER        Moving Ligand-Moving Receptor   =  +0.00 kcal/mol
DOCKED: USER    (2) Final Total Internal Energy     =  -1.27 kcal/mol
DOCKED: USER    (3) Torsional Free Energy           =  +1.49 kcal/mol
DOCKED: USER    (4) Unbound System's Energy         =  -1.27 kcal/mol
DOCKED: USER
DOCKED: USER
DOCKED: REMARK  5 active torsions:
DOCKED: REMARK  status: ('A' for Active; 'I' for Inactive)
DOCKED: REMARK    1  A    between atoms: C_2  and  C_19 
DOCKED: REMARK    2  A    between atoms: C_2  and  C_11 
DOCKED: REMARK    3  A    between atoms: C_19  and  C_20 
DOCKED: REMARK    4  A    between atoms: C_20  and  C_21 
DOCKED: REMARK    5  A    between atoms: C_21  and  N_22 
DOCKED: USER                              x       y       z     vdW  Elec       q    Type
DOCKED: USER                           _______ _______ _______ _____ _____    ______ ____
DOCKED: ROOT
DOCKED: ATOM      1  O   UNL     1     -37.784 -19.816  11.085 -0.21 -0.00    -0.346 OA 
DOCKED: ATOM      2  C   UNL     1     -38.630 -18.628  11.216 -0.27 +0.00    +0.130 C  
DOCKED: ATOM      3  C   UNL     1     -39.303 -18.518   9.879 -0.36 +0.00    +0.004 A  
DOCKED: ATOM      4  C   UNL     1     -38.959 -19.607   9.091 -0.39 +0.00    +0.006 A  
DOCKED: ATOM      5  C   UNL     1     -38.058 -20.507   9.844 -0.29 +0.00    +0.169 C  
DOCKED: ATOM      6  C   UNL     1     -40.161 -17.537   9.402 -0.34 -0.00    -0.001 A  
DOCKED: ATOM      7  C   UNL     1     -39.453 -19.751   7.806 -0.29 +0.00    +0.008 A  
DOCKED: ATOM      8  C   UNL     1     -40.664 -17.666   8.106 -0.11 +0.00    +0.010 A  
DOCKED: ATOM      9  C   UNL     1     -40.312 -18.768   7.312 -0.45 +0.00    +0.068 A  
DOCKED: ATOM     10  N   UNL     1     -41.268 -18.980   4.914 -3.07 -0.00    -0.191 NA 
DOCKED: ATOM     11  C   UNL     1     -40.839 -18.884   5.989 -0.32 +0.00    +0.101 C  
DOCKED: ENDROOT
DOCKED: BRANCH   2  12
DOCKED: ATOM     12  C   UNL     1     -39.612 -18.859  12.358 -0.24 +0.00    +0.038 C  
DOCKED: BRANCH  12  13
DOCKED: ATOM     13  C   UNL     1     -38.988 -19.702  13.468 -0.26 +0.00    +0.038 C  
DOCKED: BRANCH  13  14
DOCKED: ATOM     14  C   UNL     1     -38.971 -18.941  14.792 -0.11 +0.00    +0.251 C  
DOCKED: BRANCH  14  15
DOCKED: ATOM     15  N   UNL     1     -37.607 -18.827  15.294 -0.12 +0.00    +0.141 N  
DOCKED: ATOM     16  C   UNL     1     -37.173 -17.429  15.298 -0.04 +0.00    +0.285 C  
DOCKED: ATOM     17  C   UNL     1     -37.504 -19.394  16.640 -0.08 +0.00    +0.285 C  
DOCKED: ENDBRANCH  14  15
DOCKED: ENDBRANCH  13  14
DOCKED: ENDBRANCH  12  13
DOCKED: ENDBRANCH   2  12
DOCKED: BRANCH   2  18
DOCKED: ATOM     18  C   UNL     1     -37.725 -17.478  11.508 -0.23 +0.00    +0.006 A  
DOCKED: ATOM     19  C   UNL     1     -36.353 -17.688  11.643 -0.15 +0.00    +0.001 A  
DOCKED: ATOM     20  C   UNL     1     -35.508 -16.612  11.917 -0.15 +0.00    +0.029 A  
DOCKED: ATOM     21  C   UNL     1     -36.035 -15.329  12.055 -0.07 +0.00    +0.140 A  
DOCKED: ATOM     22  C   UNL     1     -37.407 -15.120  11.919 -0.09 +0.00    +0.029 A  
DOCKED: ATOM     23  F   UNL     1     -35.223 -14.296  12.316 -0.00 -0.00    -0.204 F  
DOCKED: ATOM     24  C   UNL     1     -38.253 -16.196  11.646 -0.15 +0.00    +0.001 A  
DOCKED: ENDBRANCH   2  18
DOCKED: TORSDOF 5
DOCKED: TER
DOCKED: ENDMDL
________________________________________________________________________________


    FINAL DOCKED STATE:
    ________________________


Run:   141 / 512
Time taken for this run:   0.002s

DOCKED: MODEL        141
DOCKED: USER    Run = 141
DOCKED: USER
DOCKED: USER    Estimated Free Energy of Binding    =  -5.71 kcal/mol  [=(1)+(2)+(3)-(4)]
DOCKED: USER
DOCKED: USER    (1) Final Intermolecular Energy     =  -7.20 kcal/mol
DOCKED: USER        vdW + Hbond + desolv Energy     =  -7.20 kcal/mol
DOCKED: USER        Electrostatic Energy            =  +0.00 kcal/mol
DOCKED: USER        Moving Ligand-Fixed Receptor    =  -7.20 kcal/mol
DOCKED: USER        Moving Ligand-Moving Receptor   =  +0.00 kcal/mol
DOCKED: USER    (2) Final Total Internal Energy     =  -1.37 kcal/mol
DOCKED: USER    (3) Torsional Free Energy           =  +1.49 kcal/mol
DOCKED: USER    (4) Unbound System's Energy         =  -1.37 kcal/mol
DOCKED: USER
DOCKED: USER
DOCKED: REMARK  5 active torsions:
DOCKED: REMARK  status: ('A' for Active; 'I' for Inactive)
DOCKED: REMARK    1  A    between atoms: C_2  and  C_19 
DOCKED: REMARK    2  A    between atoms: C_2  and  C_11 
DOCKED: REMARK    3  A    between atoms: C_19  and  C_20 
DOCKED: REMARK    4  A    between atoms: C_20  and  C_21 
DOCKED: REMARK    5  A    between atoms: C_21  and  N_22 
DOCKED: USER                              x       y       z     vdW  Elec       q    Type
DOCKED: USER                           _______ _______ _______ _____ _____    ______ ____
DOCKED: ROOT
DOCKED: ATOM      1  O   UNL     1     -39.121 -16.284  11.199 -0.05 -0.00    -0.346 OA 
DOCKED: ATOM      2  C   UNL     1     -38.626 -17.661  11.216 -0.22 +0.00    +0.130 C  
DOCKED: ATOM      3  C   UNL     1     -39.118 -18.236   9.920 -0.34 +0.00    +0.004 A  
DOCKED: ATOM      4  C   UNL     1     -39.743 -17.245   9.176 -0.35 +0.00    +0.006 A  
DOCKED: ATOM      5  C   UNL     1     -39.698 -15.961   9.912 -0.23 +0.00    +0.169 C  
DOCKED: ATOM      6  C   UNL     1     -39.010 -19.530   9.432 -0.38 -0.00    -0.001 A  
DOCKED: ATOM      7  C   UNL     1     -40.283 -17.511   7.930 -0.20 +0.00    +0.008 A  
DOCKED: ATOM      8  C   UNL     1     -39.554 -19.816   8.178 -0.40 +0.00    +0.010 A  
DOCKED: ATOM      9  C   UNL     1     -40.186 -18.811   7.431 -0.44 +0.00    +0.068 A  
DOCKED: ATOM     10  N   UNL     1     -41.180 -19.374   5.105 -2.59 -0.00    -0.191 NA 
DOCKED: ATOM     11  C   UNL     1     -40.735 -19.122   6.149 -0.40 +0.00    +0.101 C  
DOCKED: ENDROOT
DOCKED: BRANCH   2  12
DOCKED: ATOM     12  C   UNL     1     -37.105 -17.626  11.311 -0.22 +0.00    +0.038 C  
DOCKED: BRANCH  12  13
DOCKED: ATOM     13  C   UNL     1     -36.626 -16.442  12.149 -0.16 +0.00    +0.038 C  
DOCKED: BRANCH  13  14
DOCKED: ATOM     14  C   UNL     1     -36.013 -15.356  11.267 -0.08 +0.00    +0.251 C  
DOCKED: BRANCH  14  15
DOCKED: ATOM     15  N   UNL     1     -37.047 -14.441  10.798 -0.11 +0.00    +0.141 N  
DOCKED: ATOM     16  C   UNL     1     -37.487 -13.560  11.881 -0.03 +0.00    +0.285 C  
DOCKED: ATOM     17  C   UNL     1     -36.560 -13.649   9.667 -0.11 +0.00    +0.285 C  
DOCKED: ENDBRANCH  14  15
DOCKED: ENDBRANCH  13  14
DOCKED: ENDBRANCH  12  13
DOCKED: ENDBRANCH   2  12
DOCKED: BRANCH   2  18
DOCKED: ATOM     18  C   UNL     1     -39.224 -18.325  12.411 -0.18 +0.00    +0.006 A  
DOCKED: ATOM     19  C   UNL     1     -38.439 -19.148  13.217 -0.10 +0.00    +0.001 A  
DOCKED: ATOM     20  C   UNL     1     -39.001 -19.768  14.334 -0.23 +0.00    +0.029 A  
DOCKED: ATOM     21  C   UNL     1     -40.345 -19.564  14.643 -0.08 +0.00    +0.140 A  
DOCKED: ATOM     22  C   UNL     1     -41.129 -18.741  13.837 -0.12 +0.00    +0.029 A  
DOCKED: ATOM     23  F   UNL     1     -40.883 -20.159  15.716 -0.03 -0.00    -0.204 F  
DOCKED: ATOM     24  C   UNL     1     -40.569 -18.120  12.719 -0.13 +0.00    +0.001 A  
DOCKED: ENDBRANCH   2  18
DOCKED: TORSDOF 5
DOCKED: TER
DOCKED: ENDMDL
________________________________________________________________________________


    FINAL DOCKED STATE:
    ________________________


Run:   142 / 512
Time taken for this run:   0.002s

DOCKED: MODEL        142
DOCKED: USER    Run = 142
DOCKED: USER
DOCKED: USER    Estimated Free Energy of Binding    =  -3.77 kcal/mol  [=(1)+(2)+(3)-(4)]
DOCKED: USER
DOCKED: USER    (1) Final Intermolecular Energy     =  -5.26 kcal/mol
DOCKED: USER        vdW + Hbond + desolv Energy     =  -5.26 kcal/mol
DOCKED: USER        Electrostatic Energy            =  +0.00 kcal/mol
DOCKED: USER        Moving Ligand-Fixed Receptor    =  -5.26 kcal/mol
DOCKED: USER        Moving Ligand-Moving Receptor   =  +0.00 kcal/mol
DOCKED: USER    (2) Final Total Internal Energy     =  -1.21 kcal/mol
DOCKED: USER    (3) Torsional Free Energy           =  +1.49 kcal/mol
DOCKED: USER    (4) Unbound System's Energy         =  -1.21 kcal/mol
DOCKED: USER
DOCKED: USER
DOCKED: REMARK  5 active torsions:
DOCKED: REMARK  status: ('A' for Active; 'I' for Inactive)
DOCKED: REMARK    1  A    between atoms: C_2  and  C_19 
DOCKED: REMARK    2  A    between atoms: C_2  and  C_11 
DOCKED: REMARK    3  A    between atoms: C_19  and  C_20 
DOCKED: REMARK    4  A    between atoms: C_20  and  C_21 
DOCKED: REMARK    5  A    between atoms: C_21  and  N_22 
DOCKED: USER                              x       y       z     vdW  Elec       q    Type
DOCKED: USER                           _______ _______ _______ _____ _____    ______ ____
DOCKED: ROOT
DOCKED: ATOM      1  O   UNL     1     -32.456  -5.377   1.629 -0.03 -0.00    -0.346 OA 
DOCKED: ATOM      2  C   UNL     1     -32.164  -5.734   0.240 -0.07 +0.00    +0.130 C  
DOCKED: ATOM      3  C   UNL     1     -33.494  -6.160  -0.310 -0.15 +0.00    +0.004 A  
DOCKED: ATOM      4  C   UNL     1     -34.480  -5.959   0.645 -0.21 +0.00    +0.006 A  
DOCKED: ATOM      5  C   UNL     1     -33.883  -5.383   1.871 -0.20 +0.00    +0.169 C  
DOCKED: ATOM      6  C   UNL     1     -33.808  -6.673  -1.560 -0.18 -0.00    -0.001 A  
DOCKED: ATOM      7  C   UNL     1     -35.806  -6.265   0.388 -0.32 +0.00    +0.008 A  
DOCKED: ATOM      8  C   UNL     1     -35.140  -6.992  -1.833 -0.29 +0.00    +0.010 A  
DOCKED: ATOM      9  C   UNL     1     -36.133  -6.788  -0.864 -0.36 +0.00    +0.068 A  
DOCKED: ATOM     10  N   UNL     1     -38.596  -7.385  -1.405 -2.49 -0.00    -0.191 NA 
DOCKED: ATOM     11  C   UNL     1     -37.491  -7.118  -1.162 -0.35 +0.00    +0.101 C  
DOCKED: ENDROOT
DOCKED: BRANCH   2  12
DOCKED: ATOM     12  C   UNL     1     -31.595  -4.508  -0.464 -0.11 +0.00    +0.038 C  
DOCKED: BRANCH  12  13
DOCKED: ATOM     13  C   UNL     1     -32.470  -3.278  -0.233 -0.16 +0.00    +0.038 C  
DOCKED: BRANCH  13  14
DOCKED: ATOM     14  C   UNL     1     -31.897  -2.396   0.875 -0.05 +0.00    +0.251 C  
DOCKED: BRANCH  14  15
DOCKED: ATOM     15  N   UNL     1     -32.971  -1.716   1.589 -0.08 +0.00    +0.141 N  
DOCKED: ATOM     16  C   UNL     1     -32.941  -0.278   1.317 -0.03 +0.00    +0.285 C  
DOCKED: ATOM     17  C   UNL     1     -34.272  -2.276   1.218 -0.11 +0.00    +0.285 C  
DOCKED: ENDBRANCH  14  15
DOCKED: ENDBRANCH  13  14
DOCKED: ENDBRANCH  12  13
DOCKED: ENDBRANCH   2  12
DOCKED: BRANCH   2  18
DOCKED: ATOM     18  C   UNL     1     -31.167  -6.845   0.276 -0.02 +0.00    +0.006 A  
DOCKED: ATOM     19  C   UNL     1     -30.059  -6.814  -0.570 -0.01 +0.00    +0.001 A  
DOCKED: ATOM     20  C   UNL     1     -29.129  -7.854  -0.536 -0.00 +0.00    +0.029 A  
DOCKED: ATOM     21  C   UNL     1     -29.306  -8.920   0.344 -0.00 +0.00    +0.140 A  
DOCKED: ATOM     22  C   UNL     1     -30.415  -8.950   1.190 -0.01 +0.00    +0.029 A  
DOCKED: ATOM     23  F   UNL     1     -28.412  -9.916   0.378 +0.00 -0.00    -0.204 F  
DOCKED: ATOM     24  C   UNL     1     -31.347  -7.911   1.156 -0.02 +0.00    +0.001 A  
DOCKED: ENDBRANCH   2  18
DOCKED: TORSDOF 5
DOCKED: TER
DOCKED: ENDMDL
________________________________________________________________________________


    FINAL DOCKED STATE:
    ________________________


Run:   143 / 512
Time taken for this run:   0.002s

DOCKED: MODEL        143
DOCKED: USER    Run = 143
DOCKED: USER
DOCKED: USER    Estimated Free Energy of Binding    =  -4.37 kcal/mol  [=(1)+(2)+(3)-(4)]
DOCKED: USER
DOCKED: USER    (1) Final Intermolecular Energy     =  -5.86 kcal/mol
DOCKED: USER        vdW + Hbond + desolv Energy     =  -5.86 kcal/mol
DOCKED: USER        Electrostatic Energy            =  +0.00 kcal/mol
DOCKED: USER        Moving Ligand-Fixed Receptor    =  -5.86 kcal/mol
DOCKED: USER        Moving Ligand-Moving Receptor   =  +0.00 kcal/mol
DOCKED: USER    (2) Final Total Internal Energy     =  -1.13 kcal/mol
DOCKED: USER    (3) Torsional Free Energy           =  +1.49 kcal/mol
DOCKED: USER    (4) Unbound System's Energy         =  -1.13 kcal/mol
DOCKED: USER
DOCKED: USER
DOCKED: REMARK  5 active torsions:
DOCKED: REMARK  status: ('A' for Active; 'I' for Inactive)
DOCKED: REMARK    1  A    between atoms: C_2  and  C_19 
DOCKED: REMARK    2  A    between atoms: C_2  and  C_11 
DOCKED: REMARK    3  A    between atoms: C_19  and  C_20 
DOCKED: REMARK    4  A    between atoms: C_20  and  C_21 
DOCKED: REMARK    5  A    between atoms: C_21  and  N_22 
DOCKED: USER                              x       y       z     vdW  Elec       q    Type
DOCKED: USER                           _______ _______ _______ _____ _____    ______ ____
DOCKED: ROOT
DOCKED: ATOM      1  O   UNL     1     -38.311 -13.847  10.426 -0.06 -0.00    -0.346 OA 
DOCKED: ATOM      2  C   UNL     1     -39.703 -13.866  10.878 -0.14 +0.00    +0.130 C  
DOCKED: ATOM      3  C   UNL     1     -40.197 -15.223  10.466 -0.21 +0.00    +0.004 A  
DOCKED: ATOM      4  C   UNL     1     -39.150 -15.956   9.926 -0.28 +0.00    +0.006 A  
DOCKED: ATOM      5  C   UNL     1     -37.907 -15.153   9.954 -0.15 +0.00    +0.169 C  
DOCKED: ATOM      6  C   UNL     1     -41.468 -15.768  10.571 -0.21 -0.00    -0.001 A  
DOCKED: ATOM      7  C   UNL     1     -39.336 -17.250   9.471 -0.34 +0.00    +0.008 A  
DOCKED: ATOM      8  C   UNL     1     -41.673 -17.071  10.113 -0.22 +0.00    +0.010 A  
DOCKED: ATOM      9  C   UNL     1     -40.612 -17.808   9.566 -0.26 +0.00    +0.068 A  
DOCKED: ATOM     10  N   UNL     1     -41.025 -20.225   8.728 -2.56 -0.00    -0.191 NA 
DOCKED: ATOM     11  C   UNL     1     -40.840 -19.140   9.103 -0.36 +0.00    +0.101 C  
DOCKED: ENDROOT
DOCKED: BRANCH   2  12
DOCKED: ATOM     12  C   UNL     1     -39.723 -13.661  12.389 -0.04 +0.00    +0.038 C  
DOCKED: BRANCH  12  13
DOCKED: ATOM     13  C   UNL     1     -41.142 -13.418  12.899 -0.03 +0.00    +0.038 C  
DOCKED: BRANCH  13  14
DOCKED: ATOM     14  C   UNL     1     -41.261 -12.043  13.555 -0.00 +0.00    +0.251 C  
DOCKED: BRANCH  14  15
DOCKED: ATOM     15  N   UNL     1     -40.428 -11.073  12.855 -0.01 +0.00    +0.141 N  
DOCKED: ATOM     16  C   UNL     1     -41.219  -9.911  12.449 -0.00 +0.00    +0.285 C  
DOCKED: ATOM     17  C   UNL     1     -39.306 -10.654  13.698 +0.00 +0.00    +0.285 C  
DOCKED: ENDBRANCH  14  15
DOCKED: ENDBRANCH  13  14
DOCKED: ENDBRANCH  12  13
DOCKED: ENDBRANCH   2  12
DOCKED: BRANCH   2  18
DOCKED: ATOM     18  C   UNL     1     -40.406 -12.753  10.175 -0.18 +0.00    +0.006 A  
DOCKED: ATOM     19  C   UNL     1     -41.799 -12.730  10.126 -0.21 +0.00    +0.001 A  
DOCKED: ATOM     20  C   UNL     1     -42.454 -11.689   9.467 -0.17 +0.00    +0.029 A  
DOCKED: ATOM     21  C   UNL     1     -41.717 -10.673   8.860 -0.12 +0.00    +0.140 A  
DOCKED: ATOM     22  C   UNL     1     -40.323 -10.697   8.910 -0.15 +0.00    +0.029 A  
DOCKED: ATOM     23  F   UNL     1     -42.347  -9.673   8.230 -0.02 -0.00    -0.204 F  
DOCKED: ATOM     24  C   UNL     1     -39.667 -11.738   9.568 -0.15 +0.00    +0.001 A  
DOCKED: ENDBRANCH   2  18
DOCKED: TORSDOF 5
DOCKED: TER
DOCKED: ENDMDL
________________________________________________________________________________


    FINAL DOCKED STATE:
    ________________________


Run:   144 / 512
Time taken for this run:   0.002s

DOCKED: MODEL        144
DOCKED: USER    Run = 144
DOCKED: USER
DOCKED: USER    Estimated Free Energy of Binding    =  -5.62 kcal/mol  [=(1)+(2)+(3)-(4)]
DOCKED: USER
DOCKED: USER    (1) Final Intermolecular Energy     =  -7.11 kcal/mol
DOCKED: USER        vdW + Hbond + desolv Energy     =  -7.11 kcal/mol
DOCKED: USER        Electrostatic Energy            =  +0.00 kcal/mol
DOCKED: USER        Moving Ligand-Fixed Receptor    =  -7.11 kcal/mol
DOCKED: USER        Moving Ligand-Moving Receptor   =  +0.00 kcal/mol
DOCKED: USER    (2) Final Total Internal Energy     =  -1.28 kcal/mol
DOCKED: USER    (3) Torsional Free Energy           =  +1.49 kcal/mol
DOCKED: USER    (4) Unbound System's Energy         =  -1.28 kcal/mol
DOCKED: USER
DOCKED: USER
DOCKED: REMARK  5 active torsions:
DOCKED: REMARK  status: ('A' for Active; 'I' for Inactive)
DOCKED: REMARK    1  A    between atoms: C_2  and  C_19 
DOCKED: REMARK    2  A    between atoms: C_2  and  C_11 
DOCKED: REMARK    3  A    between atoms: C_19  and  C_20 
DOCKED: REMARK    4  A    between atoms: C_20  and  C_21 
DOCKED: REMARK    5  A    between atoms: C_21  and  N_22 
DOCKED: USER                              x       y       z     vdW  Elec       q    Type
DOCKED: USER                           _______ _______ _______ _____ _____    ______ ____
DOCKED: ROOT
DOCKED: ATOM      1  O   UNL     1     -38.336 -18.871  11.193 -0.16 -0.00    -0.346 OA 
DOCKED: ATOM      2  C   UNL     1     -39.732 -18.454  11.331 -0.20 +0.00    +0.130 C  
DOCKED: ATOM      3  C   UNL     1     -40.258 -18.490   9.925 -0.30 +0.00    +0.004 A  
DOCKED: ATOM      4  C   UNL     1     -39.283 -18.989   9.074 -0.42 +0.00    +0.006 A  
DOCKED: ATOM      5  C   UNL     1     -38.066 -19.326   9.846 -0.16 +0.00    +0.169 C  
DOCKED: ATOM      6  C   UNL     1     -41.504 -18.121   9.441 -0.29 -0.00    -0.001 A  
DOCKED: ATOM      7  C   UNL     1     -39.515 -19.132   7.717 -0.25 +0.00    +0.008 A  
DOCKED: ATOM      8  C   UNL     1     -41.753 -18.255   8.074 -0.29 +0.00    +0.010 A  
DOCKED: ATOM      9  C   UNL     1     -40.763 -18.759   7.216 -0.43 +0.00    +0.068 A  
DOCKED: ATOM     10  N   UNL     1     -41.259 -18.999   4.685 -3.18 -0.00    -0.191 NA 
DOCKED: ATOM     11  C   UNL     1     -41.037 -18.891   5.820 -0.27 +0.00    +0.101 C  
DOCKED: ENDROOT
DOCKED: BRANCH   2  12
DOCKED: ATOM     12  C   UNL     1     -40.440 -19.438  12.255 -0.27 +0.00    +0.038 C  
DOCKED: BRANCH  12  13
DOCKED: ATOM     13  C   UNL     1     -39.552 -19.833  13.434 -0.17 +0.00    +0.038 C  
DOCKED: BRANCH  13  14
DOCKED: ATOM     14  C   UNL     1     -39.791 -18.916  14.632 -0.10 +0.00    +0.251 C  
DOCKED: BRANCH  14  15
DOCKED: ATOM     15  N   UNL     1     -38.747 -19.107  15.632 -0.11 +0.00    +0.141 N  
DOCKED: ATOM     16  C   UNL     1     -37.425 -18.867  15.050 -0.09 +0.00    +0.285 C  
DOCKED: ATOM     17  C   UNL     1     -38.964 -18.223  16.779 -0.02 +0.00    +0.285 C  
DOCKED: ENDBRANCH  14  15
DOCKED: ENDBRANCH  13  14
DOCKED: ENDBRANCH  12  13
DOCKED: ENDBRANCH   2  12
DOCKED: BRANCH   2  18
DOCKED: ATOM     18  C   UNL     1     -39.721 -17.081  11.913 -0.12 +0.00    +0.006 A  
DOCKED: ATOM     19  C   UNL     1     -38.510 -16.464  12.223 -0.11 +0.00    +0.001 A  
DOCKED: ATOM     20  C   UNL     1     -38.502 -15.180  12.768 -0.04 +0.00    +0.029 A  
DOCKED: ATOM     21  C   UNL     1     -39.704 -14.514  13.001 -0.02 +0.00    +0.140 A  
DOCKED: ATOM     22  C   UNL     1     -40.915 -15.131  12.691 -0.04 +0.00    +0.029 A  
DOCKED: ATOM     23  F   UNL     1     -39.696 -13.280  13.523 +0.00 -0.00    -0.204 F  
DOCKED: ATOM     24  C   UNL     1     -40.925 -16.416  12.146 -0.08 +0.00    +0.001 A  
DOCKED: ENDBRANCH   2  18
DOCKED: TORSDOF 5
DOCKED: TER
DOCKED: ENDMDL
________________________________________________________________________________


    FINAL DOCKED STATE:
    ________________________


Run:   145 / 512
Time taken for this run:   0.002s

DOCKED: MODEL        145
DOCKED: USER    Run = 145
DOCKED: USER
DOCKED: USER    Estimated Free Energy of Binding    =  -3.76 kcal/mol  [=(1)+(2)+(3)-(4)]
DOCKED: USER
DOCKED: USER    (1) Final Intermolecular Energy     =  -5.25 kcal/mol
DOCKED: USER        vdW + Hbond + desolv Energy     =  -5.25 kcal/mol
DOCKED: USER        Electrostatic Energy            =  +0.00 kcal/mol
DOCKED: USER        Moving Ligand-Fixed Receptor    =  -5.25 kcal/mol
DOCKED: USER        Moving Ligand-Moving Receptor   =  +0.00 kcal/mol
DOCKED: USER    (2) Final Total Internal Energy     =  -1.27 kcal/mol
DOCKED: USER    (3) Torsional Free Energy           =  +1.49 kcal/mol
DOCKED: USER    (4) Unbound System's Energy         =  -1.27 kcal/mol
DOCKED: USER
DOCKED: USER
DOCKED: REMARK  5 active torsions:
DOCKED: REMARK  status: ('A' for Active; 'I' for Inactive)
DOCKED: REMARK    1  A    between atoms: C_2  and  C_19 
DOCKED: REMARK    2  A    between atoms: C_2  and  C_11 
DOCKED: REMARK    3  A    between atoms: C_19  and  C_20 
DOCKED: REMARK    4  A    between atoms: C_20  and  C_21 
DOCKED: REMARK    5  A    between atoms: C_21  and  N_22 
DOCKED: USER                              x       y       z     vdW  Elec       q    Type
DOCKED: USER                           _______ _______ _______ _____ _____    ______ ____
DOCKED: ROOT
DOCKED: ATOM      1  O   UNL     1     -32.451  -5.443  -1.912 -0.09 -0.00    -0.346 OA 
DOCKED: ATOM      2  C   UNL     1     -32.669  -5.614  -0.475 -0.11 +0.00    +0.130 C  
DOCKED: ATOM      3  C   UNL     1     -34.094  -6.079  -0.380 -0.05 +0.00    +0.004 A  
DOCKED: ATOM      4  C   UNL     1     -34.610  -6.264  -1.655 -0.24 +0.00    +0.006 A  
DOCKED: ATOM      5  C   UNL     1     -33.575  -5.952  -2.666 -0.11 +0.00    +0.169 C  
DOCKED: ATOM      6  C   UNL     1     -34.868  -6.329   0.744 -0.27 -0.00    -0.001 A  
DOCKED: ATOM      7  C   UNL     1     -35.910  -6.698  -1.850 -0.37 +0.00    +0.008 A  
DOCKED: ATOM      8  C   UNL     1     -36.182  -6.763   0.563 -0.25 +0.00    +0.010 A  
DOCKED: ATOM      9  C   UNL     1     -36.700  -6.947  -0.727 -0.40 +0.00    +0.068 A  
DOCKED: ATOM     10  N   UNL     1     -39.142  -7.759  -1.026 -2.48 -0.00    -0.191 NA 
DOCKED: ATOM     11  C   UNL     1     -38.047  -7.394  -0.892 -0.18 +0.00    +0.101 C  
DOCKED: ENDROOT
DOCKED: BRANCH   2  12
DOCKED: ATOM     12  C   UNL     1     -31.674  -6.644   0.046 -0.05 +0.00    +0.038 C  
DOCKED: BRANCH  12  13
DOCKED: ATOM     13  C   UNL     1     -32.156  -8.069  -0.220 -0.04 +0.00    +0.038 C  
DOCKED: BRANCH  13  14
DOCKED: ATOM     14  C   UNL     1     -31.805  -8.511  -1.640 -0.00 +0.00    +0.251 C  
DOCKED: BRANCH  14  15
DOCKED: ATOM     15  N   UNL     1     -30.442  -8.116  -1.972 -0.00 +0.00    +0.141 N  
DOCKED: ATOM     16  C   UNL     1     -29.522  -9.242  -1.804 +0.00 +0.00    +0.285 C  
DOCKED: ATOM     17  C   UNL     1     -30.373  -7.604  -3.342 +0.01 +0.00    +0.285 C  
DOCKED: ENDBRANCH  14  15
DOCKED: ENDBRANCH  13  14
DOCKED: ENDBRANCH  12  13
DOCKED: ENDBRANCH   2  12
DOCKED: BRANCH   2  18
DOCKED: ATOM     18  C   UNL     1     -32.449  -4.282   0.162 -0.14 +0.00    +0.006 A  
DOCKED: ATOM     19  C   UNL     1     -32.750  -4.096   1.510 -0.14 +0.00    +0.001 A  
DOCKED: ATOM     20  C   UNL     1     -32.543  -2.850   2.104 -0.09 +0.00    +0.029 A  
DOCKED: ATOM     21  C   UNL     1     -32.036  -1.794   1.349 -0.04 +0.00    +0.140 A  
DOCKED: ATOM     22  C   UNL     1     -31.735  -1.981   0.001 -0.10 +0.00    +0.029 A  
DOCKED: ATOM     23  F   UNL     1     -31.836  -0.599   1.920 +0.01 -0.00    -0.204 F  
DOCKED: ATOM     24  C   UNL     1     -31.942  -3.226  -0.595 -0.09 +0.00    +0.001 A  
DOCKED: ENDBRANCH   2  18
DOCKED: TORSDOF 5
DOCKED: TER
DOCKED: ENDMDL
________________________________________________________________________________


    FINAL DOCKED STATE:
    ________________________


Run:   146 / 512
Time taken for this run:   0.002s

DOCKED: MODEL        146
DOCKED: USER    Run = 146
DOCKED: USER
DOCKED: USER    Estimated Free Energy of Binding    =  -5.57 kcal/mol  [=(1)+(2)+(3)-(4)]
DOCKED: USER
DOCKED: USER    (1) Final Intermolecular Energy     =  -7.06 kcal/mol
DOCKED: USER        vdW + Hbond + desolv Energy     =  -7.06 kcal/mol
DOCKED: USER        Electrostatic Energy            =  +0.00 kcal/mol
DOCKED: USER        Moving Ligand-Fixed Receptor    =  -7.06 kcal/mol
DOCKED: USER        Moving Ligand-Moving Receptor   =  +0.00 kcal/mol
DOCKED: USER    (2) Final Total Internal Energy     =  -1.27 kcal/mol
DOCKED: USER    (3) Torsional Free Energy           =  +1.49 kcal/mol
DOCKED: USER    (4) Unbound System's Energy         =  -1.27 kcal/mol
DOCKED: USER
DOCKED: USER
DOCKED: REMARK  5 active torsions:
DOCKED: REMARK  status: ('A' for Active; 'I' for Inactive)
DOCKED: REMARK    1  A    between atoms: C_2  and  C_19 
DOCKED: REMARK    2  A    between atoms: C_2  and  C_11 
DOCKED: REMARK    3  A    between atoms: C_19  and  C_20 
DOCKED: REMARK    4  A    between atoms: C_20  and  C_21 
DOCKED: REMARK    5  A    between atoms: C_21  and  N_22 
DOCKED: USER                              x       y       z     vdW  Elec       q    Type
DOCKED: USER                           _______ _______ _______ _____ _____    ______ ____
DOCKED: ROOT
DOCKED: ATOM      1  O   UNL     1     -39.215 -16.291  11.306 -0.04 -0.00    -0.346 OA 
DOCKED: ATOM      2  C   UNL     1     -38.676 -17.651  11.273 -0.22 +0.00    +0.130 C  
DOCKED: ATOM      3  C   UNL     1     -39.129 -18.185   9.945 -0.34 +0.00    +0.004 A  
DOCKED: ATOM      4  C   UNL     1     -39.775 -17.184   9.234 -0.34 +0.00    +0.006 A  
DOCKED: ATOM      5  C   UNL     1     -39.783 -15.932  10.025 -0.23 +0.00    +0.169 C  
DOCKED: ATOM      6  C   UNL     1     -38.972 -19.453   9.405 -0.40 -0.00    -0.001 A  
DOCKED: ATOM      7  C   UNL     1     -40.287 -17.414   7.969 -0.05 +0.00    +0.008 A  
DOCKED: ATOM      8  C   UNL     1     -39.487 -19.702   8.131 -0.40 +0.00    +0.010 A  
DOCKED: ATOM      9  C   UNL     1     -40.141 -18.687   7.417 -0.43 +0.00    +0.068 A  
DOCKED: ATOM     10  N   UNL     1     -41.081 -19.181   5.054 -2.74 -0.00    -0.191 NA 
DOCKED: ATOM     11  C   UNL     1     -40.660 -18.960   6.114 -0.44 +0.00    +0.101 C  
DOCKED: ENDROOT
DOCKED: BRANCH   2  12
DOCKED: ATOM     12  C   UNL     1     -37.159 -17.572  11.394 -0.25 +0.00    +0.038 C  
DOCKED: BRANCH  12  13
DOCKED: ATOM     13  C   UNL     1     -36.693 -16.136  11.629 -0.17 +0.00    +0.038 C  
DOCKED: BRANCH  13  14
DOCKED: ATOM     14  C   UNL     1     -35.651 -16.072  12.744 -0.07 +0.00    +0.251 C  
DOCKED: BRANCH  14  15
DOCKED: ATOM     15  N   UNL     1     -36.240 -15.520  13.958 -0.02 +0.00    +0.141 N  
DOCKED: ATOM     16  C   UNL     1     -35.635 -14.228  14.284 -0.00 +0.00    +0.285 C  
DOCKED: ATOM     17  C   UNL     1     -37.690 -15.379  13.810 -0.01 +0.00    +0.285 C  
DOCKED: ENDBRANCH  14  15
DOCKED: ENDBRANCH  13  14
DOCKED: ENDBRANCH  12  13
DOCKED: ENDBRANCH   2  12
DOCKED: BRANCH   2  18
DOCKED: ATOM     18  C   UNL     1     -39.271 -18.384  12.429 -0.18 +0.00    +0.006 A  
DOCKED: ATOM     19  C   UNL     1     -40.656 -18.445  12.576 -0.15 +0.00    +0.001 A  
DOCKED: ATOM     20  C   UNL     1     -41.211 -19.131  13.658 -0.14 +0.00    +0.029 A  
DOCKED: ATOM     21  C   UNL     1     -40.381 -19.754  14.588 -0.03 +0.00    +0.140 A  
DOCKED: ATOM     22  C   UNL     1     -38.996 -19.693  14.440 -0.23 +0.00    +0.029 A  
DOCKED: ATOM     23  F   UNL     1     -40.914 -20.414  15.625 -0.03 -0.00    -0.204 F  
DOCKED: ATOM     24  C   UNL     1     -38.439 -19.007  13.359 -0.16 +0.00    +0.001 A  
DOCKED: ENDBRANCH   2  18
DOCKED: TORSDOF 5
DOCKED: TER
DOCKED: ENDMDL
________________________________________________________________________________


    FINAL DOCKED STATE:
    ________________________


Run:   147 / 512
Time taken for this run:   0.002s

DOCKED: MODEL        147
DOCKED: USER    Run = 147
DOCKED: USER
DOCKED: USER    Estimated Free Energy of Binding    =  -4.40 kcal/mol  [=(1)+(2)+(3)-(4)]
DOCKED: USER
DOCKED: USER    (1) Final Intermolecular Energy     =  -5.89 kcal/mol
DOCKED: USER        vdW + Hbond + desolv Energy     =  -5.89 kcal/mol
DOCKED: USER        Electrostatic Energy            =  +0.00 kcal/mol
DOCKED: USER        Moving Ligand-Fixed Receptor    =  -5.89 kcal/mol
DOCKED: USER        Moving Ligand-Moving Receptor   =  +0.00 kcal/mol
DOCKED: USER    (2) Final Total Internal Energy     =  -1.34 kcal/mol
DOCKED: USER    (3) Torsional Free Energy           =  +1.49 kcal/mol
DOCKED: USER    (4) Unbound System's Energy         =  -1.34 kcal/mol
DOCKED: USER
DOCKED: USER
DOCKED: REMARK  5 active torsions:
DOCKED: REMARK  status: ('A' for Active; 'I' for Inactive)
DOCKED: REMARK    1  A    between atoms: C_2  and  C_19 
DOCKED: REMARK    2  A    between atoms: C_2  and  C_11 
DOCKED: REMARK    3  A    between atoms: C_19  and  C_20 
DOCKED: REMARK    4  A    between atoms: C_20  and  C_21 
DOCKED: REMARK    5  A    between atoms: C_21  and  N_22 
DOCKED: USER                              x       y       z     vdW  Elec       q    Type
DOCKED: USER                           _______ _______ _______ _____ _____    ______ ____
DOCKED: ROOT
DOCKED: ATOM      1  O   UNL     1     -39.248 -16.288  12.164 -0.01 -0.00    -0.346 OA 
DOCKED: ATOM      2  C   UNL     1     -38.279 -17.365  11.958 -0.16 +0.00    +0.130 C  
DOCKED: ATOM      3  C   UNL     1     -38.737 -18.023  10.689 -0.30 +0.00    +0.004 A  
DOCKED: ATOM      4  C   UNL     1     -39.805 -17.317  10.155 -0.28 +0.00    +0.006 A  
DOCKED: ATOM      5  C   UNL     1     -40.117 -16.153  11.015 -0.14 +0.00    +0.169 C  
DOCKED: ATOM      6  C   UNL     1     -38.239 -19.150  10.050 -0.35 -0.00    -0.001 A  
DOCKED: ATOM      7  C   UNL     1     -40.413 -17.711   8.976 -0.34 +0.00    +0.008 A  
DOCKED: ATOM      8  C   UNL     1     -38.844 -19.563   8.862 -0.24 +0.00    +0.010 A  
DOCKED: ATOM      9  C   UNL     1     -39.925 -18.847   8.328 -0.41 +0.00    +0.068 A  
DOCKED: ATOM     10  N   UNL     1     -41.022 -19.638   6.118 -1.60 -0.00    -0.191 NA 
DOCKED: ATOM     11  C   UNL     1     -40.531 -19.284   7.109 -0.53 +0.00    +0.101 C  
DOCKED: ENDROOT
DOCKED: BRANCH   2  12
DOCKED: ATOM     12  C   UNL     1     -36.890 -16.749  11.841 -0.20 +0.00    +0.038 C  
DOCKED: BRANCH  12  13
DOCKED: ATOM     13  C   UNL     1     -36.910 -15.492  10.973 -0.15 +0.00    +0.038 C  
DOCKED: BRANCH  13  14
DOCKED: ATOM     14  C   UNL     1     -36.856 -14.231  11.833 -0.05 +0.00    +0.251 C  
DOCKED: BRANCH  14  15
DOCKED: ATOM     15  N   UNL     1     -37.665 -13.175  11.236 -0.05 +0.00    +0.141 N  
DOCKED: ATOM     16  C   UNL     1     -37.987 -13.496   9.844 -0.12 +0.00    +0.285 C  
DOCKED: ATOM     17  C   UNL     1     -38.892 -12.968  12.006 -0.02 +0.00    +0.285 C  
DOCKED: ENDBRANCH  14  15
DOCKED: ENDBRANCH  13  14
DOCKED: ENDBRANCH  12  13
DOCKED: ENDBRANCH   2  12
DOCKED: BRANCH   2  18
DOCKED: ATOM     18  C   UNL     1     -38.370 -18.266  13.145 -0.16 +0.00    +0.006 A  
DOCKED: ATOM     19  C   UNL     1     -39.452 -19.135  13.279 -0.22 +0.00    +0.001 A  
DOCKED: ATOM     20  C   UNL     1     -39.536 -19.976  14.389 -0.05 +0.00    +0.029 A  
DOCKED: ATOM     21  C   UNL     1     -38.539 -19.947  15.363 -0.19 +0.00    +0.140 A  
DOCKED: ATOM     22  C   UNL     1     -37.456 -19.078  15.228 -0.16 +0.00    +0.029 A  
DOCKED: ATOM     23  F   UNL     1     -38.619 -20.756  16.427 -0.07 -0.00    -0.204 F  
DOCKED: ATOM     24  C   UNL     1     -37.372 -18.236  14.118 -0.11 +0.00    +0.001 A  
DOCKED: ENDBRANCH   2  18
DOCKED: TORSDOF 5
DOCKED: TER
DOCKED: ENDMDL
________________________________________________________________________________


    FINAL DOCKED STATE:
    ________________________


Run:   148 / 512
Time taken for this run:   0.002s

DOCKED: MODEL        148
DOCKED: USER    Run = 148
DOCKED: USER
DOCKED: USER    Estimated Free Energy of Binding    =  -3.82 kcal/mol  [=(1)+(2)+(3)-(4)]
DOCKED: USER
DOCKED: USER    (1) Final Intermolecular Energy     =  -5.31 kcal/mol
DOCKED: USER        vdW + Hbond + desolv Energy     =  -5.31 kcal/mol
DOCKED: USER        Electrostatic Energy            =  +0.00 kcal/mol
DOCKED: USER        Moving Ligand-Fixed Receptor    =  -5.31 kcal/mol
DOCKED: USER        Moving Ligand-Moving Receptor   =  +0.00 kcal/mol
DOCKED: USER    (2) Final Total Internal Energy     =  -1.44 kcal/mol
DOCKED: USER    (3) Torsional Free Energy           =  +1.49 kcal/mol
DOCKED: USER    (4) Unbound System's Energy         =  -1.44 kcal/mol
DOCKED: USER
DOCKED: USER
DOCKED: REMARK  5 active torsions:
DOCKED: REMARK  status: ('A' for Active; 'I' for Inactive)
DOCKED: REMARK    1  A    between atoms: C_2  and  C_19 
DOCKED: REMARK    2  A    between atoms: C_2  and  C_11 
DOCKED: REMARK    3  A    between atoms: C_19  and  C_20 
DOCKED: REMARK    4  A    between atoms: C_20  and  C_21 
DOCKED: REMARK    5  A    between atoms: C_21  and  N_22 
DOCKED: USER                              x       y       z     vdW  Elec       q    Type
DOCKED: USER                           _______ _______ _______ _____ _____    ______ ____
DOCKED: ROOT
DOCKED: ATOM      1  O   UNL     1     -31.486  -6.320  -0.276 +0.00 -0.00    -0.346 OA 
DOCKED: ATOM      2  C   UNL     1     -32.205  -6.806   0.902 -0.05 +0.00    +0.130 C  
DOCKED: ATOM      3  C   UNL     1     -33.631  -6.900   0.440 -0.14 +0.00    +0.004 A  
DOCKED: ATOM      4  C   UNL     1     -33.703  -6.602  -0.914 -0.16 +0.00    +0.006 A  
DOCKED: ATOM      5  C   UNL     1     -32.350  -6.307  -1.436 -0.07 +0.00    +0.169 C  
DOCKED: ATOM      6  C   UNL     1     -34.770  -7.234   1.157 -0.20 -0.00    -0.001 A  
DOCKED: ATOM      7  C   UNL     1     -34.909  -6.623  -1.593 -0.28 +0.00    +0.008 A  
DOCKED: ATOM      8  C   UNL     1     -35.995  -7.256   0.487 -0.32 +0.00    +0.010 A  
DOCKED: ATOM      9  C   UNL     1     -36.064  -6.952  -0.880 -0.36 +0.00    +0.068 A  
DOCKED: ATOM     10  N   UNL     1     -38.353  -7.006  -2.094 -2.57 -0.00    -0.191 NA 
DOCKED: ATOM     11  C   UNL     1     -37.326  -6.981  -1.549 -0.38 +0.00    +0.101 C  
DOCKED: ENDROOT
DOCKED: BRANCH   2  12
DOCKED: ATOM     12  C   UNL     1     -31.621  -8.155   1.303 -0.03 +0.00    +0.038 C  
DOCKED: BRANCH  12  13
DOCKED: ATOM     13  C   UNL     1     -32.304  -9.301   0.559 -0.03 +0.00    +0.038 C  
DOCKED: BRANCH  13  14
DOCKED: ATOM     14  C   UNL     1     -31.537  -9.667  -0.710 -0.00 +0.00    +0.251 C  
DOCKED: BRANCH  14  15
DOCKED: ATOM     15  N   UNL     1     -32.457 -10.120  -1.746 -0.03 +0.00    +0.141 N  
DOCKED: ATOM     16  C   UNL     1     -33.835 -10.107  -1.254 -0.09 +0.00    +0.285 C  
DOCKED: ATOM     17  C   UNL     1     -32.338  -9.285  -2.942 -0.01 +0.00    +0.285 C  
DOCKED: ENDBRANCH  14  15
DOCKED: ENDBRANCH  13  14
DOCKED: ENDBRANCH  12  13
DOCKED: ENDBRANCH   2  12
DOCKED: BRANCH   2  18
DOCKED: ATOM     18  C   UNL     1     -32.010  -5.793   1.980 -0.09 +0.00    +0.006 A  
DOCKED: ATOM     19  C   UNL     1     -32.895  -4.722   2.100 -0.17 +0.00    +0.001 A  
DOCKED: ATOM     20  C   UNL     1     -32.711  -3.776   3.108 -0.14 +0.00    +0.029 A  
DOCKED: ATOM     21  C   UNL     1     -31.643  -3.901   3.995 -0.07 +0.00    +0.140 A  
DOCKED: ATOM     22  C   UNL     1     -30.758  -4.972   3.876 -0.06 +0.00    +0.029 A  
DOCKED: ATOM     23  F   UNL     1     -31.468  -2.993   4.965 -0.02 -0.00    -0.204 F  
DOCKED: ATOM     24  C   UNL     1     -30.941  -5.919   2.867 -0.05 +0.00    +0.001 A  
DOCKED: ENDBRANCH   2  18
DOCKED: TORSDOF 5
DOCKED: TER
DOCKED: ENDMDL
________________________________________________________________________________


    FINAL DOCKED STATE:
    ________________________


Run:   149 / 512
Time taken for this run:   0.002s

DOCKED: MODEL        149
DOCKED: USER    Run = 149
DOCKED: USER
DOCKED: USER    Estimated Free Energy of Binding    =  -3.60 kcal/mol  [=(1)+(2)+(3)-(4)]
DOCKED: USER
DOCKED: USER    (1) Final Intermolecular Energy     =  -5.10 kcal/mol
DOCKED: USER        vdW + Hbond + desolv Energy     =  -5.10 kcal/mol
DOCKED: USER        Electrostatic Energy            =  +0.00 kcal/mol
DOCKED: USER        Moving Ligand-Fixed Receptor    =  -5.10 kcal/mol
DOCKED: USER        Moving Ligand-Moving Receptor   =  +0.00 kcal/mol
DOCKED: USER    (2) Final Total Internal Energy     =  -1.23 kcal/mol
DOCKED: USER    (3) Torsional Free Energy           =  +1.49 kcal/mol
DOCKED: USER    (4) Unbound System's Energy         =  -1.23 kcal/mol
DOCKED: USER
DOCKED: USER
DOCKED: REMARK  5 active torsions:
DOCKED: REMARK  status: ('A' for Active; 'I' for Inactive)
DOCKED: REMARK    1  A    between atoms: C_2  and  C_19 
DOCKED: REMARK    2  A    between atoms: C_2  and  C_11 
DOCKED: REMARK    3  A    between atoms: C_19  and  C_20 
DOCKED: REMARK    4  A    between atoms: C_20  and  C_21 
DOCKED: REMARK    5  A    between atoms: C_21  and  N_22 
DOCKED: USER                              x       y       z     vdW  Elec       q    Type
DOCKED: USER                           _______ _______ _______ _____ _____    ______ ____
DOCKED: ROOT
DOCKED: ATOM      1  O   UNL     1     -37.790 -17.910  14.164 -0.04 -0.00    -0.346 OA 
DOCKED: ATOM      2  C   UNL     1     -37.616 -16.908  13.112 -0.09 +0.00    +0.130 C  
DOCKED: ATOM      3  C   UNL     1     -38.308 -17.511  11.923 -0.19 +0.00    +0.004 A  
DOCKED: ATOM      4  C   UNL     1     -38.918 -18.701  12.293 -0.22 +0.00    +0.006 A  
DOCKED: ATOM      5  C   UNL     1     -38.688 -18.958  13.732 -0.16 +0.00    +0.169 C  
DOCKED: ATOM      6  C   UNL     1     -38.399 -17.038  10.622 -0.26 -0.00    -0.001 A  
DOCKED: ATOM      7  C   UNL     1     -39.633 -19.458  11.380 -0.26 +0.00    +0.008 A  
DOCKED: ATOM      8  C   UNL     1     -39.112 -17.792   9.689 -0.33 +0.00    +0.010 A  
DOCKED: ATOM      9  C   UNL     1     -39.727 -18.996  10.066 -0.29 +0.00    +0.068 A  
DOCKED: ATOM     10  N   UNL     1     -41.048 -20.368   8.310 -2.20 -0.00    -0.191 NA 
DOCKED: ATOM     11  C   UNL     1     -40.455 -19.753   9.098 -0.20 +0.00    +0.101 C  
DOCKED: ENDROOT
DOCKED: BRANCH   2  12
DOCKED: ATOM     12  C   UNL     1     -38.259 -15.606  13.574 -0.04 +0.00    +0.038 C  
DOCKED: BRANCH  12  13
DOCKED: ATOM     13  C   UNL     1     -37.933 -14.455  12.624 -0.05 +0.00    +0.038 C  
DOCKED: BRANCH  13  14
DOCKED: ATOM     14  C   UNL     1     -39.136 -14.107  11.749 -0.05 +0.00    +0.251 C  
DOCKED: BRANCH  14  15
DOCKED: ATOM     15  N   UNL     1     -40.361 -14.632  12.341 -0.03 +0.00    +0.141 N  
DOCKED: ATOM     16  C   UNL     1     -41.146 -13.554  12.944 -0.01 +0.00    +0.285 C  
DOCKED: ATOM     17  C   UNL     1     -41.157 -15.338  11.335 -0.07 +0.00    +0.285 C  
DOCKED: ENDBRANCH  14  15
DOCKED: ENDBRANCH  13  14
DOCKED: ENDBRANCH  12  13
DOCKED: ENDBRANCH   2  12
DOCKED: BRANCH   2  18
DOCKED: ATOM     18  C   UNL     1     -36.147 -16.741  12.907 -0.12 +0.00    +0.006 A  
DOCKED: ATOM     19  C   UNL     1     -35.536 -17.280  11.775 -0.18 +0.00    +0.001 A  
DOCKED: ATOM     20  C   UNL     1     -34.163 -17.123  11.585 -0.15 +0.00    +0.029 A  
DOCKED: ATOM     21  C   UNL     1     -33.403 -16.428  12.525 -0.06 +0.00    +0.140 A  
DOCKED: ATOM     22  C   UNL     1     -34.016 -15.888  13.656 -0.04 +0.00    +0.029 A  
DOCKED: ATOM     23  F   UNL     1     -32.085 -16.276  12.341 +0.00 -0.00    -0.204 F  
DOCKED: ATOM     24  C   UNL     1     -35.389 -16.045  13.848 -0.05 +0.00    +0.001 A  
DOCKED: ENDBRANCH   2  18
DOCKED: TORSDOF 5
DOCKED: TER
DOCKED: ENDMDL
________________________________________________________________________________


    FINAL DOCKED STATE:
    ________________________


Run:   150 / 512
Time taken for this run:   0.002s

DOCKED: MODEL        150
DOCKED: USER    Run = 150
DOCKED: USER
DOCKED: USER    Estimated Free Energy of Binding    =  -4.95 kcal/mol  [=(1)+(2)+(3)-(4)]
DOCKED: USER
DOCKED: USER    (1) Final Intermolecular Energy     =  -6.44 kcal/mol
DOCKED: USER        vdW + Hbond + desolv Energy     =  -6.44 kcal/mol
DOCKED: USER        Electrostatic Energy            =  +0.00 kcal/mol
DOCKED: USER        Moving Ligand-Fixed Receptor    =  -6.44 kcal/mol
DOCKED: USER        Moving Ligand-Moving Receptor   =  +0.00 kcal/mol
DOCKED: USER    (2) Final Total Internal Energy     =  -1.18 kcal/mol
DOCKED: USER    (3) Torsional Free Energy           =  +1.49 kcal/mol
DOCKED: USER    (4) Unbound System's Energy         =  -1.18 kcal/mol
DOCKED: USER
DOCKED: USER
DOCKED: REMARK  5 active torsions:
DOCKED: REMARK  status: ('A' for Active; 'I' for Inactive)
DOCKED: REMARK    1  A    between atoms: C_2  and  C_19 
DOCKED: REMARK    2  A    between atoms: C_2  and  C_11 
DOCKED: REMARK    3  A    between atoms: C_19  and  C_20 
DOCKED: REMARK    4  A    between atoms: C_20  and  C_21 
DOCKED: REMARK    5  A    between atoms: C_21  and  N_22 
DOCKED: USER                              x       y       z     vdW  Elec       q    Type
DOCKED: USER                           _______ _______ _______ _____ _____    ______ ____
DOCKED: ROOT
DOCKED: ATOM      1  O   UNL     1     -39.679 -16.308  12.500 -0.01 -0.00    -0.346 OA 
DOCKED: ATOM      2  C   UNL     1     -38.879 -17.530  12.407 -0.12 +0.00    +0.130 C  
DOCKED: ATOM      3  C   UNL     1     -39.159 -18.039  11.023 -0.25 +0.00    +0.004 A  
DOCKED: ATOM      4  C   UNL     1     -39.960 -17.131  10.344 -0.25 +0.00    +0.006 A  
DOCKED: ATOM      5  C   UNL     1     -40.250 -15.970  11.214 -0.12 +0.00    +0.169 C  
DOCKED: ATOM      6  C   UNL     1     -38.730 -19.207  10.409 -0.39 -0.00    -0.001 A  
DOCKED: ATOM      7  C   UNL     1     -40.361 -17.359   9.039 -0.32 +0.00    +0.008 A  
DOCKED: ATOM      8  C   UNL     1     -39.129 -19.453   9.094 -0.42 +0.00    +0.010 A  
DOCKED: ATOM      9  C   UNL     1     -39.940 -18.533   8.413 -0.39 +0.00    +0.068 A  
DOCKED: ATOM     10  N   UNL     1     -40.659 -19.018   5.971 -1.95 -0.00    -0.191 NA 
DOCKED: ATOM     11  C   UNL     1     -40.337 -18.801   7.067 -0.52 +0.00    +0.101 C  
DOCKED: ENDROOT
DOCKED: BRANCH   2  12
DOCKED: ATOM     12  C   UNL     1     -37.415 -17.166  12.621 -0.16 +0.00    +0.038 C  
DOCKED: BRANCH  12  13
DOCKED: ATOM     13  C   UNL     1     -36.797 -16.575  11.355 -0.17 +0.00    +0.038 C  
DOCKED: BRANCH  13  14
DOCKED: ATOM     14  C   UNL     1     -37.154 -15.097  11.208 -0.10 +0.00    +0.251 C  
DOCKED: BRANCH  14  15
DOCKED: ATOM     15  N   UNL     1     -36.500 -14.532  10.034 -0.13 +0.00    +0.141 N  
DOCKED: ATOM     16  C   UNL     1     -37.297 -13.440   9.474 -0.11 +0.00    +0.285 C  
DOCKED: ATOM     17  C   UNL     1     -35.156 -14.058  10.371 -0.07 +0.00    +0.285 C  
DOCKED: ENDBRANCH  14  15
DOCKED: ENDBRANCH  13  14
DOCKED: ENDBRANCH  12  13
DOCKED: ENDBRANCH   2  12
DOCKED: BRANCH   2  18
DOCKED: ATOM     18  C   UNL     1     -39.366 -18.452  13.475 -0.15 +0.00    +0.006 A  
DOCKED: ATOM     19  C   UNL     1     -38.460 -19.250  14.173 -0.20 +0.00    +0.001 A  
DOCKED: ATOM     20  C   UNL     1     -38.917 -20.112  15.171 -0.24 +0.00    +0.029 A  
DOCKED: ATOM     21  C   UNL     1     -40.277 -20.174  15.470 -0.05 +0.00    +0.140 A  
DOCKED: ATOM     22  C   UNL     1     -41.182 -19.375  14.772 -0.14 +0.00    +0.029 A  
DOCKED: ATOM     23  F   UNL     1     -40.715 -21.000  16.429 -0.06 -0.00    -0.204 F  
DOCKED: ATOM     24  C   UNL     1     -40.727 -18.513  13.773 -0.13 +0.00    +0.001 A  
DOCKED: ENDBRANCH   2  18
DOCKED: TORSDOF 5
DOCKED: TER
DOCKED: ENDMDL
________________________________________________________________________________


    FINAL DOCKED STATE:
    ________________________


Run:   151 / 512
Time taken for this run:   0.002s

DOCKED: MODEL        151
DOCKED: USER    Run = 151
DOCKED: USER
DOCKED: USER    Estimated Free Energy of Binding    =  -4.42 kcal/mol  [=(1)+(2)+(3)-(4)]
DOCKED: USER
DOCKED: USER    (1) Final Intermolecular Energy     =  -5.91 kcal/mol
DOCKED: USER        vdW + Hbond + desolv Energy     =  -5.91 kcal/mol
DOCKED: USER        Electrostatic Energy            =  +0.00 kcal/mol
DOCKED: USER        Moving Ligand-Fixed Receptor    =  -5.91 kcal/mol
DOCKED: USER        Moving Ligand-Moving Receptor   =  +0.00 kcal/mol
DOCKED: USER    (2) Final Total Internal Energy     =  -1.61 kcal/mol
DOCKED: USER    (3) Torsional Free Energy           =  +1.49 kcal/mol
DOCKED: USER    (4) Unbound System's Energy         =  -1.61 kcal/mol
DOCKED: USER
DOCKED: USER
DOCKED: REMARK  5 active torsions:
DOCKED: REMARK  status: ('A' for Active; 'I' for Inactive)
DOCKED: REMARK    1  A    between atoms: C_2  and  C_19 
DOCKED: REMARK    2  A    between atoms: C_2  and  C_11 
DOCKED: REMARK    3  A    between atoms: C_19  and  C_20 
DOCKED: REMARK    4  A    between atoms: C_20  and  C_21 
DOCKED: REMARK    5  A    between atoms: C_21  and  N_22 
DOCKED: USER                              x       y       z     vdW  Elec       q    Type
DOCKED: USER                           _______ _______ _______ _____ _____    ______ ____
DOCKED: ROOT
DOCKED: ATOM      1  O   UNL     1     -40.329 -16.223  11.981 -0.01 -0.00    -0.346 OA 
DOCKED: ATOM      2  C   UNL     1     -39.255 -17.210  11.861 -0.12 +0.00    +0.130 C  
DOCKED: ATOM      3  C   UNL     1     -39.490 -17.836  10.517 -0.27 +0.00    +0.004 A  
DOCKED: ATOM      4  C   UNL     1     -40.537 -17.188   9.877 -0.27 +0.00    +0.006 A  
DOCKED: ATOM      5  C   UNL     1     -41.052 -16.097  10.735 -0.16 +0.00    +0.169 C  
DOCKED: ATOM      6  C   UNL     1     -38.822 -18.886   9.904 -0.39 -0.00    -0.001 A  
DOCKED: ATOM      7  C   UNL     1     -40.954 -17.568   8.613 -0.14 +0.00    +0.008 A  
DOCKED: ATOM      8  C   UNL     1     -39.234 -19.284   8.631 -0.37 +0.00    +0.010 A  
DOCKED: ATOM      9  C   UNL     1     -40.294 -18.627   7.989 -0.41 +0.00    +0.068 A  
DOCKED: ATOM     10  N   UNL     1     -41.030 -19.387   5.623 -2.09 -0.00    -0.191 NA 
DOCKED: ATOM     11  C   UNL     1     -40.700 -19.047   6.684 -0.51 +0.00    +0.101 C  
DOCKED: ENDROOT
DOCKED: BRANCH   2  12
DOCKED: ATOM     12  C   UNL     1     -37.919 -16.483  11.953 -0.16 +0.00    +0.038 C  
DOCKED: BRANCH  12  13
DOCKED: ATOM     13  C   UNL     1     -38.082 -15.094  12.566 -0.06 +0.00    +0.038 C  
DOCKED: BRANCH  13  14
DOCKED: ATOM     14  C   UNL     1     -37.921 -15.140  14.084 -0.01 +0.00    +0.251 C  
DOCKED: BRANCH  14  15
DOCKED: ATOM     15  N   UNL     1     -39.175 -15.531  14.715 -0.01 +0.00    +0.141 N  
DOCKED: ATOM     16  C   UNL     1     -38.952 -15.925  16.107 -0.00 +0.00    +0.285 C  
DOCKED: ATOM     17  C   UNL     1     -40.149 -14.441  14.646 +0.00 +0.00    +0.285 C  
DOCKED: ENDBRANCH  14  15
DOCKED: ENDBRANCH  13  14
DOCKED: ENDBRANCH  12  13
DOCKED: ENDBRANCH   2  12
DOCKED: BRANCH   2  18
DOCKED: ATOM     18  C   UNL     1     -39.421 -18.175  12.988 -0.14 +0.00    +0.006 A  
DOCKED: ATOM     19  C   UNL     1     -40.697 -18.485  13.457 -0.13 +0.00    +0.001 A  
DOCKED: ATOM     20  C   UNL     1     -40.851 -19.386  14.511 -0.15 +0.00    +0.029 A  
DOCKED: ATOM     21  C   UNL     1     -39.730 -19.976  15.094 -0.09 +0.00    +0.140 A  
DOCKED: ATOM     22  C   UNL     1     -38.454 -19.666  14.623 -0.22 +0.00    +0.029 A  
DOCKED: ATOM     23  F   UNL     1     -39.878 -20.843  16.104 -0.05 -0.00    -0.204 F  
DOCKED: ATOM     24  C   UNL     1     -38.299 -18.764  13.570 -0.14 +0.00    +0.001 A  
DOCKED: ENDBRANCH   2  18
DOCKED: TORSDOF 5
DOCKED: TER
DOCKED: ENDMDL
________________________________________________________________________________


    FINAL DOCKED STATE:
    ________________________


Run:   152 / 512
Time taken for this run:   0.002s

DOCKED: MODEL        152
DOCKED: USER    Run = 152
DOCKED: USER
DOCKED: USER    Estimated Free Energy of Binding    =  -3.58 kcal/mol  [=(1)+(2)+(3)-(4)]
DOCKED: USER
DOCKED: USER    (1) Final Intermolecular Energy     =  -5.07 kcal/mol
DOCKED: USER        vdW + Hbond + desolv Energy     =  -5.07 kcal/mol
DOCKED: USER        Electrostatic Energy            =  +0.00 kcal/mol
DOCKED: USER        Moving Ligand-Fixed Receptor    =  -5.07 kcal/mol
DOCKED: USER        Moving Ligand-Moving Receptor   =  +0.00 kcal/mol
DOCKED: USER    (2) Final Total Internal Energy     =  -1.33 kcal/mol
DOCKED: USER    (3) Torsional Free Energy           =  +1.49 kcal/mol
DOCKED: USER    (4) Unbound System's Energy         =  -1.33 kcal/mol
DOCKED: USER
DOCKED: USER
DOCKED: REMARK  5 active torsions:
DOCKED: REMARK  status: ('A' for Active; 'I' for Inactive)
DOCKED: REMARK    1  A    between atoms: C_2  and  C_19 
DOCKED: REMARK    2  A    between atoms: C_2  and  C_11 
DOCKED: REMARK    3  A    between atoms: C_19  and  C_20 
DOCKED: REMARK    4  A    between atoms: C_20  and  C_21 
DOCKED: REMARK    5  A    between atoms: C_21  and  N_22 
DOCKED: USER                              x       y       z     vdW  Elec       q    Type
DOCKED: USER                           _______ _______ _______ _____ _____    ______ ____
DOCKED: ROOT
DOCKED: ATOM      1  O   UNL     1     -33.004 -14.198   5.088 +0.00 -0.00    -0.346 OA 
DOCKED: ATOM      2  C   UNL     1     -32.829 -15.058   3.916 -0.10 +0.00    +0.130 C  
DOCKED: ATOM      3  C   UNL     1     -32.934 -16.449   4.472 -0.17 +0.00    +0.004 A  
DOCKED: ATOM      4  C   UNL     1     -33.251 -16.390   5.821 -0.21 +0.00    +0.006 A  
DOCKED: ATOM      5  C   UNL     1     -33.389 -14.978   6.244 -0.11 +0.00    +0.169 C  
DOCKED: ATOM      6  C   UNL     1     -32.773 -17.669   3.831 -0.10 -0.00    -0.001 A  
DOCKED: ATOM      7  C   UNL     1     -33.413 -17.540   6.574 -0.17 +0.00    +0.008 A  
DOCKED: ATOM      8  C   UNL     1     -32.929 -18.838   4.578 -0.27 +0.00    +0.010 A  
DOCKED: ATOM      9  C   UNL     1     -33.247 -18.773   5.943 -0.31 +0.00    +0.068 A  
DOCKED: ATOM     10  N   UNL     1     -33.534 -20.963   7.298 -2.54 -0.00    -0.191 NA 
DOCKED: ATOM     11  C   UNL     1     -33.405 -19.981   6.690 -0.34 +0.00    +0.101 C  
DOCKED: ENDROOT
DOCKED: BRANCH   2  12
DOCKED: ATOM     12  C   UNL     1     -33.930 -14.735   2.912 -0.20 +0.00    +0.038 C  
DOCKED: BRANCH  12  13
DOCKED: ATOM     13  C   UNL     1     -34.284 -13.250   2.933 -0.16 +0.00    +0.038 C  
DOCKED: BRANCH  13  14
DOCKED: ATOM     14  C   UNL     1     -35.535 -12.995   3.771 -0.14 +0.00    +0.251 C  
DOCKED: BRANCH  14  15
DOCKED: ATOM     15  N   UNL     1     -35.167 -12.540   5.107 -0.08 +0.00    +0.141 N  
DOCKED: ATOM     16  C   UNL     1     -34.133 -11.506   5.033 -0.02 +0.00    +0.285 C  
DOCKED: ATOM     17  C   UNL     1     -36.340 -12.033   5.821 -0.07 +0.00    +0.285 C  
DOCKED: ENDBRANCH  14  15
DOCKED: ENDBRANCH  13  14
DOCKED: ENDBRANCH  12  13
DOCKED: ENDBRANCH   2  12
DOCKED: BRANCH   2  18
DOCKED: ATOM     18  C   UNL     1     -31.481 -14.757   3.352 -0.04 +0.00    +0.006 A  
DOCKED: ATOM     19  C   UNL     1     -30.969 -15.538   2.316 -0.04 +0.00    +0.001 A  
DOCKED: ATOM     20  C   UNL     1     -29.708 -15.256   1.789 -0.01 +0.00    +0.029 A  
DOCKED: ATOM     21  C   UNL     1     -28.961 -14.194   2.298 -0.00 +0.00    +0.140 A  
DOCKED: ATOM     22  C   UNL     1     -29.474 -13.414   3.334 -0.00 +0.00    +0.029 A  
DOCKED: ATOM     23  F   UNL     1     -27.752 -13.923   1.792 +0.00 -0.00    -0.204 F  
DOCKED: ATOM     24  C   UNL     1     -30.735 -13.695   3.862 -0.00 +0.00    +0.001 A  
DOCKED: ENDBRANCH   2  18
DOCKED: TORSDOF 5
DOCKED: TER
DOCKED: ENDMDL
________________________________________________________________________________


    FINAL DOCKED STATE:
    ________________________


Run:   153 / 512
Time taken for this run:   0.002s

DOCKED: MODEL        153
DOCKED: USER    Run = 153
DOCKED: USER
DOCKED: USER    Estimated Free Energy of Binding    =  -3.80 kcal/mol  [=(1)+(2)+(3)-(4)]
DOCKED: USER
DOCKED: USER    (1) Final Intermolecular Energy     =  -5.29 kcal/mol
DOCKED: USER        vdW + Hbond + desolv Energy     =  -5.29 kcal/mol
DOCKED: USER        Electrostatic Energy            =  +0.00 kcal/mol
DOCKED: USER        Moving Ligand-Fixed Receptor    =  -5.29 kcal/mol
DOCKED: USER        Moving Ligand-Moving Receptor   =  +0.00 kcal/mol
DOCKED: USER    (2) Final Total Internal Energy     =  -1.29 kcal/mol
DOCKED: USER    (3) Torsional Free Energy           =  +1.49 kcal/mol
DOCKED: USER    (4) Unbound System's Energy         =  -1.29 kcal/mol
DOCKED: USER
DOCKED: USER
DOCKED: REMARK  5 active torsions:
DOCKED: REMARK  status: ('A' for Active; 'I' for Inactive)
DOCKED: REMARK    1  A    between atoms: C_2  and  C_19 
DOCKED: REMARK    2  A    between atoms: C_2  and  C_11 
DOCKED: REMARK    3  A    between atoms: C_19  and  C_20 
DOCKED: REMARK    4  A    between atoms: C_20  and  C_21 
DOCKED: REMARK    5  A    between atoms: C_21  and  N_22 
DOCKED: USER                              x       y       z     vdW  Elec       q    Type
DOCKED: USER                           _______ _______ _______ _____ _____    ______ ____
DOCKED: ROOT
DOCKED: ATOM      1  O   UNL     1     -33.650 -13.430   5.224 -0.00 -0.00    -0.346 OA 
DOCKED: ATOM      2  C   UNL     1     -34.143 -14.460   4.310 -0.17 +0.00    +0.130 C  
DOCKED: ATOM      3  C   UNL     1     -33.841 -15.747   5.021 -0.23 +0.00    +0.004 A  
DOCKED: ATOM      4  C   UNL     1     -33.321 -15.474   6.279 -0.16 +0.00    +0.006 A  
DOCKED: ATOM      5  C   UNL     1     -33.257 -14.011   6.489 -0.07 +0.00    +0.169 C  
DOCKED: ATOM      6  C   UNL     1     -34.021 -17.055   4.594 -0.26 -0.00    -0.001 A  
DOCKED: ATOM      7  C   UNL     1     -32.963 -16.492   7.147 -0.15 +0.00    +0.008 A  
DOCKED: ATOM      8  C   UNL     1     -33.660 -18.092   5.456 -0.33 +0.00    +0.010 A  
DOCKED: ATOM      9  C   UNL     1     -33.134 -17.811   6.726 -0.19 +0.00    +0.068 A  
DOCKED: ATOM     10  N   UNL     1     -32.478 -19.760   8.303 -2.03 -0.00    -0.191 NA 
DOCKED: ATOM     11  C   UNL     1     -32.772 -18.886   7.595 -0.22 +0.00    +0.101 C  
DOCKED: ENDROOT
DOCKED: BRANCH   2  12
DOCKED: ATOM     12  C   UNL     1     -35.636 -14.239   4.093 -0.26 +0.00    +0.038 C  
DOCKED: BRANCH  12  13
DOCKED: ATOM     13  C   UNL     1     -36.048 -12.816   4.467 -0.22 +0.00    +0.038 C  
DOCKED: BRANCH  13  14
DOCKED: ATOM     14  C   UNL     1     -36.156 -11.932   3.227 -0.15 +0.00    +0.251 C  
DOCKED: BRANCH  14  15
DOCKED: ATOM     15  N   UNL     1     -35.886 -10.541   3.571 -0.14 +0.00    +0.141 N  
DOCKED: ATOM     16  C   UNL     1     -36.842 -10.061   4.571 -0.16 +0.00    +0.285 C  
DOCKED: ATOM     17  C   UNL     1     -34.516 -10.388   4.063 -0.06 +0.00    +0.285 C  
DOCKED: ENDBRANCH  14  15
DOCKED: ENDBRANCH  13  14
DOCKED: ENDBRANCH  12  13
DOCKED: ENDBRANCH   2  12
DOCKED: BRANCH   2  18
DOCKED: ATOM     18  C   UNL     1     -33.386 -14.310   3.033 -0.14 +0.00    +0.006 A  
DOCKED: ATOM     19  C   UNL     1     -32.511 -13.237   2.864 -0.04 +0.00    +0.001 A  
DOCKED: ATOM     20  C   UNL     1     -31.804 -13.098   1.669 -0.02 +0.00    +0.029 A  
DOCKED: ATOM     21  C   UNL     1     -31.972 -14.030   0.646 -0.04 +0.00    +0.140 A  
DOCKED: ATOM     22  C   UNL     1     -32.846 -15.103   0.816 -0.16 +0.00    +0.029 A  
DOCKED: ATOM     23  F   UNL     1     -31.291 -13.897  -0.500 +0.01 -0.00    -0.204 F  
DOCKED: ATOM     24  C   UNL     1     -33.555 -15.243   2.011 -0.09 +0.00    +0.001 A  
DOCKED: ENDBRANCH   2  18
DOCKED: TORSDOF 5
DOCKED: TER
DOCKED: ENDMDL
________________________________________________________________________________


    FINAL DOCKED STATE:
    ________________________


Run:   154 / 512
Time taken for this run:   0.002s

DOCKED: MODEL        154
DOCKED: USER    Run = 154
DOCKED: USER
DOCKED: USER    Estimated Free Energy of Binding    =  -4.49 kcal/mol  [=(1)+(2)+(3)-(4)]
DOCKED: USER
DOCKED: USER    (1) Final Intermolecular Energy     =  -5.98 kcal/mol
DOCKED: USER        vdW + Hbond + desolv Energy     =  -5.98 kcal/mol
DOCKED: USER        Electrostatic Energy            =  +0.00 kcal/mol
DOCKED: USER        Moving Ligand-Fixed Receptor    =  -5.98 kcal/mol
DOCKED: USER        Moving Ligand-Moving Receptor   =  +0.00 kcal/mol
DOCKED: USER    (2) Final Total Internal Energy     =  -1.09 kcal/mol
DOCKED: USER    (3) Torsional Free Energy           =  +1.49 kcal/mol
DOCKED: USER    (4) Unbound System's Energy         =  -1.09 kcal/mol
DOCKED: USER
DOCKED: USER
DOCKED: REMARK  5 active torsions:
DOCKED: REMARK  status: ('A' for Active; 'I' for Inactive)
DOCKED: REMARK    1  A    between atoms: C_2  and  C_19 
DOCKED: REMARK    2  A    between atoms: C_2  and  C_11 
DOCKED: REMARK    3  A    between atoms: C_19  and  C_20 
DOCKED: REMARK    4  A    between atoms: C_20  and  C_21 
DOCKED: REMARK    5  A    between atoms: C_21  and  N_22 
DOCKED: USER                              x       y       z     vdW  Elec       q    Type
DOCKED: USER                           _______ _______ _______ _____ _____    ______ ____
DOCKED: ROOT
DOCKED: ATOM      1  O   UNL     1     -38.804 -13.787  10.188 -0.08 -0.00    -0.346 OA 
DOCKED: ATOM      2  C   UNL     1     -40.111 -14.016  10.807 -0.15 +0.00    +0.130 C  
DOCKED: ATOM      3  C   UNL     1     -40.443 -15.431  10.433 -0.22 +0.00    +0.004 A  
DOCKED: ATOM      4  C   UNL     1     -39.373 -15.999   9.756 -0.28 +0.00    +0.006 A  
DOCKED: ATOM      5  C   UNL     1     -38.270 -15.018   9.647 -0.15 +0.00    +0.169 C  
DOCKED: ATOM      6  C   UNL     1     -41.595 -16.162  10.683 -0.19 -0.00    -0.001 A  
DOCKED: ATOM      7  C   UNL     1     -39.419 -17.307   9.303 -0.34 +0.00    +0.008 A  
DOCKED: ATOM      8  C   UNL     1     -41.659 -17.481  10.229 -0.22 +0.00    +0.010 A  
DOCKED: ATOM      9  C   UNL     1     -40.575 -18.050   9.543 -0.26 +0.00    +0.068 A  
DOCKED: ATOM     10  N   UNL     1     -40.723 -20.502   8.719 -2.60 -0.00    -0.191 NA 
DOCKED: ATOM     11  C   UNL     1     -40.657 -19.402   9.088 -0.37 +0.00    +0.101 C  
DOCKED: ENDROOT
DOCKED: BRANCH   2  12
DOCKED: ATOM     12  C   UNL     1     -39.974 -13.816  12.312 -0.05 +0.00    +0.038 C  
DOCKED: BRANCH  12  13
DOCKED: ATOM     13  C   UNL     1     -39.977 -12.333  12.679 -0.02 +0.00    +0.038 C  
DOCKED: BRANCH  13  14
DOCKED: ATOM     14  C   UNL     1     -40.359 -12.130  14.144 -0.00 +0.00    +0.251 C  
DOCKED: BRANCH  14  15
DOCKED: ATOM     15  N   UNL     1     -40.892 -10.789  14.348 -0.00 +0.00    +0.141 N  
DOCKED: ATOM     16  C   UNL     1     -39.855  -9.895  14.866 +0.00 +0.00    +0.285 C  
DOCKED: ATOM     17  C   UNL     1     -41.443 -10.257  13.100 -0.00 +0.00    +0.285 C  
DOCKED: ENDBRANCH  14  15
DOCKED: ENDBRANCH  13  14
DOCKED: ENDBRANCH  12  13
DOCKED: ENDBRANCH   2  12
DOCKED: BRANCH   2  18
DOCKED: ATOM     18  C   UNL     1     -41.054 -13.022  10.215 -0.21 +0.00    +0.006 A  
DOCKED: ATOM     19  C   UNL     1     -42.425 -13.148  10.431 -0.21 +0.00    +0.001 A  
DOCKED: ATOM     20  C   UNL     1     -43.305 -12.218   9.877 -0.19 +0.00    +0.029 A  
DOCKED: ATOM     21  C   UNL     1     -42.813 -11.164   9.109 -0.10 +0.00    +0.140 A  
DOCKED: ATOM     22  C   UNL     1     -41.441 -11.038   8.894 -0.14 +0.00    +0.029 A  
DOCKED: ATOM     23  F   UNL     1     -43.658 -10.270   8.578 -0.03 -0.00    -0.204 F  
DOCKED: ATOM     24  C   UNL     1     -40.560 -11.968   9.447 -0.18 +0.00    +0.001 A  
DOCKED: ENDBRANCH   2  18
DOCKED: TORSDOF 5
DOCKED: TER
DOCKED: ENDMDL
________________________________________________________________________________


    FINAL DOCKED STATE:
    ________________________


Run:   155 / 512
Time taken for this run:   0.002s

DOCKED: MODEL        155
DOCKED: USER    Run = 155
DOCKED: USER
DOCKED: USER    Estimated Free Energy of Binding    =  -3.77 kcal/mol  [=(1)+(2)+(3)-(4)]
DOCKED: USER
DOCKED: USER    (1) Final Intermolecular Energy     =  -5.26 kcal/mol
DOCKED: USER        vdW + Hbond + desolv Energy     =  -5.26 kcal/mol
DOCKED: USER        Electrostatic Energy            =  +0.00 kcal/mol
DOCKED: USER        Moving Ligand-Fixed Receptor    =  -5.26 kcal/mol
DOCKED: USER        Moving Ligand-Moving Receptor   =  +0.00 kcal/mol
DOCKED: USER    (2) Final Total Internal Energy     =  -1.45 kcal/mol
DOCKED: USER    (3) Torsional Free Energy           =  +1.49 kcal/mol
DOCKED: USER    (4) Unbound System's Energy         =  -1.45 kcal/mol
DOCKED: USER
DOCKED: USER
DOCKED: REMARK  5 active torsions:
DOCKED: REMARK  status: ('A' for Active; 'I' for Inactive)
DOCKED: REMARK    1  A    between atoms: C_2  and  C_19 
DOCKED: REMARK    2  A    between atoms: C_2  and  C_11 
DOCKED: REMARK    3  A    between atoms: C_19  and  C_20 
DOCKED: REMARK    4  A    between atoms: C_20  and  C_21 
DOCKED: REMARK    5  A    between atoms: C_21  and  N_22 
DOCKED: USER                              x       y       z     vdW  Elec       q    Type
DOCKED: USER                           _______ _______ _______ _____ _____    ______ ____
DOCKED: ROOT
DOCKED: ATOM      1  O   UNL     1     -33.987 -13.087   5.436 -0.00 -0.00    -0.346 OA 
DOCKED: ATOM      2  C   UNL     1     -34.519 -14.131   4.559 -0.17 +0.00    +0.130 C  
DOCKED: ATOM      3  C   UNL     1     -34.101 -15.409   5.227 -0.23 +0.00    +0.004 A  
DOCKED: ATOM      4  C   UNL     1     -33.482 -15.124   6.436 -0.15 +0.00    +0.006 A  
DOCKED: ATOM      5  C   UNL     1     -33.458 -13.660   6.655 -0.07 +0.00    +0.169 C  
DOCKED: ATOM      6  C   UNL     1     -34.266 -16.720   4.805 -0.31 -0.00    -0.001 A  
DOCKED: ATOM      7  C   UNL     1     -33.005 -16.131   7.257 -0.14 +0.00    +0.008 A  
DOCKED: ATOM      8  C   UNL     1     -33.787 -17.747   5.619 -0.31 +0.00    +0.010 A  
DOCKED: ATOM      9  C   UNL     1     -33.160 -17.454   6.839 -0.16 +0.00    +0.068 A  
DOCKED: ATOM     10  N   UNL     1     -32.286 -19.384   8.330 -1.97 -0.00    -0.191 NA 
DOCKED: ATOM     11  C   UNL     1     -32.677 -18.518   7.661 -0.19 +0.00    +0.101 C  
DOCKED: ENDROOT
DOCKED: BRANCH   2  12
DOCKED: ATOM     12  C   UNL     1     -36.033 -13.970   4.481 -0.29 +0.00    +0.038 C  
DOCKED: BRANCH  12  13
DOCKED: ATOM     13  C   UNL     1     -36.419 -12.614   3.893 -0.22 +0.00    +0.038 C  
DOCKED: BRANCH  13  14
DOCKED: ATOM     14  C   UNL     1     -36.507 -11.548   4.983 -0.12 +0.00    +0.251 C  
DOCKED: BRANCH  14  15
DOCKED: ATOM     15  N   UNL     1     -35.998 -10.274   4.489 -0.13 +0.00    +0.141 N  
DOCKED: ATOM     16  C   UNL     1     -34.677  -9.993   5.052 -0.09 +0.00    +0.285 C  
DOCKED: ATOM     17  C   UNL     1     -35.938 -10.275   3.027 -0.15 +0.00    +0.285 C  
DOCKED: ENDBRANCH  14  15
DOCKED: ENDBRANCH  13  14
DOCKED: ENDBRANCH  12  13
DOCKED: ENDBRANCH   2  12
DOCKED: BRANCH   2  18
DOCKED: ATOM     18  C   UNL     1     -33.887 -13.941   3.221 -0.15 +0.00    +0.006 A  
DOCKED: ATOM     19  C   UNL     1     -34.475 -14.501   2.087 -0.07 +0.00    +0.001 A  
DOCKED: ATOM     20  C   UNL     1     -33.882 -14.322   0.836 -0.21 +0.00    +0.029 A  
DOCKED: ATOM     21  C   UNL     1     -32.705 -13.584   0.721 -0.06 +0.00    +0.140 A  
DOCKED: ATOM     22  C   UNL     1     -32.118 -13.024   1.855 -0.02 +0.00    +0.029 A  
DOCKED: ATOM     23  F   UNL     1     -32.138 -13.412  -0.480 +0.00 -0.00    -0.204 F  
DOCKED: ATOM     24  C   UNL     1     -32.710 -13.203   3.107 -0.04 +0.00    +0.001 A  
DOCKED: ENDBRANCH   2  18
DOCKED: TORSDOF 5
DOCKED: TER
DOCKED: ENDMDL
________________________________________________________________________________


    FINAL DOCKED STATE:
    ________________________


Run:   156 / 512
Time taken for this run:   0.002s

DOCKED: MODEL        156
DOCKED: USER    Run = 156
DOCKED: USER
DOCKED: USER    Estimated Free Energy of Binding    =  -6.16 kcal/mol  [=(1)+(2)+(3)-(4)]
DOCKED: USER
DOCKED: USER    (1) Final Intermolecular Energy     =  -7.65 kcal/mol
DOCKED: USER        vdW + Hbond + desolv Energy     =  -7.65 kcal/mol
DOCKED: USER        Electrostatic Energy            =  +0.00 kcal/mol
DOCKED: USER        Moving Ligand-Fixed Receptor    =  -7.65 kcal/mol
DOCKED: USER        Moving Ligand-Moving Receptor   =  +0.00 kcal/mol
DOCKED: USER    (2) Final Total Internal Energy     =  -0.86 kcal/mol
DOCKED: USER    (3) Torsional Free Energy           =  +1.49 kcal/mol
DOCKED: USER    (4) Unbound System's Energy         =  -0.86 kcal/mol
DOCKED: USER
DOCKED: USER
DOCKED: REMARK  5 active torsions:
DOCKED: REMARK  status: ('A' for Active; 'I' for Inactive)
DOCKED: REMARK    1  A    between atoms: C_2  and  C_19 
DOCKED: REMARK    2  A    between atoms: C_2  and  C_11 
DOCKED: REMARK    3  A    between atoms: C_19  and  C_20 
DOCKED: REMARK    4  A    between atoms: C_20  and  C_21 
DOCKED: REMARK    5  A    between atoms: C_21  and  N_22 
DOCKED: USER                              x       y       z     vdW  Elec       q    Type
DOCKED: USER                           _______ _______ _______ _____ _____    ______ ____
DOCKED: ROOT
DOCKED: ATOM      1  O   UNL     1     -37.624 -19.850  10.937 -0.20 -0.00    -0.346 OA 
DOCKED: ATOM      2  C   UNL     1     -38.355 -18.589  11.066 -0.29 +0.00    +0.130 C  
DOCKED: ATOM      3  C   UNL     1     -39.099 -18.470   9.767 -0.36 +0.00    +0.004 A  
DOCKED: ATOM      4  C   UNL     1     -38.899 -19.615   9.008 -0.35 +0.00    +0.006 A  
DOCKED: ATOM      5  C   UNL     1     -38.033 -20.562   9.746 -0.26 +0.00    +0.169 C  
DOCKED: ATOM      6  C   UNL     1     -39.898 -17.437   9.300 -0.35 -0.00    -0.001 A  
DOCKED: ATOM      7  C   UNL     1     -39.483 -19.764   7.762 -0.31 +0.00    +0.008 A  
DOCKED: ATOM      8  C   UNL     1     -40.490 -17.571   8.043 -0.11 +0.00    +0.010 A  
DOCKED: ATOM      9  C   UNL     1     -40.284 -18.729   7.278 -0.45 +0.00    +0.068 A  
DOCKED: ATOM     10  N   UNL     1     -41.403 -18.947   4.951 -3.09 -0.00    -0.191 NA 
DOCKED: ATOM     11  C   UNL     1     -40.901 -18.849   5.995 -0.31 +0.00    +0.101 C  
DOCKED: ENDROOT
DOCKED: BRANCH   2  12
DOCKED: ATOM     12  C   UNL     1     -39.281 -18.689  12.273 -0.24 +0.00    +0.038 C  
DOCKED: BRANCH  12  13
DOCKED: ATOM     13  C   UNL     1     -40.679 -19.149  11.866 -0.25 +0.00    +0.038 C  
DOCKED: BRANCH  13  14
DOCKED: ATOM     14  C   UNL     1     -41.743 -18.164  12.345 -0.06 +0.00    +0.251 C  
DOCKED: BRANCH  14  15
DOCKED: ATOM     15  N   UNL     1     -42.328 -18.619  13.600 -0.07 +0.00    +0.141 N  
DOCKED: ATOM     16  C   UNL     1     -41.331 -18.599  14.672 -0.05 +0.00    +0.285 C  
DOCKED: ATOM     17  C   UNL     1     -43.479 -17.791  13.964 -0.01 +0.00    +0.285 C  
DOCKED: ENDBRANCH  14  15
DOCKED: ENDBRANCH  13  14
DOCKED: ENDBRANCH  12  13
DOCKED: ENDBRANCH   2  12
DOCKED: BRANCH   2  18
DOCKED: ATOM     18  C   UNL     1     -37.339 -17.513  11.254 -0.22 +0.00    +0.006 A  
DOCKED: ATOM     19  C   UNL     1     -37.638 -16.200  10.891 -0.18 +0.00    +0.001 A  
DOCKED: ATOM     20  C   UNL     1     -36.687 -15.195  11.068 -0.13 +0.00    +0.029 A  
DOCKED: ATOM     21  C   UNL     1     -35.439 -15.503  11.607 -0.09 +0.00    +0.140 A  
DOCKED: ATOM     22  C   UNL     1     -35.140 -16.816  11.970 -0.15 +0.00    +0.029 A  
DOCKED: ATOM     23  F   UNL     1     -34.526 -14.538  11.778 -0.01 -0.00    -0.204 F  
DOCKED: ATOM     24  C   UNL     1     -36.091 -17.823  11.793 -0.12 +0.00    +0.001 A  
DOCKED: ENDBRANCH   2  18
DOCKED: TORSDOF 5
DOCKED: TER
DOCKED: ENDMDL
________________________________________________________________________________


    FINAL DOCKED STATE:
    ________________________


Run:   157 / 512
Time taken for this run:   0.002s

DOCKED: MODEL        157
DOCKED: USER    Run = 157
DOCKED: USER
DOCKED: USER    Estimated Free Energy of Binding    =  -4.09 kcal/mol  [=(1)+(2)+(3)-(4)]
DOCKED: USER
DOCKED: USER    (1) Final Intermolecular Energy     =  -5.59 kcal/mol
DOCKED: USER        vdW + Hbond + desolv Energy     =  -5.59 kcal/mol
DOCKED: USER        Electrostatic Energy            =  +0.00 kcal/mol
DOCKED: USER        Moving Ligand-Fixed Receptor    =  -5.59 kcal/mol
DOCKED: USER        Moving Ligand-Moving Receptor   =  +0.00 kcal/mol
DOCKED: USER    (2) Final Total Internal Energy     =  -1.09 kcal/mol
DOCKED: USER    (3) Torsional Free Energy           =  +1.49 kcal/mol
DOCKED: USER    (4) Unbound System's Energy         =  -1.09 kcal/mol
DOCKED: USER
DOCKED: USER
DOCKED: REMARK  5 active torsions:
DOCKED: REMARK  status: ('A' for Active; 'I' for Inactive)
DOCKED: REMARK    1  A    between atoms: C_2  and  C_19 
DOCKED: REMARK    2  A    between atoms: C_2  and  C_11 
DOCKED: REMARK    3  A    between atoms: C_19  and  C_20 
DOCKED: REMARK    4  A    between atoms: C_20  and  C_21 
DOCKED: REMARK    5  A    between atoms: C_21  and  N_22 
DOCKED: USER                              x       y       z     vdW  Elec       q    Type
DOCKED: USER                           _______ _______ _______ _____ _____    ______ ____
DOCKED: ROOT
DOCKED: ATOM      1  O   UNL     1     -30.918 -18.719   1.320 -0.01 -0.00    -0.346 OA 
DOCKED: ATOM      2  C   UNL     1     -31.080 -17.532   2.161 -0.09 +0.00    +0.130 C  
DOCKED: ATOM      3  C   UNL     1     -31.651 -18.073   3.440 -0.12 +0.00    +0.004 A  
DOCKED: ATOM      4  C   UNL     1     -31.706 -19.458   3.378 -0.16 +0.00    +0.006 A  
DOCKED: ATOM      5  C   UNL     1     -31.172 -19.925   2.078 -0.09 +0.00    +0.169 C  
DOCKED: ATOM      6  C   UNL     1     -32.076 -17.394   4.572 -0.13 -0.00    -0.001 A  
DOCKED: ATOM      7  C   UNL     1     -32.190 -20.208   4.436 -0.27 +0.00    +0.008 A  
DOCKED: ATOM      8  C   UNL     1     -32.571 -18.136   5.646 -0.24 +0.00    +0.010 A  
DOCKED: ATOM      9  C   UNL     1     -32.627 -19.536   5.578 -0.30 +0.00    +0.068 A  
DOCKED: ATOM     10  N   UNL     1     -33.545 -20.883   7.592 -2.67 -0.00    -0.191 NA 
DOCKED: ATOM     11  C   UNL     1     -33.134 -20.279   6.689 -0.39 +0.00    +0.101 C  
DOCKED: ENDROOT
DOCKED: BRANCH   2  12
DOCKED: ATOM     12  C   UNL     1     -29.714 -16.883   2.349 -0.02 +0.00    +0.038 C  
DOCKED: BRANCH  12  13
DOCKED: ATOM     13  C   UNL     1     -29.269 -16.147   1.087 -0.01 +0.00    +0.038 C  
DOCKED: BRANCH  13  14
DOCKED: ATOM     14  C   UNL     1     -28.586 -17.099   0.107 -0.00 +0.00    +0.251 C  
DOCKED: BRANCH  14  15
DOCKED: ATOM     15  N   UNL     1     -27.994 -16.352  -0.997 -0.00 +0.00    +0.141 N  
DOCKED: ATOM     16  C   UNL     1     -26.539 -16.509  -1.005 +0.00 +0.00    +0.285 C  
DOCKED: ATOM     17  C   UNL     1     -28.559 -16.789  -2.276 +0.00 +0.00    +0.285 C  
DOCKED: ENDBRANCH  14  15
DOCKED: ENDBRANCH  13  14
DOCKED: ENDBRANCH  12  13
DOCKED: ENDBRANCH   2  12
DOCKED: BRANCH   2  18
DOCKED: ATOM     18  C   UNL     1     -32.017 -16.617   1.447 -0.12 +0.00    +0.006 A  
DOCKED: ATOM     19  C   UNL     1     -32.644 -15.582   2.140 -0.13 +0.00    +0.001 A  
DOCKED: ATOM     20  C   UNL     1     -33.520 -14.727   1.471 -0.18 +0.00    +0.029 A  
DOCKED: ATOM     21  C   UNL     1     -33.769 -14.907   0.111 -0.19 +0.00    +0.140 A  
DOCKED: ATOM     22  C   UNL     1     -33.142 -15.943  -0.582 -0.20 +0.00    +0.029 A  
DOCKED: ATOM     23  F   UNL     1     -34.609 -14.085  -0.531 -0.13 -0.00    -0.204 F  
DOCKED: ATOM     24  C   UNL     1     -32.265 -16.799   0.087 -0.13 +0.00    +0.001 A  
DOCKED: ENDBRANCH   2  18
DOCKED: TORSDOF 5
DOCKED: TER
DOCKED: ENDMDL
________________________________________________________________________________


    FINAL DOCKED STATE:
    ________________________


Run:   158 / 512
Time taken for this run:   0.002s

DOCKED: MODEL        158
DOCKED: USER    Run = 158
DOCKED: USER
DOCKED: USER    Estimated Free Energy of Binding    =  -3.64 kcal/mol  [=(1)+(2)+(3)-(4)]
DOCKED: USER
DOCKED: USER    (1) Final Intermolecular Energy     =  -5.13 kcal/mol
DOCKED: USER        vdW + Hbond + desolv Energy     =  -5.13 kcal/mol
DOCKED: USER        Electrostatic Energy            =  +0.00 kcal/mol
DOCKED: USER        Moving Ligand-Fixed Receptor    =  -5.13 kcal/mol
DOCKED: USER        Moving Ligand-Moving Receptor   =  +0.00 kcal/mol
DOCKED: USER    (2) Final Total Internal Energy     =  -1.33 kcal/mol
DOCKED: USER    (3) Torsional Free Energy           =  +1.49 kcal/mol
DOCKED: USER    (4) Unbound System's Energy         =  -1.33 kcal/mol
DOCKED: USER
DOCKED: USER
DOCKED: REMARK  5 active torsions:
DOCKED: REMARK  status: ('A' for Active; 'I' for Inactive)
DOCKED: REMARK    1  A    between atoms: C_2  and  C_19 
DOCKED: REMARK    2  A    between atoms: C_2  and  C_11 
DOCKED: REMARK    3  A    between atoms: C_19  and  C_20 
DOCKED: REMARK    4  A    between atoms: C_20  and  C_21 
DOCKED: REMARK    5  A    between atoms: C_21  and  N_22 
DOCKED: USER                              x       y       z     vdW  Elec       q    Type
DOCKED: USER                           _______ _______ _______ _____ _____    ______ ____
DOCKED: ROOT
DOCKED: ATOM      1  O   UNL     1     -31.482 -14.812   4.111 +0.01 -0.00    -0.346 OA 
DOCKED: ATOM      2  C   UNL     1     -32.816 -15.252   3.703 -0.11 +0.00    +0.130 C  
DOCKED: ATOM      3  C   UNL     1     -33.077 -16.455   4.562 -0.19 +0.00    +0.004 A  
DOCKED: ATOM      4  C   UNL     1     -32.033 -16.623   5.460 -0.11 +0.00    +0.006 A  
DOCKED: ATOM      5  C   UNL     1     -31.030 -15.551   5.270 -0.02 +0.00    +0.169 C  
DOCKED: ATOM      6  C   UNL     1     -34.158 -17.325   4.557 -0.17 -0.00    -0.001 A  
DOCKED: ATOM      7  C   UNL     1     -32.030 -17.661   6.376 -0.17 +0.00    +0.008 A  
DOCKED: ATOM      8  C   UNL     1     -34.168 -18.379   5.472 -0.17 +0.00    +0.010 A  
DOCKED: ATOM      9  C   UNL     1     -33.109 -18.546   6.377 -0.28 +0.00    +0.068 A  
DOCKED: ATOM     10  N   UNL     1     -33.160 -20.511   8.065 -2.36 -0.00    -0.191 NA 
DOCKED: ATOM     11  C   UNL     1     -33.137 -19.630   7.307 -0.24 +0.00    +0.101 C  
DOCKED: ENDROOT
DOCKED: BRANCH   2  12
DOCKED: ATOM     12  C   UNL     1     -33.799 -14.115   3.959 -0.14 +0.00    +0.038 C  
DOCKED: BRANCH  12  13
DOCKED: ATOM     13  C   UNL     1     -33.078 -12.776   4.096 -0.04 +0.00    +0.038 C  
DOCKED: BRANCH  13  14
DOCKED: ATOM     14  C   UNL     1     -33.450 -12.084   5.406 -0.01 +0.00    +0.251 C  
DOCKED: BRANCH  14  15
DOCKED: ATOM     15  N   UNL     1     -34.018 -13.045   6.344 -0.05 +0.00    +0.141 N  
DOCKED: ATOM     16  C   UNL     1     -33.002 -13.501   7.294 -0.03 +0.00    +0.285 C  
DOCKED: ATOM     17  C   UNL     1     -35.154 -12.459   7.058 -0.06 +0.00    +0.285 C  
DOCKED: ENDBRANCH  14  15
DOCKED: ENDBRANCH  13  14
DOCKED: ENDBRANCH  12  13
DOCKED: ENDBRANCH   2  12
DOCKED: BRANCH   2  18
DOCKED: ATOM     18  C   UNL     1     -32.741 -15.581   2.249 -0.13 +0.00    +0.006 A  
DOCKED: ATOM     19  C   UNL     1     -31.935 -16.633   1.814 -0.11 +0.00    +0.001 A  
DOCKED: ATOM     20  C   UNL     1     -31.866 -16.939   0.454 -0.12 +0.00    +0.029 A  
DOCKED: ATOM     21  C   UNL     1     -32.601 -16.195  -0.467 -0.15 +0.00    +0.140 A  
DOCKED: ATOM     22  C   UNL     1     -33.407 -15.144  -0.031 -0.21 +0.00    +0.029 A  
DOCKED: ATOM     23  F   UNL     1     -32.535 -16.491  -1.772 -0.06 -0.00    -0.204 F  
DOCKED: ATOM     24  C   UNL     1     -33.477 -14.836   1.329 -0.19 +0.00    +0.001 A  
DOCKED: ENDBRANCH   2  18
DOCKED: TORSDOF 5
DOCKED: TER
DOCKED: ENDMDL
________________________________________________________________________________


    FINAL DOCKED STATE:
    ________________________


Run:   159 / 512
Time taken for this run:   0.002s

DOCKED: MODEL        159
DOCKED: USER    Run = 159
DOCKED: USER
DOCKED: USER    Estimated Free Energy of Binding    =  -4.51 kcal/mol  [=(1)+(2)+(3)-(4)]
DOCKED: USER
DOCKED: USER    (1) Final Intermolecular Energy     =  -6.00 kcal/mol
DOCKED: USER        vdW + Hbond + desolv Energy     =  -6.00 kcal/mol
DOCKED: USER        Electrostatic Energy            =  +0.00 kcal/mol
DOCKED: USER        Moving Ligand-Fixed Receptor    =  -6.00 kcal/mol
DOCKED: USER        Moving Ligand-Moving Receptor   =  +0.00 kcal/mol
DOCKED: USER    (2) Final Total Internal Energy     =  -1.39 kcal/mol
DOCKED: USER    (3) Torsional Free Energy           =  +1.49 kcal/mol
DOCKED: USER    (4) Unbound System's Energy         =  -1.39 kcal/mol
DOCKED: USER
DOCKED: USER
DOCKED: REMARK  5 active torsions:
DOCKED: REMARK  status: ('A' for Active; 'I' for Inactive)
DOCKED: REMARK    1  A    between atoms: C_2  and  C_19 
DOCKED: REMARK    2  A    between atoms: C_2  and  C_11 
DOCKED: REMARK    3  A    between atoms: C_19  and  C_20 
DOCKED: REMARK    4  A    between atoms: C_20  and  C_21 
DOCKED: REMARK    5  A    between atoms: C_21  and  N_22 
DOCKED: USER                              x       y       z     vdW  Elec       q    Type
DOCKED: USER                           _______ _______ _______ _____ _____    ______ ____
DOCKED: ROOT
DOCKED: ATOM      1  O   UNL     1     -39.308 -13.418  10.390 -0.07 -0.00    -0.346 OA 
DOCKED: ATOM      2  C   UNL     1     -40.691 -13.637  10.815 -0.16 +0.00    +0.130 C  
DOCKED: ATOM      3  C   UNL     1     -40.972 -15.055  10.410 -0.22 +0.00    +0.004 A  
DOCKED: ATOM      4  C   UNL     1     -39.818 -15.631   9.899 -0.26 +0.00    +0.006 A  
DOCKED: ATOM      5  C   UNL     1     -38.706 -14.654   9.942 -0.19 +0.00    +0.169 C  
DOCKED: ATOM      6  C   UNL     1     -42.151 -15.780  10.497 -0.21 -0.00    -0.001 A  
DOCKED: ATOM      7  C   UNL     1     -39.802 -16.943   9.457 -0.32 +0.00    +0.008 A  
DOCKED: ATOM      8  C   UNL     1     -42.153 -17.103  10.051 -0.23 +0.00    +0.010 A  
DOCKED: ATOM      9  C   UNL     1     -40.984 -17.681   9.534 -0.24 +0.00    +0.068 A  
DOCKED: ATOM     10  N   UNL     1     -41.022 -20.140   8.718 -2.56 -0.00    -0.191 NA 
DOCKED: ATOM     11  C   UNL     1     -41.005 -19.037   9.083 -0.35 +0.00    +0.101 C  
DOCKED: ENDROOT
DOCKED: BRANCH   2  12
DOCKED: ATOM     12  C   UNL     1     -40.772 -13.423  12.322 -0.05 +0.00    +0.038 C  
DOCKED: BRANCH  12  13
DOCKED: ATOM     13  C   UNL     1     -40.695 -14.748  13.078 -0.04 +0.00    +0.038 C  
DOCKED: BRANCH  13  14
DOCKED: ATOM     14  C   UNL     1     -39.349 -14.899  13.785 -0.01 +0.00    +0.251 C  
DOCKED: BRANCH  14  15
DOCKED: ATOM     15  N   UNL     1     -38.872 -16.273  13.677 -0.03 +0.00    +0.141 N  
DOCKED: ATOM     16  C   UNL     1     -39.972 -17.177  13.339 -0.02 +0.00    +0.285 C  
DOCKED: ATOM     17  C   UNL     1     -37.808 -16.372  12.677 -0.05 +0.00    +0.285 C  
DOCKED: ENDBRANCH  14  15
DOCKED: ENDBRANCH  13  14
DOCKED: ENDBRANCH  12  13
DOCKED: ENDBRANCH   2  12
DOCKED: BRANCH   2  18
DOCKED: ATOM     18  C   UNL     1     -41.534 -12.645  10.085 -0.21 +0.00    +0.006 A  
DOCKED: ATOM     19  C   UNL     1     -40.935 -11.694   9.261 -0.16 +0.00    +0.001 A  
DOCKED: ATOM     20  C   UNL     1     -41.724 -10.767   8.578 -0.13 +0.00    +0.029 A  
DOCKED: ATOM     21  C   UNL     1     -43.111 -10.794   8.720 -0.08 +0.00    +0.140 A  
DOCKED: ATOM     22  C   UNL     1     -43.710 -11.746   9.545 -0.19 +0.00    +0.029 A  
DOCKED: ATOM     23  F   UNL     1     -43.869  -9.906   8.064 -0.03 -0.00    -0.204 F  
DOCKED: ATOM     24  C   UNL     1     -42.921 -12.673  10.228 -0.21 +0.00    +0.001 A  
DOCKED: ENDBRANCH   2  18
DOCKED: TORSDOF 5
DOCKED: TER
DOCKED: ENDMDL
________________________________________________________________________________


    FINAL DOCKED STATE:
    ________________________


Run:   160 / 512
Time taken for this run:   0.002s

DOCKED: MODEL        160
DOCKED: USER    Run = 160
DOCKED: USER
DOCKED: USER    Estimated Free Energy of Binding    =  -4.31 kcal/mol  [=(1)+(2)+(3)-(4)]
DOCKED: USER
DOCKED: USER    (1) Final Intermolecular Energy     =  -5.80 kcal/mol
DOCKED: USER        vdW + Hbond + desolv Energy     =  -5.80 kcal/mol
DOCKED: USER        Electrostatic Energy            =  +0.00 kcal/mol
DOCKED: USER        Moving Ligand-Fixed Receptor    =  -5.80 kcal/mol
DOCKED: USER        Moving Ligand-Moving Receptor   =  +0.00 kcal/mol
DOCKED: USER    (2) Final Total Internal Energy     =  -1.35 kcal/mol
DOCKED: USER    (3) Torsional Free Energy           =  +1.49 kcal/mol
DOCKED: USER    (4) Unbound System's Energy         =  -1.35 kcal/mol
DOCKED: USER
DOCKED: USER
DOCKED: REMARK  5 active torsions:
DOCKED: REMARK  status: ('A' for Active; 'I' for Inactive)
DOCKED: REMARK    1  A    between atoms: C_2  and  C_19 
DOCKED: REMARK    2  A    between atoms: C_2  and  C_11 
DOCKED: REMARK    3  A    between atoms: C_19  and  C_20 
DOCKED: REMARK    4  A    between atoms: C_20  and  C_21 
DOCKED: REMARK    5  A    between atoms: C_21  and  N_22 
DOCKED: USER                              x       y       z     vdW  Elec       q    Type
DOCKED: USER                           _______ _______ _______ _____ _____    ______ ____
DOCKED: ROOT
DOCKED: ATOM      1  O   UNL     1     -36.425 -15.880  11.984 -0.06 -0.00    -0.346 OA 
DOCKED: ATOM      2  C   UNL     1     -37.376 -15.103  11.188 -0.13 +0.00    +0.130 C  
DOCKED: ATOM      3  C   UNL     1     -38.221 -16.147  10.517 -0.22 +0.00    +0.004 A  
DOCKED: ATOM      4  C   UNL     1     -37.858 -17.406  10.974 -0.24 +0.00    +0.006 A  
DOCKED: ATOM      5  C   UNL     1     -36.773 -17.284  11.974 -0.17 +0.00    +0.169 C  
DOCKED: ATOM      6  C   UNL     1     -39.237 -15.994   9.585 -0.27 -0.00    -0.001 A  
DOCKED: ATOM      7  C   UNL     1     -38.491 -18.549  10.516 -0.34 +0.00    +0.008 A  
DOCKED: ATOM      8  C   UNL     1     -39.882 -17.138   9.110 -0.34 +0.00    +0.010 A  
DOCKED: ATOM      9  C   UNL     1     -39.510 -18.408   9.574 -0.32 +0.00    +0.068 A  
DOCKED: ATOM     10  N   UNL     1     -40.731 -20.510   8.676 -2.58 -0.00    -0.191 NA 
DOCKED: ATOM     11  C   UNL     1     -40.183 -19.567   9.078 -0.29 +0.00    +0.101 C  
DOCKED: ENDROOT
DOCKED: BRANCH   2  12
DOCKED: ATOM     12  C   UNL     1     -38.174 -14.208  12.128 -0.06 +0.00    +0.038 C  
DOCKED: BRANCH  12  13
DOCKED: ATOM     13  C   UNL     1     -39.212 -15.009  12.912 -0.04 +0.00    +0.038 C  
DOCKED: BRANCH  13  14
DOCKED: ATOM     14  C   UNL     1     -39.204 -14.621  14.390 -0.00 +0.00    +0.251 C  
DOCKED: BRANCH  14  15
DOCKED: ATOM     15  N   UNL     1     -38.571 -15.667  15.184 -0.01 +0.00    +0.141 N  
DOCKED: ATOM     16  C   UNL     1     -38.996 -16.991  14.728 -0.02 +0.00    +0.285 C  
DOCKED: ATOM     17  C   UNL     1     -37.113 -15.552  15.120 -0.01 +0.00    +0.285 C  
DOCKED: ENDBRANCH  14  15
DOCKED: ENDBRANCH  13  14
DOCKED: ENDBRANCH  12  13
DOCKED: ENDBRANCH   2  12
DOCKED: BRANCH   2  18
DOCKED: ATOM     18  C   UNL     1     -36.577 -14.293  10.223 -0.15 +0.00    +0.006 A  
DOCKED: ATOM     19  C   UNL     1     -35.196 -14.468  10.141 -0.10 +0.00    +0.001 A  
DOCKED: ATOM     20  C   UNL     1     -34.450 -13.710   9.238 -0.10 +0.00    +0.029 A  
DOCKED: ATOM     21  C   UNL     1     -35.085 -12.779   8.418 -0.08 +0.00    +0.140 A  
DOCKED: ATOM     22  C   UNL     1     -36.467 -12.604   8.500 -0.12 +0.00    +0.029 A  
DOCKED: ATOM     23  F   UNL     1     -34.369 -12.052   7.550 -0.00 -0.00    -0.204 F  
DOCKED: ATOM     24  C   UNL     1     -37.214 -13.362   9.403 -0.15 +0.00    +0.001 A  
DOCKED: ENDBRANCH   2  18
DOCKED: TORSDOF 5
DOCKED: TER
DOCKED: ENDMDL
________________________________________________________________________________


    FINAL DOCKED STATE:
    ________________________


Run:   161 / 512
Time taken for this run:   0.002s

DOCKED: MODEL        161
DOCKED: USER    Run = 161
DOCKED: USER
DOCKED: USER    Estimated Free Energy of Binding    =  -3.83 kcal/mol  [=(1)+(2)+(3)-(4)]
DOCKED: USER
DOCKED: USER    (1) Final Intermolecular Energy     =  -5.32 kcal/mol
DOCKED: USER        vdW + Hbond + desolv Energy     =  -5.32 kcal/mol
DOCKED: USER        Electrostatic Energy            =  +0.00 kcal/mol
DOCKED: USER        Moving Ligand-Fixed Receptor    =  -5.32 kcal/mol
DOCKED: USER        Moving Ligand-Moving Receptor   =  +0.00 kcal/mol
DOCKED: USER    (2) Final Total Internal Energy     =  -1.23 kcal/mol
DOCKED: USER    (3) Torsional Free Energy           =  +1.49 kcal/mol
DOCKED: USER    (4) Unbound System's Energy         =  -1.23 kcal/mol
DOCKED: USER
DOCKED: USER
DOCKED: REMARK  5 active torsions:
DOCKED: REMARK  status: ('A' for Active; 'I' for Inactive)
DOCKED: REMARK    1  A    between atoms: C_2  and  C_19 
DOCKED: REMARK    2  A    between atoms: C_2  and  C_11 
DOCKED: REMARK    3  A    between atoms: C_19  and  C_20 
DOCKED: REMARK    4  A    between atoms: C_20  and  C_21 
DOCKED: REMARK    5  A    between atoms: C_21  and  N_22 
DOCKED: USER                              x       y       z     vdW  Elec       q    Type
DOCKED: USER                           _______ _______ _______ _____ _____    ______ ____
DOCKED: ROOT
DOCKED: ATOM      1  O   UNL     1     -33.158 -14.494   4.230 +0.00 -0.00    -0.346 OA 
DOCKED: ATOM      2  C   UNL     1     -32.289 -15.402   3.480 -0.08 +0.00    +0.130 C  
DOCKED: ATOM      3  C   UNL     1     -32.411 -16.705   4.216 -0.13 +0.00    +0.004 A  
DOCKED: ATOM      4  C   UNL     1     -33.351 -16.583   5.229 -0.24 +0.00    +0.006 A  
DOCKED: ATOM      5  C   UNL     1     -33.918 -15.216   5.227 -0.17 +0.00    +0.169 C  
DOCKED: ATOM      6  C   UNL     1     -31.751 -17.906   3.999 -0.12 -0.00    -0.001 A  
DOCKED: ATOM      7  C   UNL     1     -33.660 -17.648   6.058 -0.27 +0.00    +0.008 A  
DOCKED: ATOM      8  C   UNL     1     -32.048 -18.988   4.829 -0.20 +0.00    +0.010 A  
DOCKED: ATOM      9  C   UNL     1     -32.998 -18.860   5.853 -0.30 +0.00    +0.068 A  
DOCKED: ATOM     10  N   UNL     1     -33.530 -20.890   7.373 -2.60 -0.00    -0.191 NA 
DOCKED: ATOM     11  C   UNL     1     -33.291 -19.979   6.691 -0.37 +0.00    +0.101 C  
DOCKED: ENDROOT
DOCKED: BRANCH   2  12
DOCKED: ATOM     12  C   UNL     1     -32.796 -15.481   2.045 -0.15 +0.00    +0.038 C  
DOCKED: BRANCH  12  13
DOCKED: ATOM     13  C   UNL     1     -34.026 -14.600   1.840 -0.16 +0.00    +0.038 C  
DOCKED: BRANCH  13  14
DOCKED: ATOM     14  C   UNL     1     -33.746 -13.491   0.827 -0.15 +0.00    +0.251 C  
DOCKED: BRANCH  14  15
DOCKED: ATOM     15  N   UNL     1     -34.017 -12.185   1.416 -0.10 +0.00    +0.141 N  
DOCKED: ATOM     16  C   UNL     1     -34.377 -11.217   0.379 -0.11 +0.00    +0.285 C  
DOCKED: ATOM     17  C   UNL     1     -35.085 -12.281   2.413 -0.13 +0.00    +0.285 C  
DOCKED: ENDBRANCH  14  15
DOCKED: ENDBRANCH  13  14
DOCKED: ENDBRANCH  12  13
DOCKED: ENDBRANCH   2  12
DOCKED: BRANCH   2  18
DOCKED: ATOM     18  C   UNL     1     -30.911 -14.831   3.534 -0.02 +0.00    +0.006 A  
DOCKED: ATOM     19  C   UNL     1     -29.938 -15.274   2.638 -0.01 +0.00    +0.001 A  
DOCKED: ATOM     20  C   UNL     1     -28.650 -14.739   2.690 -0.00 +0.00    +0.029 A  
DOCKED: ATOM     21  C   UNL     1     -28.338 -13.763   3.635 +0.00 +0.00    +0.140 A  
DOCKED: ATOM     22  C   UNL     1     -29.311 -13.321   4.530 +0.00 +0.00    +0.029 A  
DOCKED: ATOM     23  F   UNL     1     -27.102 -13.249   3.683 +0.00 -0.00    -0.204 F  
DOCKED: ATOM     24  C   UNL     1     -30.600 -13.856   4.480 -0.01 +0.00    +0.001 A  
DOCKED: ENDBRANCH   2  18
DOCKED: TORSDOF 5
DOCKED: TER
DOCKED: ENDMDL
________________________________________________________________________________


    FINAL DOCKED STATE:
    ________________________


Run:   162 / 512
Time taken for this run:   0.002s

DOCKED: MODEL        162
DOCKED: USER    Run = 162
DOCKED: USER
DOCKED: USER    Estimated Free Energy of Binding    =  -5.00 kcal/mol  [=(1)+(2)+(3)-(4)]
DOCKED: USER
DOCKED: USER    (1) Final Intermolecular Energy     =  -6.49 kcal/mol
DOCKED: USER        vdW + Hbond + desolv Energy     =  -6.49 kcal/mol
DOCKED: USER        Electrostatic Energy            =  +0.00 kcal/mol
DOCKED: USER        Moving Ligand-Fixed Receptor    =  -6.49 kcal/mol
DOCKED: USER        Moving Ligand-Moving Receptor   =  +0.00 kcal/mol
DOCKED: USER    (2) Final Total Internal Energy     =  -0.89 kcal/mol
DOCKED: USER    (3) Torsional Free Energy           =  +1.49 kcal/mol
DOCKED: USER    (4) Unbound System's Energy         =  -0.89 kcal/mol
DOCKED: USER
DOCKED: USER
DOCKED: REMARK  5 active torsions:
DOCKED: REMARK  status: ('A' for Active; 'I' for Inactive)
DOCKED: REMARK    1  A    between atoms: C_2  and  C_19 
DOCKED: REMARK    2  A    between atoms: C_2  and  C_11 
DOCKED: REMARK    3  A    between atoms: C_19  and  C_20 
DOCKED: REMARK    4  A    between atoms: C_20  and  C_21 
DOCKED: REMARK    5  A    between atoms: C_21  and  N_22 
DOCKED: USER                              x       y       z     vdW  Elec       q    Type
DOCKED: USER                           _______ _______ _______ _____ _____    ______ ____
DOCKED: ROOT
DOCKED: ATOM      1  O   UNL     1     -34.077 -10.071   3.124 -0.02 -0.00    -0.346 OA 
DOCKED: ATOM      2  C   UNL     1     -35.480 -10.213   3.518 -0.16 +0.00    +0.130 C  
DOCKED: ATOM      3  C   UNL     1     -36.231  -9.484   2.442 -0.27 +0.00    +0.004 A  
DOCKED: ATOM      4  C   UNL     1     -35.347  -9.058   1.461 -0.22 +0.00    +0.006 A  
DOCKED: ATOM      5  C   UNL     1     -33.971  -9.480   1.807 -0.09 +0.00    +0.169 C  
DOCKED: ATOM      6  C   UNL     1     -37.590  -9.228   2.334 -0.22 -0.00    -0.001 A  
DOCKED: ATOM      7  C   UNL     1     -35.786  -8.362   0.348 -0.28 +0.00    +0.008 A  
DOCKED: ATOM      8  C   UNL     1     -38.048  -8.523   1.219 -0.37 +0.00    +0.010 A  
DOCKED: ATOM      9  C   UNL     1     -37.150  -8.093   0.231 -0.30 +0.00    +0.068 A  
DOCKED: ATOM     10  N   UNL     1     -38.034  -6.792  -1.828 -2.45 -0.00    -0.191 NA 
DOCKED: ATOM     11  C   UNL     1     -37.637  -7.375  -0.904 -0.39 +0.00    +0.101 C  
DOCKED: ENDROOT
DOCKED: BRANCH   2  12
DOCKED: ATOM     12  C   UNL     1     -35.817 -11.699   3.574 -0.19 +0.00    +0.038 C  
DOCKED: BRANCH  12  13
DOCKED: ATOM     13  C   UNL     1     -36.147 -12.141   4.999 -0.17 +0.00    +0.038 C  
DOCKED: BRANCH  13  14
DOCKED: ATOM     14  C   UNL     1     -35.048 -13.040   5.563 -0.09 +0.00    +0.251 C  
DOCKED: BRANCH  14  15
DOCKED: ATOM     15  N   UNL     1     -34.417 -13.802   4.492 -0.11 +0.00    +0.141 N  
DOCKED: ATOM     16  C   UNL     1     -32.984 -13.959   4.746 -0.03 +0.00    +0.285 C  
DOCKED: ATOM     17  C   UNL     1     -35.053 -15.113   4.347 -0.22 +0.00    +0.285 C  
DOCKED: ENDBRANCH  14  15
DOCKED: ENDBRANCH  13  14
DOCKED: ENDBRANCH  12  13
DOCKED: ENDBRANCH   2  12
DOCKED: BRANCH   2  18
DOCKED: ATOM     18  C   UNL     1     -35.622  -9.577   4.860 -0.18 +0.00    +0.006 A  
DOCKED: ATOM     19  C   UNL     1     -34.490  -9.150   5.552 -0.13 +0.00    +0.001 A  
DOCKED: ATOM     20  C   UNL     1     -34.624  -8.556   6.808 -0.04 +0.00    +0.029 A  
DOCKED: ATOM     21  C   UNL     1     -35.890  -8.389   7.368 -0.11 +0.00    +0.140 A  
DOCKED: ATOM     22  C   UNL     1     -37.022  -8.816   6.675 -0.19 +0.00    +0.029 A  
DOCKED: ATOM     23  F   UNL     1     -36.019  -7.817   8.572 -0.04 -0.00    -0.204 F  
DOCKED: ATOM     24  C   UNL     1     -36.888  -9.411   5.419 -0.23 +0.00    +0.001 A  
DOCKED: ENDBRANCH   2  18
DOCKED: TORSDOF 5
DOCKED: TER
DOCKED: ENDMDL
________________________________________________________________________________


    FINAL DOCKED STATE:
    ________________________


Run:   163 / 512
Time taken for this run:   0.002s

DOCKED: MODEL        163
DOCKED: USER    Run = 163
DOCKED: USER
DOCKED: USER    Estimated Free Energy of Binding    =  -3.36 kcal/mol  [=(1)+(2)+(3)-(4)]
DOCKED: USER
DOCKED: USER    (1) Final Intermolecular Energy     =  -4.85 kcal/mol
DOCKED: USER        vdW + Hbond + desolv Energy     =  -4.85 kcal/mol
DOCKED: USER        Electrostatic Energy            =  +0.00 kcal/mol
DOCKED: USER        Moving Ligand-Fixed Receptor    =  -4.85 kcal/mol
DOCKED: USER        Moving Ligand-Moving Receptor   =  +0.00 kcal/mol
DOCKED: USER    (2) Final Total Internal Energy     =  -1.42 kcal/mol
DOCKED: USER    (3) Torsional Free Energy           =  +1.49 kcal/mol
DOCKED: USER    (4) Unbound System's Energy         =  -1.42 kcal/mol
DOCKED: USER
DOCKED: USER
DOCKED: REMARK  5 active torsions:
DOCKED: REMARK  status: ('A' for Active; 'I' for Inactive)
DOCKED: REMARK    1  A    between atoms: C_2  and  C_19 
DOCKED: REMARK    2  A    between atoms: C_2  and  C_11 
DOCKED: REMARK    3  A    between atoms: C_19  and  C_20 
DOCKED: REMARK    4  A    between atoms: C_20  and  C_21 
DOCKED: REMARK    5  A    between atoms: C_21  and  N_22 
DOCKED: USER                              x       y       z     vdW  Elec       q    Type
DOCKED: USER                           _______ _______ _______ _____ _____    ______ ____
DOCKED: ROOT
DOCKED: ATOM      1  O   UNL     1     -32.464  -5.393   1.051 -0.04 -0.00    -0.346 OA 
DOCKED: ATOM      2  C   UNL     1     -32.367  -5.729  -0.370 -0.09 +0.00    +0.130 C  
DOCKED: ATOM      3  C   UNL     1     -33.738  -6.234  -0.714 -0.17 +0.00    +0.004 A  
DOCKED: ATOM      4  C   UNL     1     -34.576  -6.095   0.383 -0.18 +0.00    +0.006 A  
DOCKED: ATOM      5  C   UNL     1     -33.833  -5.486   1.509 -0.20 +0.00    +0.169 C  
DOCKED: ATOM      6  C   UNL     1     -34.210  -6.762  -1.907 -0.21 -0.00    -0.001 A  
DOCKED: ATOM      7  C   UNL     1     -35.905  -6.481   0.329 -0.33 +0.00    +0.008 A  
DOCKED: ATOM      8  C   UNL     1     -35.546  -7.161  -1.976 -0.33 +0.00    +0.010 A  
DOCKED: ATOM      9  C   UNL     1     -36.389  -7.020  -0.864 -0.38 +0.00    +0.068 A  
DOCKED: ATOM     10  N   UNL     1     -38.865  -7.765  -1.028 -2.37 -0.00    -0.191 NA 
DOCKED: ATOM     11  C   UNL     1     -37.754  -7.431  -0.954 -0.30 +0.00    +0.101 C  
DOCKED: ENDROOT
DOCKED: BRANCH   2  12
DOCKED: ATOM     12  C   UNL     1     -31.988  -4.469  -1.139 -0.07 +0.00    +0.038 C  
DOCKED: BRANCH  12  13
DOCKED: ATOM     13  C   UNL     1     -31.348  -3.429  -0.222 -0.10 +0.00    +0.038 C  
DOCKED: BRANCH  13  14
DOCKED: ATOM     14  C   UNL     1     -29.965  -3.024  -0.730 -0.01 +0.00    +0.251 C  
DOCKED: BRANCH  14  15
DOCKED: ATOM     15  N   UNL     1     -28.937  -3.427   0.221 -0.01 +0.00    +0.141 N  
DOCKED: ATOM     16  C   UNL     1     -29.531  -4.147   1.349 +0.00 +0.00    +0.285 C  
DOCKED: ATOM     17  C   UNL     1     -27.924  -4.257  -0.434 +0.00 +0.00    +0.285 C  
DOCKED: ENDBRANCH  14  15
DOCKED: ENDBRANCH  13  14
DOCKED: ENDBRANCH  12  13
DOCKED: ENDBRANCH   2  12
DOCKED: BRANCH   2  18
DOCKED: ATOM     18  C   UNL     1     -31.312  -6.777  -0.499 -0.03 +0.00    +0.006 A  
DOCKED: ATOM     19  C   UNL     1     -30.298  -6.631  -1.445 -0.02 +0.00    +0.001 A  
DOCKED: ATOM     20  C   UNL     1     -29.313  -7.612  -1.566 -0.00 +0.00    +0.029 A  
DOCKED: ATOM     21  C   UNL     1     -29.343  -8.736  -0.741 -0.00 +0.00    +0.140 A  
DOCKED: ATOM     22  C   UNL     1     -30.357  -8.880   0.205 -0.00 +0.00    +0.029 A  
DOCKED: ATOM     23  F   UNL     1     -28.396  -9.676  -0.856 +0.00 -0.00    -0.204 F  
DOCKED: ATOM     24  C   UNL     1     -31.343  -7.900   0.326 -0.02 +0.00    +0.001 A  
DOCKED: ENDBRANCH   2  18
DOCKED: TORSDOF 5
DOCKED: TER
DOCKED: ENDMDL
________________________________________________________________________________


    FINAL DOCKED STATE:
    ________________________


Run:   164 / 512
Time taken for this run:   0.002s

DOCKED: MODEL        164
DOCKED: USER    Run = 164
DOCKED: USER
DOCKED: USER    Estimated Free Energy of Binding    =  -4.42 kcal/mol  [=(1)+(2)+(3)-(4)]
DOCKED: USER
DOCKED: USER    (1) Final Intermolecular Energy     =  -5.91 kcal/mol
DOCKED: USER        vdW + Hbond + desolv Energy     =  -5.91 kcal/mol
DOCKED: USER        Electrostatic Energy            =  +0.00 kcal/mol
DOCKED: USER        Moving Ligand-Fixed Receptor    =  -5.91 kcal/mol
DOCKED: USER        Moving Ligand-Moving Receptor   =  +0.00 kcal/mol
DOCKED: USER    (2) Final Total Internal Energy     =  -1.03 kcal/mol
DOCKED: USER    (3) Torsional Free Energy           =  +1.49 kcal/mol
DOCKED: USER    (4) Unbound System's Energy         =  -1.03 kcal/mol
DOCKED: USER
DOCKED: USER
DOCKED: REMARK  5 active torsions:
DOCKED: REMARK  status: ('A' for Active; 'I' for Inactive)
DOCKED: REMARK    1  A    between atoms: C_2  and  C_19 
DOCKED: REMARK    2  A    between atoms: C_2  and  C_11 
DOCKED: REMARK    3  A    between atoms: C_19  and  C_20 
DOCKED: REMARK    4  A    between atoms: C_20  and  C_21 
DOCKED: REMARK    5  A    between atoms: C_21  and  N_22 
DOCKED: USER                              x       y       z     vdW  Elec       q    Type
DOCKED: USER                           _______ _______ _______ _____ _____    ______ ____
DOCKED: ROOT
DOCKED: ATOM      1  O   UNL     1     -36.425 -15.976  12.121 -0.06 -0.00    -0.346 OA 
DOCKED: ATOM      2  C   UNL     1     -37.410 -15.177  11.389 -0.12 +0.00    +0.130 C  
DOCKED: ATOM      3  C   UNL     1     -38.240 -16.200  10.670 -0.22 +0.00    +0.004 A  
DOCKED: ATOM      4  C   UNL     1     -37.838 -17.475  11.044 -0.25 +0.00    +0.006 A  
DOCKED: ATOM      5  C   UNL     1     -36.738 -17.385  12.031 -0.17 +0.00    +0.169 C  
DOCKED: ATOM      6  C   UNL     1     -39.276 -16.018   9.766 -0.28 -0.00    -0.001 A  
DOCKED: ATOM      7  C   UNL     1     -38.450 -18.604  10.527 -0.35 +0.00    +0.008 A  
DOCKED: ATOM      8  C   UNL     1     -39.901 -17.147   9.233 -0.34 +0.00    +0.010 A  
DOCKED: ATOM      9  C   UNL     1     -39.490 -18.433   9.612 -0.32 +0.00    +0.068 A  
DOCKED: ATOM     10  N   UNL     1     -40.673 -20.508   8.608 -2.55 -0.00    -0.191 NA 
DOCKED: ATOM     11  C   UNL     1     -40.142 -19.577   9.058 -0.29 +0.00    +0.101 C  
DOCKED: ENDROOT
DOCKED: BRANCH   2  12
DOCKED: ATOM     12  C   UNL     1     -38.213 -14.361  12.395 -0.05 +0.00    +0.038 C  
DOCKED: BRANCH  12  13
DOCKED: ATOM     13  C   UNL     1     -38.643 -13.019  11.807 -0.05 +0.00    +0.038 C  
DOCKED: BRANCH  13  14
DOCKED: ATOM     14  C   UNL     1     -39.960 -13.150  11.044 -0.09 +0.00    +0.251 C  
DOCKED: BRANCH  14  15
DOCKED: ATOM     15  N   UNL     1     -40.553 -11.836  10.827 -0.07 +0.00    +0.141 N  
DOCKED: ATOM     16  C   UNL     1     -39.878 -10.824  11.640 -0.01 +0.00    +0.285 C  
DOCKED: ATOM     17  C   UNL     1     -40.494 -11.471   9.411 -0.12 +0.00    +0.285 C  
DOCKED: ENDBRANCH  14  15
DOCKED: ENDBRANCH  13  14
DOCKED: ENDBRANCH  12  13
DOCKED: ENDBRANCH   2  12
DOCKED: BRANCH   2  18
DOCKED: ATOM     18  C   UNL     1     -36.649 -14.289  10.462 -0.14 +0.00    +0.006 A  
DOCKED: ATOM     19  C   UNL     1     -35.468 -13.683  10.889 -0.08 +0.00    +0.001 A  
DOCKED: ATOM     20  C   UNL     1     -34.758 -12.853  10.021 -0.05 +0.00    +0.029 A  
DOCKED: ATOM     21  C   UNL     1     -35.228 -12.631   8.728 -0.07 +0.00    +0.140 A  
DOCKED: ATOM     22  C   UNL     1     -36.409 -13.238   8.300 -0.12 +0.00    +0.029 A  
DOCKED: ATOM     23  F   UNL     1     -34.545 -11.836   7.894 -0.00 -0.00    -0.204 F  
DOCKED: ATOM     24  C   UNL     1     -37.120 -14.068   9.168 -0.12 +0.00    +0.001 A  
DOCKED: ENDBRANCH   2  18
DOCKED: TORSDOF 5
DOCKED: TER
DOCKED: ENDMDL
________________________________________________________________________________


    FINAL DOCKED STATE:
    ________________________


Run:   165 / 512
Time taken for this run:   0.002s

DOCKED: MODEL        165
DOCKED: USER    Run = 165
DOCKED: USER
DOCKED: USER    Estimated Free Energy of Binding    =  -3.78 kcal/mol  [=(1)+(2)+(3)-(4)]
DOCKED: USER
DOCKED: USER    (1) Final Intermolecular Energy     =  -5.27 kcal/mol
DOCKED: USER        vdW + Hbond + desolv Energy     =  -5.27 kcal/mol
DOCKED: USER        Electrostatic Energy            =  +0.00 kcal/mol
DOCKED: USER        Moving Ligand-Fixed Receptor    =  -5.27 kcal/mol
DOCKED: USER        Moving Ligand-Moving Receptor   =  +0.00 kcal/mol
DOCKED: USER    (2) Final Total Internal Energy     =  -1.33 kcal/mol
DOCKED: USER    (3) Torsional Free Energy           =  +1.49 kcal/mol
DOCKED: USER    (4) Unbound System's Energy         =  -1.33 kcal/mol
DOCKED: USER
DOCKED: USER
DOCKED: REMARK  5 active torsions:
DOCKED: REMARK  status: ('A' for Active; 'I' for Inactive)
DOCKED: REMARK    1  A    between atoms: C_2  and  C_19 
DOCKED: REMARK    2  A    between atoms: C_2  and  C_11 
DOCKED: REMARK    3  A    between atoms: C_19  and  C_20 
DOCKED: REMARK    4  A    between atoms: C_20  and  C_21 
DOCKED: REMARK    5  A    between atoms: C_21  and  N_22 
DOCKED: USER                              x       y       z     vdW  Elec       q    Type
DOCKED: USER                           _______ _______ _______ _____ _____    ______ ____
DOCKED: ROOT
DOCKED: ATOM      1  O   UNL     1     -32.579  -4.969   1.931 -0.04 -0.00    -0.346 OA 
DOCKED: ATOM      2  C   UNL     1     -32.210  -5.217   0.537 -0.08 +0.00    +0.130 C  
DOCKED: ATOM      3  C   UNL     1     -33.476  -5.735  -0.083 -0.11 +0.00    +0.004 A  
DOCKED: ATOM      4  C   UNL     1     -34.506  -5.683   0.846 -0.20 +0.00    +0.006 A  
DOCKED: ATOM      5  C   UNL     1     -34.004  -5.123   2.121 -0.17 +0.00    +0.169 C  
DOCKED: ATOM      6  C   UNL     1     -33.701  -6.204  -1.369 -0.18 -0.00    -0.001 A  
DOCKED: ATOM      7  C   UNL     1     -35.787  -6.099   0.526 -0.24 +0.00    +0.008 A  
DOCKED: ATOM      8  C   UNL     1     -34.986  -6.631  -1.706 -0.29 +0.00    +0.010 A  
DOCKED: ATOM      9  C   UNL     1     -36.024  -6.578  -0.763 -0.35 +0.00    +0.068 A  
DOCKED: ATOM     10  N   UNL     1     -38.400  -7.375  -1.423 -2.50 -0.00    -0.191 NA 
DOCKED: ATOM     11  C   UNL     1     -37.334  -7.018  -1.127 -0.42 +0.00    +0.101 C  
DOCKED: ENDROOT
DOCKED: BRANCH   2  12
DOCKED: ATOM     12  C   UNL     1     -31.742  -3.904  -0.080 -0.12 +0.00    +0.038 C  
DOCKED: BRANCH  12  13
DOCKED: ATOM     13  C   UNL     1     -32.878  -2.886  -0.151 -0.16 +0.00    +0.038 C  
DOCKED: BRANCH  13  14
DOCKED: ATOM     14  C   UNL     1     -32.705  -1.795   0.904 -0.08 +0.00    +0.251 C  
DOCKED: BRANCH  14  15
DOCKED: ATOM     15  N   UNL     1     -33.574  -2.052   2.046 -0.11 +0.00    +0.141 N  
DOCKED: ATOM     16  C   UNL     1     -32.788  -2.187   3.273 -0.05 +0.00    +0.285 C  
DOCKED: ATOM     17  C   UNL     1     -34.563  -0.983   2.192 -0.08 +0.00    +0.285 C  
DOCKED: ENDBRANCH  14  15
DOCKED: ENDBRANCH  13  14
DOCKED: ENDBRANCH  12  13
DOCKED: ENDBRANCH   2  12
DOCKED: BRANCH   2  18
DOCKED: ATOM     18  C   UNL     1     -31.113  -6.228   0.549 -0.03 +0.00    +0.006 A  
DOCKED: ATOM     19  C   UNL     1     -31.219  -7.362   1.353 -0.03 +0.00    +0.001 A  
DOCKED: ATOM     20  C   UNL     1     -30.192  -8.306   1.364 -0.01 +0.00    +0.029 A  
DOCKED: ATOM     21  C   UNL     1     -29.061  -8.116   0.571 -0.00 +0.00    +0.140 A  
DOCKED: ATOM     22  C   UNL     1     -28.956  -6.982  -0.234 -0.00 +0.00    +0.029 A  
DOCKED: ATOM     23  F   UNL     1     -28.077  -9.024   0.580 +0.00 -0.00    -0.204 F  
DOCKED: ATOM     24  C   UNL     1     -29.983  -6.036  -0.245 -0.01 +0.00    +0.001 A  
DOCKED: ENDBRANCH   2  18
DOCKED: TORSDOF 5
DOCKED: TER
DOCKED: ENDMDL
________________________________________________________________________________


    FINAL DOCKED STATE:
    ________________________


Run:   166 / 512
Time taken for this run:   0.002s

DOCKED: MODEL        166
DOCKED: USER    Run = 166
DOCKED: USER
DOCKED: USER    Estimated Free Energy of Binding    =  -3.68 kcal/mol  [=(1)+(2)+(3)-(4)]
DOCKED: USER
DOCKED: USER    (1) Final Intermolecular Energy     =  -5.17 kcal/mol
DOCKED: USER        vdW + Hbond + desolv Energy     =  -5.17 kcal/mol
DOCKED: USER        Electrostatic Energy            =  +0.00 kcal/mol
DOCKED: USER        Moving Ligand-Fixed Receptor    =  -5.17 kcal/mol
DOCKED: USER        Moving Ligand-Moving Receptor   =  +0.00 kcal/mol
DOCKED: USER    (2) Final Total Internal Energy     =  -1.28 kcal/mol
DOCKED: USER    (3) Torsional Free Energy           =  +1.49 kcal/mol
DOCKED: USER    (4) Unbound System's Energy         =  -1.28 kcal/mol
DOCKED: USER
DOCKED: USER
DOCKED: REMARK  5 active torsions:
DOCKED: REMARK  status: ('A' for Active; 'I' for Inactive)
DOCKED: REMARK    1  A    between atoms: C_2  and  C_19 
DOCKED: REMARK    2  A    between atoms: C_2  and  C_11 
DOCKED: REMARK    3  A    between atoms: C_19  and  C_20 
DOCKED: REMARK    4  A    between atoms: C_20  and  C_21 
DOCKED: REMARK    5  A    between atoms: C_21  and  N_22 
DOCKED: USER                              x       y       z     vdW  Elec       q    Type
DOCKED: USER                           _______ _______ _______ _____ _____    ______ ____
DOCKED: ROOT
DOCKED: ATOM      1  O   UNL     1     -33.013  -5.050   2.685 -0.09 -0.00    -0.346 OA 
DOCKED: ATOM      2  C   UNL     1     -32.541  -6.306   2.101 -0.12 +0.00    +0.130 C  
DOCKED: ATOM      3  C   UNL     1     -33.664  -6.728   1.199 -0.17 +0.00    +0.004 A  
DOCKED: ATOM      4  C   UNL     1     -34.645  -5.746   1.183 -0.25 +0.00    +0.006 A  
DOCKED: ATOM      5  C   UNL     1     -34.239  -4.617   2.050 -0.23 +0.00    +0.169 C  
DOCKED: ATOM      6  C   UNL     1     -33.802  -7.883   0.444 -0.11 -0.00    -0.001 A  
DOCKED: ATOM      7  C   UNL     1     -35.792  -5.885   0.421 -0.16 +0.00    +0.008 A  
DOCKED: ATOM      8  C   UNL     1     -34.956  -8.041  -0.327 -0.21 +0.00    +0.010 A  
DOCKED: ATOM      9  C   UNL     1     -35.945  -7.046  -0.338 -0.33 +0.00    +0.068 A  
DOCKED: ATOM     10  N   UNL     1     -38.072  -7.368  -1.783 -2.28 -0.00    -0.191 NA 
DOCKED: ATOM     11  C   UNL     1     -37.118  -7.224  -1.135 -0.43 +0.00    +0.101 C  
DOCKED: ENDROOT
DOCKED: BRANCH   2  12
DOCKED: ATOM     12  C   UNL     1     -31.246  -6.030   1.346 -0.05 +0.00    +0.038 C  
DOCKED: BRANCH  12  13
DOCKED: ATOM     13  C   UNL     1     -30.785  -4.586   1.540 -0.04 +0.00    +0.038 C  
DOCKED: BRANCH  13  14
DOCKED: ATOM     14  C   UNL     1     -31.273  -3.695   0.400 -0.03 +0.00    +0.251 C  
DOCKED: BRANCH  14  15
DOCKED: ATOM     15  N   UNL     1     -32.117  -2.625   0.917 -0.07 +0.00    +0.141 N  
DOCKED: ATOM     16  C   UNL     1     -31.322  -1.666   1.685 -0.01 +0.00    +0.285 C  
DOCKED: ATOM     17  C   UNL     1     -32.817  -1.947  -0.174 -0.08 +0.00    +0.285 C  
DOCKED: ENDBRANCH  14  15
DOCKED: ENDBRANCH  13  14
DOCKED: ENDBRANCH  12  13
DOCKED: ENDBRANCH   2  12
DOCKED: BRANCH   2  18
DOCKED: ATOM     18  C   UNL     1     -32.314  -7.254   3.230 -0.12 +0.00    +0.006 A  
DOCKED: ATOM     19  C   UNL     1     -31.089  -7.263   3.897 -0.06 +0.00    +0.001 A  
DOCKED: ATOM     20  C   UNL     1     -30.878  -8.151   4.952 -0.04 +0.00    +0.029 A  
DOCKED: ATOM     21  C   UNL     1     -31.891  -9.027   5.340 -0.05 +0.00    +0.140 A  
DOCKED: ATOM     22  C   UNL     1     -33.115  -9.017   4.673 -0.11 +0.00    +0.029 A  
DOCKED: ATOM     23  F   UNL     1     -31.688  -9.878   6.355 -0.00 -0.00    -0.204 F  
DOCKED: ATOM     24  C   UNL     1     -33.327  -8.130   3.616 -0.13 +0.00    +0.001 A  
DOCKED: ENDBRANCH   2  18
DOCKED: TORSDOF 5
DOCKED: TER
DOCKED: ENDMDL
________________________________________________________________________________


    FINAL DOCKED STATE:
    ________________________


Run:   167 / 512
Time taken for this run:   0.002s

DOCKED: MODEL        167
DOCKED: USER    Run = 167
DOCKED: USER
DOCKED: USER    Estimated Free Energy of Binding    =  -3.49 kcal/mol  [=(1)+(2)+(3)-(4)]
DOCKED: USER
DOCKED: USER    (1) Final Intermolecular Energy     =  -4.98 kcal/mol
DOCKED: USER        vdW + Hbond + desolv Energy     =  -4.98 kcal/mol
DOCKED: USER        Electrostatic Energy            =  +0.00 kcal/mol
DOCKED: USER        Moving Ligand-Fixed Receptor    =  -4.98 kcal/mol
DOCKED: USER        Moving Ligand-Moving Receptor   =  +0.00 kcal/mol
DOCKED: USER    (2) Final Total Internal Energy     =  -1.08 kcal/mol
DOCKED: USER    (3) Torsional Free Energy           =  +1.49 kcal/mol
DOCKED: USER    (4) Unbound System's Energy         =  -1.08 kcal/mol
DOCKED: USER
DOCKED: USER
DOCKED: REMARK  5 active torsions:
DOCKED: REMARK  status: ('A' for Active; 'I' for Inactive)
DOCKED: REMARK    1  A    between atoms: C_2  and  C_19 
DOCKED: REMARK    2  A    between atoms: C_2  and  C_11 
DOCKED: REMARK    3  A    between atoms: C_19  and  C_20 
DOCKED: REMARK    4  A    between atoms: C_20  and  C_21 
DOCKED: REMARK    5  A    between atoms: C_21  and  N_22 
DOCKED: USER                              x       y       z     vdW  Elec       q    Type
DOCKED: USER                           _______ _______ _______ _____ _____    ______ ____
DOCKED: ROOT
DOCKED: ATOM      1  O   UNL     1     -40.658 -15.727  12.207 -0.00 -0.00    -0.346 OA 
DOCKED: ATOM      2  C   UNL     1     -39.965 -16.976  12.529 -0.07 +0.00    +0.130 C  
DOCKED: ATOM      3  C   UNL     1     -39.872 -17.685  11.209 -0.18 +0.00    +0.004 A  
DOCKED: ATOM      4  C   UNL     1     -40.367 -16.867  10.203 -0.24 +0.00    +0.006 A  
DOCKED: ATOM      5  C   UNL     1     -40.803 -15.575  10.776 -0.16 +0.00    +0.169 C  
DOCKED: ATOM      6  C   UNL     1     -39.378 -18.949  10.920 -0.31 -0.00    -0.001 A  
DOCKED: ATOM      7  C   UNL     1     -40.389 -17.282   8.882 -0.27 +0.00    +0.008 A  
DOCKED: ATOM      8  C   UNL     1     -39.397 -19.384   9.593 -0.36 +0.00    +0.010 A  
DOCKED: ATOM      9  C   UNL     1     -39.900 -18.554   8.580 -0.38 +0.00    +0.068 A  
DOCKED: ATOM     10  N   UNL     1     -39.917 -19.390   6.127 -1.59 -0.00    -0.191 NA 
DOCKED: ATOM     11  C   UNL     1     -39.910 -19.015   7.228 -0.49 +0.00    +0.101 C  
DOCKED: ENDROOT
DOCKED: BRANCH   2  12
DOCKED: ATOM     12  C   UNL     1     -38.602 -16.634  13.117 -0.08 +0.00    +0.038 C  
DOCKED: BRANCH  12  13
DOCKED: ATOM     13  C   UNL     1     -38.585 -16.824  14.632 -0.05 +0.00    +0.038 C  
DOCKED: BRANCH  13  14
DOCKED: ATOM     14  C   UNL     1     -37.705 -18.009  15.028 -0.07 +0.00    +0.251 C  
DOCKED: BRANCH  14  15
DOCKED: ATOM     15  N   UNL     1     -38.524 -19.101  15.538 -0.12 +0.00    +0.141 N  
DOCKED: ATOM     16  C   UNL     1     -38.180 -20.359  14.872 -0.06 +0.00    +0.285 C  
DOCKED: ATOM     17  C   UNL     1     -38.363 -19.234  16.987 -0.05 +0.00    +0.285 C  
DOCKED: ENDBRANCH  14  15
DOCKED: ENDBRANCH  13  14
DOCKED: ENDBRANCH  12  13
DOCKED: ENDBRANCH   2  12
DOCKED: BRANCH   2  18
DOCKED: ATOM     18  C   UNL     1     -40.813 -17.702  13.520 -0.08 +0.00    +0.006 A  
DOCKED: ATOM     19  C   UNL     1     -41.509 -16.989  14.495 -0.03 +0.00    +0.001 A  
DOCKED: ATOM     20  C   UNL     1     -42.301 -17.669  15.421 -0.04 +0.00    +0.029 A  
DOCKED: ATOM     21  C   UNL     1     -42.395 -19.058  15.371 -0.07 +0.00    +0.140 A  
DOCKED: ATOM     22  C   UNL     1     -41.698 -19.771  14.396 -0.11 +0.00    +0.029 A  
DOCKED: ATOM     23  F   UNL     1     -43.157 -19.710  16.260 -0.01 -0.00    -0.204 F  
DOCKED: ATOM     24  C   UNL     1     -40.906 -19.092  13.469 -0.17 +0.00    +0.001 A  
DOCKED: ENDBRANCH   2  18
DOCKED: TORSDOF 5
DOCKED: TER
DOCKED: ENDMDL
________________________________________________________________________________


    FINAL DOCKED STATE:
    ________________________


Run:   168 / 512
Time taken for this run:   0.002s

DOCKED: MODEL        168
DOCKED: USER    Run = 168
DOCKED: USER
DOCKED: USER    Estimated Free Energy of Binding    =  -5.18 kcal/mol  [=(1)+(2)+(3)-(4)]
DOCKED: USER
DOCKED: USER    (1) Final Intermolecular Energy     =  -6.68 kcal/mol
DOCKED: USER        vdW + Hbond + desolv Energy     =  -6.68 kcal/mol
DOCKED: USER        Electrostatic Energy            =  +0.00 kcal/mol
DOCKED: USER        Moving Ligand-Fixed Receptor    =  -6.68 kcal/mol
DOCKED: USER        Moving Ligand-Moving Receptor   =  +0.00 kcal/mol
DOCKED: USER    (2) Final Total Internal Energy     =  -1.21 kcal/mol
DOCKED: USER    (3) Torsional Free Energy           =  +1.49 kcal/mol
DOCKED: USER    (4) Unbound System's Energy         =  -1.21 kcal/mol
DOCKED: USER
DOCKED: USER
DOCKED: REMARK  5 active torsions:
DOCKED: REMARK  status: ('A' for Active; 'I' for Inactive)
DOCKED: REMARK    1  A    between atoms: C_2  and  C_19 
DOCKED: REMARK    2  A    between atoms: C_2  and  C_11 
DOCKED: REMARK    3  A    between atoms: C_19  and  C_20 
DOCKED: REMARK    4  A    between atoms: C_20  and  C_21 
DOCKED: REMARK    5  A    between atoms: C_21  and  N_22 
DOCKED: USER                              x       y       z     vdW  Elec       q    Type
DOCKED: USER                           _______ _______ _______ _____ _____    ______ ____
DOCKED: ROOT
DOCKED: ATOM      1  O   UNL     1     -39.450 -16.174  11.068 -0.05 -0.00    -0.346 OA 
DOCKED: ATOM      2  C   UNL     1     -38.803 -17.487  11.059 -0.22 +0.00    +0.130 C  
DOCKED: ATOM      3  C   UNL     1     -39.282 -18.115   9.783 -0.35 +0.00    +0.004 A  
DOCKED: ATOM      4  C   UNL     1     -40.046 -17.202   9.071 -0.34 +0.00    +0.006 A  
DOCKED: ATOM      5  C   UNL     1     -40.115 -15.921   9.808 -0.22 +0.00    +0.169 C  
DOCKED: ATOM      6  C   UNL     1     -39.051 -19.390   9.286 -0.42 -0.00    -0.001 A  
DOCKED: ATOM      7  C   UNL     1     -40.606 -17.529   7.847 +0.16 +0.00    +0.008 A  
DOCKED: ATOM      8  C   UNL     1     -39.612 -19.737   8.056 -0.45 +0.00    +0.010 A  
DOCKED: ATOM      9  C   UNL     1     -40.385 -18.810   7.340 -0.45 +0.00    +0.068 A  
DOCKED: ATOM     10  N   UNL     1     -41.408 -19.485   5.057 -2.65 -0.00    -0.191 NA 
DOCKED: ATOM     11  C   UNL     1     -40.950 -19.182   6.081 -0.34 +0.00    +0.101 C  
DOCKED: ENDROOT
DOCKED: BRANCH   2  12
DOCKED: ATOM     12  C   UNL     1     -37.293 -17.281  11.089 -0.18 +0.00    +0.038 C  
DOCKED: BRANCH  12  13
DOCKED: ATOM     13  C   UNL     1     -36.838 -16.687  12.421 -0.16 +0.00    +0.038 C  
DOCKED: BRANCH  13  14
DOCKED: ATOM     14  C   UNL     1     -37.146 -15.193  12.490 -0.04 +0.00    +0.251 C  
DOCKED: BRANCH  14  15
DOCKED: ATOM     15  N   UNL     1     -36.130 -14.432  11.771 -0.06 +0.00    +0.141 N  
DOCKED: ATOM     16  C   UNL     1     -34.877 -15.185  11.699 -0.06 +0.00    +0.285 C  
DOCKED: ATOM     17  C   UNL     1     -36.597 -14.093  10.426 -0.10 +0.00    +0.285 C  
DOCKED: ENDBRANCH  14  15
DOCKED: ENDBRANCH  13  14
DOCKED: ENDBRANCH  12  13
DOCKED: ENDBRANCH   2  12
DOCKED: BRANCH   2  18
DOCKED: ATOM     18  C   UNL     1     -39.272 -18.212  12.276 -0.17 +0.00    +0.006 A  
DOCKED: ATOM     19  C   UNL     1     -38.718 -19.449  12.607 -0.16 +0.00    +0.001 A  
DOCKED: ATOM     20  C   UNL     1     -39.157 -20.126  13.745 -0.12 +0.00    +0.029 A  
DOCKED: ATOM     21  C   UNL     1     -40.148 -19.567  14.550 -0.09 +0.00    +0.140 A  
DOCKED: ATOM     22  C   UNL     1     -40.701 -18.330  14.219 -0.10 +0.00    +0.029 A  
DOCKED: ATOM     23  F   UNL     1     -40.568 -20.217  15.644 -0.04 -0.00    -0.204 F  
DOCKED: ATOM     24  C   UNL     1     -40.263 -17.652  13.081 -0.09 +0.00    +0.001 A  
DOCKED: ENDBRANCH   2  18
DOCKED: TORSDOF 5
DOCKED: TER
DOCKED: ENDMDL
________________________________________________________________________________


    FINAL DOCKED STATE:
    ________________________


Run:   169 / 512
Time taken for this run:   0.002s

DOCKED: MODEL        169
DOCKED: USER    Run = 169
DOCKED: USER
DOCKED: USER    Estimated Free Energy of Binding    =  -3.72 kcal/mol  [=(1)+(2)+(3)-(4)]
DOCKED: USER
DOCKED: USER    (1) Final Intermolecular Energy     =  -5.21 kcal/mol
DOCKED: USER        vdW + Hbond + desolv Energy     =  -5.21 kcal/mol
DOCKED: USER        Electrostatic Energy            =  +0.00 kcal/mol
DOCKED: USER        Moving Ligand-Fixed Receptor    =  -5.21 kcal/mol
DOCKED: USER        Moving Ligand-Moving Receptor   =  +0.00 kcal/mol
DOCKED: USER    (2) Final Total Internal Energy     =  -1.07 kcal/mol
DOCKED: USER    (3) Torsional Free Energy           =  +1.49 kcal/mol
DOCKED: USER    (4) Unbound System's Energy         =  -1.07 kcal/mol
DOCKED: USER
DOCKED: USER
DOCKED: REMARK  5 active torsions:
DOCKED: REMARK  status: ('A' for Active; 'I' for Inactive)
DOCKED: REMARK    1  A    between atoms: C_2  and  C_19 
DOCKED: REMARK    2  A    between atoms: C_2  and  C_11 
DOCKED: REMARK    3  A    between atoms: C_19  and  C_20 
DOCKED: REMARK    4  A    between atoms: C_20  and  C_21 
DOCKED: REMARK    5  A    between atoms: C_21  and  N_22 
DOCKED: USER                              x       y       z     vdW  Elec       q    Type
DOCKED: USER                           _______ _______ _______ _____ _____    ______ ____
DOCKED: ROOT
DOCKED: ATOM      1  O   UNL     1     -40.055 -14.840  13.132 +0.00 -0.00    -0.346 OA 
DOCKED: ATOM      2  C   UNL     1     -39.296 -14.533  11.918 -0.06 +0.00    +0.130 C  
DOCKED: ATOM      3  C   UNL     1     -39.481 -15.751  11.061 -0.16 +0.00    +0.004 A  
DOCKED: ATOM      4  C   UNL     1     -40.358 -16.630  11.681 -0.11 +0.00    +0.006 A  
DOCKED: ATOM      5  C   UNL     1     -40.818 -16.057  12.966 -0.03 +0.00    +0.169 C  
DOCKED: ATOM      6  C   UNL     1     -38.927 -16.053   9.825 -0.28 -0.00    -0.001 A  
DOCKED: ATOM      7  C   UNL     1     -40.707 -17.834  11.094 -0.17 +0.00    +0.008 A  
DOCKED: ATOM      8  C   UNL     1     -39.265 -17.265   9.223 -0.32 +0.00    +0.010 A  
DOCKED: ATOM      9  C   UNL     1     -40.151 -18.151   9.854 -0.26 +0.00    +0.068 A  
DOCKED: ATOM     10  N   UNL     1     -40.761 -20.392   8.705 -2.54 -0.00    -0.191 NA 
DOCKED: ATOM     11  C   UNL     1     -40.487 -19.387   9.221 -0.35 +0.00    +0.101 C  
DOCKED: ENDROOT
DOCKED: BRANCH   2  12
DOCKED: ATOM     12  C   UNL     1     -39.877 -13.271  11.291 -0.10 +0.00    +0.038 C  
DOCKED: BRANCH  12  13
DOCKED: ATOM     13  C   UNL     1     -41.011 -13.603  10.323 -0.23 +0.00    +0.038 C  
DOCKED: BRANCH  13  14
DOCKED: ATOM     14  C   UNL     1     -41.427 -12.370   9.522 -0.11 +0.00    +0.251 C  
DOCKED: BRANCH  14  15
DOCKED: ATOM     15  N   UNL     1     -40.432 -11.314   9.664 -0.12 +0.00    +0.141 N  
DOCKED: ATOM     16  C   UNL     1     -39.893 -10.935   8.357 -0.10 +0.00    +0.285 C  
DOCKED: ATOM     17  C   UNL     1     -41.011 -10.147  10.332 -0.03 +0.00    +0.285 C  
DOCKED: ENDBRANCH  14  15
DOCKED: ENDBRANCH  13  14
DOCKED: ENDBRANCH  12  13
DOCKED: ENDBRANCH   2  12
DOCKED: BRANCH   2  18
DOCKED: ATOM     18  C   UNL     1     -37.877 -14.324  12.333 -0.05 +0.00    +0.006 A  
DOCKED: ATOM     19  C   UNL     1     -37.411 -13.036  12.596 -0.02 +0.00    +0.001 A  
DOCKED: ATOM     20  C   UNL     1     -36.084 -12.842  12.982 -0.01 +0.00    +0.029 A  
DOCKED: ATOM     21  C   UNL     1     -35.227 -13.934  13.106 -0.01 +0.00    +0.140 A  
DOCKED: ATOM     22  C   UNL     1     -35.694 -15.222  12.843 -0.05 +0.00    +0.029 A  
DOCKED: ATOM     23  F   UNL     1     -33.954 -13.748  13.479 +0.00 -0.00    -0.204 F  
DOCKED: ATOM     24  C   UNL     1     -37.021 -15.417  12.456 -0.08 +0.00    +0.001 A  
DOCKED: ENDBRANCH   2  18
DOCKED: TORSDOF 5
DOCKED: TER
DOCKED: ENDMDL
________________________________________________________________________________


    FINAL DOCKED STATE:
    ________________________


Run:   170 / 512
Time taken for this run:   0.002s

DOCKED: MODEL        170
DOCKED: USER    Run = 170
DOCKED: USER
DOCKED: USER    Estimated Free Energy of Binding    =  -3.56 kcal/mol  [=(1)+(2)+(3)-(4)]
DOCKED: USER
DOCKED: USER    (1) Final Intermolecular Energy     =  -5.05 kcal/mol
DOCKED: USER        vdW + Hbond + desolv Energy     =  -5.05 kcal/mol
DOCKED: USER        Electrostatic Energy            =  +0.00 kcal/mol
DOCKED: USER        Moving Ligand-Fixed Receptor    =  -5.05 kcal/mol
DOCKED: USER        Moving Ligand-Moving Receptor   =  +0.00 kcal/mol
DOCKED: USER    (2) Final Total Internal Energy     =  -1.50 kcal/mol
DOCKED: USER    (3) Torsional Free Energy           =  +1.49 kcal/mol
DOCKED: USER    (4) Unbound System's Energy         =  -1.50 kcal/mol
DOCKED: USER
DOCKED: USER
DOCKED: REMARK  5 active torsions:
DOCKED: REMARK  status: ('A' for Active; 'I' for Inactive)
DOCKED: REMARK    1  A    between atoms: C_2  and  C_19 
DOCKED: REMARK    2  A    between atoms: C_2  and  C_11 
DOCKED: REMARK    3  A    between atoms: C_19  and  C_20 
DOCKED: REMARK    4  A    between atoms: C_20  and  C_21 
DOCKED: REMARK    5  A    between atoms: C_21  and  N_22 
DOCKED: USER                              x       y       z     vdW  Elec       q    Type
DOCKED: USER                           _______ _______ _______ _____ _____    ______ ____
DOCKED: ROOT
DOCKED: ATOM      1  O   UNL     1     -35.408 -10.256   4.595 -0.05 -0.00    -0.346 OA 
DOCKED: ATOM      2  C   UNL     1     -36.518 -10.435   3.658 -0.23 +0.00    +0.130 C  
DOCKED: ATOM      3  C   UNL     1     -36.210  -9.472   2.548 -0.26 +0.00    +0.004 A  
DOCKED: ATOM      4  C   UNL     1     -34.978  -8.876   2.775 -0.12 +0.00    +0.006 A  
DOCKED: ATOM      5  C   UNL     1     -34.387  -9.404   4.025 -0.13 +0.00    +0.169 C  
DOCKED: ATOM      6  C   UNL     1     -36.956  -9.157   1.421 -0.25 -0.00    -0.001 A  
DOCKED: ATOM      7  C   UNL     1     -34.453  -7.947   1.892 -0.12 +0.00    +0.008 A  
DOCKED: ATOM      8  C   UNL     1     -36.443  -8.220   0.524 -0.34 +0.00    +0.010 A  
DOCKED: ATOM      9  C   UNL     1     -35.197  -7.618   0.758 -0.21 +0.00    +0.068 A  
DOCKED: ATOM     10  N   UNL     1     -34.271  -5.885  -0.930 -0.74 -0.00    -0.191 NA 
DOCKED: ATOM     11  C   UNL     1     -34.686  -6.662  -0.173 -0.24 +0.00    +0.101 C  
DOCKED: ENDROOT
DOCKED: BRANCH   2  12
DOCKED: ATOM     12  C   UNL     1     -36.531 -11.888   3.197 -0.22 +0.00    +0.038 C  
DOCKED: BRANCH  12  13
DOCKED: ATOM     13  C   UNL     1     -35.132 -12.361   2.807 -0.19 +0.00    +0.038 C  
DOCKED: BRANCH  13  14
DOCKED: ATOM     14  C   UNL     1     -34.974 -12.416   1.289 -0.18 +0.00    +0.251 C  
DOCKED: BRANCH  14  15
DOCKED: ATOM     15  N   UNL     1     -34.077 -11.361   0.833 -0.10 +0.00    +0.141 N  
DOCKED: ATOM     16  C   UNL     1     -32.681 -11.729   1.077 -0.01 +0.00    +0.285 C  
DOCKED: ATOM     17  C   UNL     1     -34.288 -11.083  -0.588 -0.10 +0.00    +0.285 C  
DOCKED: ENDBRANCH  14  15
DOCKED: ENDBRANCH  13  14
DOCKED: ENDBRANCH  12  13
DOCKED: ENDBRANCH   2  12
DOCKED: BRANCH   2  18
DOCKED: ATOM     18  C   UNL     1     -37.770 -10.093   4.394 -0.29 +0.00    +0.006 A  
DOCKED: ATOM     19  C   UNL     1     -37.997  -8.782   4.811 -0.24 +0.00    +0.001 A  
DOCKED: ATOM     20  C   UNL     1     -39.168  -8.463   5.500 -0.30 +0.00    +0.029 A  
DOCKED: ATOM     21  C   UNL     1     -40.109  -9.454   5.770 -0.19 +0.00    +0.140 A  
DOCKED: ATOM     22  C   UNL     1     -39.882 -10.766   5.353 -0.26 +0.00    +0.029 A  
DOCKED: ATOM     23  F   UNL     1     -41.234  -9.148   6.430 -0.04 -0.00    -0.204 F  
DOCKED: ATOM     24  C   UNL     1     -38.711 -11.085   4.664 -0.26 +0.00    +0.001 A  
DOCKED: ENDBRANCH   2  18
DOCKED: TORSDOF 5
DOCKED: TER
DOCKED: ENDMDL
________________________________________________________________________________


    FINAL DOCKED STATE:
    ________________________


Run:   171 / 512
Time taken for this run:   0.002s

DOCKED: MODEL        171
DOCKED: USER    Run = 171
DOCKED: USER
DOCKED: USER    Estimated Free Energy of Binding    =  -3.99 kcal/mol  [=(1)+(2)+(3)-(4)]
DOCKED: USER
DOCKED: USER    (1) Final Intermolecular Energy     =  -5.48 kcal/mol
DOCKED: USER        vdW + Hbond + desolv Energy     =  -5.48 kcal/mol
DOCKED: USER        Electrostatic Energy            =  +0.00 kcal/mol
DOCKED: USER        Moving Ligand-Fixed Receptor    =  -5.48 kcal/mol
DOCKED: USER        Moving Ligand-Moving Receptor   =  +0.00 kcal/mol
DOCKED: USER    (2) Final Total Internal Energy     =  -1.24 kcal/mol
DOCKED: USER    (3) Torsional Free Energy           =  +1.49 kcal/mol
DOCKED: USER    (4) Unbound System's Energy         =  -1.24 kcal/mol
DOCKED: USER
DOCKED: USER
DOCKED: REMARK  5 active torsions:
DOCKED: REMARK  status: ('A' for Active; 'I' for Inactive)
DOCKED: REMARK    1  A    between atoms: C_2  and  C_19 
DOCKED: REMARK    2  A    between atoms: C_2  and  C_11 
DOCKED: REMARK    3  A    between atoms: C_19  and  C_20 
DOCKED: REMARK    4  A    between atoms: C_20  and  C_21 
DOCKED: REMARK    5  A    between atoms: C_21  and  N_22 
DOCKED: USER                              x       y       z     vdW  Elec       q    Type
DOCKED: USER                           _______ _______ _______ _____ _____    ______ ____
DOCKED: ROOT
DOCKED: ATOM      1  O   UNL     1     -31.284 -14.825   4.533 +0.01 -0.00    -0.346 OA 
DOCKED: ATOM      2  C   UNL     1     -32.745 -14.897   4.507 -0.08 +0.00    +0.130 C  
DOCKED: ATOM      3  C   UNL     1     -33.048 -16.268   5.039 -0.18 +0.00    +0.004 A  
DOCKED: ATOM      4  C   UNL     1     -31.870 -16.884   5.438 -0.10 +0.00    +0.006 A  
DOCKED: ATOM      5  C   UNL     1     -30.725 -15.973   5.213 -0.02 +0.00    +0.169 C  
DOCKED: ATOM      6  C   UNL     1     -34.268 -16.914   5.170 -0.32 -0.00    -0.001 A  
DOCKED: ATOM      7  C   UNL     1     -31.871 -18.160   5.974 -0.17 +0.00    +0.008 A  
DOCKED: ATOM      8  C   UNL     1     -34.285 -18.203   5.705 -0.17 +0.00    +0.010 A  
DOCKED: ATOM      9  C   UNL     1     -33.092 -18.823   6.105 -0.31 +0.00    +0.068 A  
DOCKED: ATOM     10  N   UNL     1     -33.159 -21.214   7.099 -2.20 -0.00    -0.191 NA 
DOCKED: ATOM     11  C   UNL     1     -33.129 -20.142   6.653 -0.40 +0.00    +0.101 C  
DOCKED: ENDROOT
DOCKED: BRANCH   2  12
DOCKED: ATOM     12  C   UNL     1     -33.299 -13.783   5.388 -0.07 +0.00    +0.038 C  
DOCKED: BRANCH  12  13
DOCKED: ATOM     13  C   UNL     1     -32.721 -13.850   6.800 -0.06 +0.00    +0.038 C  
DOCKED: BRANCH  13  14
DOCKED: ATOM     14  C   UNL     1     -33.746 -13.394   7.836 -0.06 +0.00    +0.251 C  
DOCKED: BRANCH  14  15
DOCKED: ATOM     15  N   UNL     1     -34.284 -14.542   8.557 -0.10 +0.00    +0.141 N  
DOCKED: ATOM     16  C   UNL     1     -33.222 -15.240   9.282 -0.06 +0.00    +0.285 C  
DOCKED: ATOM     17  C   UNL     1     -35.338 -14.122   9.481 -0.08 +0.00    +0.285 C  
DOCKED: ENDBRANCH  14  15
DOCKED: ENDBRANCH  13  14
DOCKED: ENDBRANCH  12  13
DOCKED: ENDBRANCH   2  12
DOCKED: BRANCH   2  18
DOCKED: ATOM     18  C   UNL     1     -33.166 -14.719   3.086 -0.13 +0.00    +0.006 A  
DOCKED: ATOM     19  C   UNL     1     -34.055 -13.701   2.745 -0.17 +0.00    +0.001 A  
DOCKED: ATOM     20  C   UNL     1     -34.448 -13.535   1.416 -0.20 +0.00    +0.029 A  
DOCKED: ATOM     21  C   UNL     1     -33.950 -14.387   0.431 -0.20 +0.00    +0.140 A  
DOCKED: ATOM     22  C   UNL     1     -33.060 -15.405   0.773 -0.16 +0.00    +0.029 A  
DOCKED: ATOM     23  F   UNL     1     -34.325 -14.227  -0.845 -0.12 -0.00    -0.204 F  
DOCKED: ATOM     24  C   UNL     1     -32.667 -15.571   2.102 -0.13 +0.00    +0.001 A  
DOCKED: ENDBRANCH   2  18
DOCKED: TORSDOF 5
DOCKED: TER
DOCKED: ENDMDL
________________________________________________________________________________


    FINAL DOCKED STATE:
    ________________________


Run:   172 / 512
Time taken for this run:   0.002s

DOCKED: MODEL        172
DOCKED: USER    Run = 172
DOCKED: USER
DOCKED: USER    Estimated Free Energy of Binding    =  -4.02 kcal/mol  [=(1)+(2)+(3)-(4)]
DOCKED: USER
DOCKED: USER    (1) Final Intermolecular Energy     =  -5.51 kcal/mol
DOCKED: USER        vdW + Hbond + desolv Energy     =  -5.51 kcal/mol
DOCKED: USER        Electrostatic Energy            =  +0.00 kcal/mol
DOCKED: USER        Moving Ligand-Fixed Receptor    =  -5.51 kcal/mol
DOCKED: USER        Moving Ligand-Moving Receptor   =  +0.00 kcal/mol
DOCKED: USER    (2) Final Total Internal Energy     =  -1.18 kcal/mol
DOCKED: USER    (3) Torsional Free Energy           =  +1.49 kcal/mol
DOCKED: USER    (4) Unbound System's Energy         =  -1.18 kcal/mol
DOCKED: USER
DOCKED: USER
DOCKED: REMARK  5 active torsions:
DOCKED: REMARK  status: ('A' for Active; 'I' for Inactive)
DOCKED: REMARK    1  A    between atoms: C_2  and  C_19 
DOCKED: REMARK    2  A    between atoms: C_2  and  C_11 
DOCKED: REMARK    3  A    between atoms: C_19  and  C_20 
DOCKED: REMARK    4  A    between atoms: C_20  and  C_21 
DOCKED: REMARK    5  A    between atoms: C_21  and  N_22 
DOCKED: USER                              x       y       z     vdW  Elec       q    Type
DOCKED: USER                           _______ _______ _______ _____ _____    ______ ____
DOCKED: ROOT
DOCKED: ATOM      1  O   UNL     1     -31.305 -18.613   1.332 -0.02 -0.00    -0.346 OA 
DOCKED: ATOM      2  C   UNL     1     -31.203 -17.486   2.260 -0.09 +0.00    +0.130 C  
DOCKED: ATOM      3  C   UNL     1     -31.708 -18.042   3.559 -0.12 +0.00    +0.004 A  
DOCKED: ATOM      4  C   UNL     1     -31.971 -19.397   3.416 -0.18 +0.00    +0.006 A  
DOCKED: ATOM      5  C   UNL     1     -31.651 -19.828   2.037 -0.07 +0.00    +0.169 C  
DOCKED: ATOM      6  C   UNL     1     -31.907 -17.403   4.774 -0.12 -0.00    -0.001 A  
DOCKED: ATOM      7  C   UNL     1     -32.444 -20.155   4.474 -0.29 +0.00    +0.008 A  
DOCKED: ATOM      8  C   UNL     1     -32.388 -18.152   5.849 -0.22 +0.00    +0.010 A  
DOCKED: ATOM      9  C   UNL     1     -32.654 -19.522   5.700 -0.31 +0.00    +0.068 A  
DOCKED: ATOM     10  N   UNL     1     -33.541 -20.885   7.717 -2.68 -0.00    -0.191 NA 
DOCKED: ATOM     11  C   UNL     1     -33.144 -20.273   6.812 -0.39 +0.00    +0.101 C  
DOCKED: ENDROOT
DOCKED: BRANCH   2  12
DOCKED: ATOM     12  C   UNL     1     -29.744 -17.048   2.328 -0.02 +0.00    +0.038 C  
DOCKED: BRANCH  12  13
DOCKED: ATOM     13  C   UNL     1     -29.305 -16.368   1.033 -0.01 +0.00    +0.038 C  
DOCKED: BRANCH  13  14
DOCKED: ATOM     14  C   UNL     1     -29.148 -17.386  -0.096 -0.01 +0.00    +0.251 C  
DOCKED: BRANCH  14  15
DOCKED: ATOM     15  N   UNL     1     -28.960 -16.705  -1.371 -0.00 +0.00    +0.141 N  
DOCKED: ATOM     16  C   UNL     1     -28.183 -17.537  -2.291 +0.00 +0.00    +0.285 C  
DOCKED: ATOM     17  C   UNL     1     -30.252 -16.359  -1.967 -0.00 +0.00    +0.285 C  
DOCKED: ENDBRANCH  14  15
DOCKED: ENDBRANCH  13  14
DOCKED: ENDBRANCH  12  13
DOCKED: ENDBRANCH   2  12
DOCKED: BRANCH   2  18
DOCKED: ATOM     18  C   UNL     1     -32.067 -16.396   1.719 -0.12 +0.00    +0.006 A  
DOCKED: ATOM     19  C   UNL     1     -32.434 -15.328   2.536 -0.11 +0.00    +0.001 A  
DOCKED: ATOM     20  C   UNL     1     -33.243 -14.310   2.029 -0.14 +0.00    +0.029 A  
DOCKED: ATOM     21  C   UNL     1     -33.682 -14.361   0.707 -0.18 +0.00    +0.140 A  
DOCKED: ATOM     22  C   UNL     1     -33.313 -15.430  -0.110 -0.20 +0.00    +0.029 A  
DOCKED: ATOM     23  F   UNL     1     -34.456 -13.383   0.220 -0.10 -0.00    -0.204 F  
DOCKED: ATOM     24  C   UNL     1     -32.505 -16.449   0.396 -0.11 +0.00    +0.001 A  
DOCKED: ENDBRANCH   2  18
DOCKED: TORSDOF 5
DOCKED: TER
DOCKED: ENDMDL
________________________________________________________________________________


    FINAL DOCKED STATE:
    ________________________


Run:   173 / 512
Time taken for this run:   0.002s

DOCKED: MODEL        173
DOCKED: USER    Run = 173
DOCKED: USER
DOCKED: USER    Estimated Free Energy of Binding    =  -4.27 kcal/mol  [=(1)+(2)+(3)-(4)]
DOCKED: USER
DOCKED: USER    (1) Final Intermolecular Energy     =  -5.76 kcal/mol
DOCKED: USER        vdW + Hbond + desolv Energy     =  -5.76 kcal/mol
DOCKED: USER        Electrostatic Energy            =  +0.00 kcal/mol
DOCKED: USER        Moving Ligand-Fixed Receptor    =  -5.76 kcal/mol
DOCKED: USER        Moving Ligand-Moving Receptor   =  +0.00 kcal/mol
DOCKED: USER    (2) Final Total Internal Energy     =  -1.11 kcal/mol
DOCKED: USER    (3) Torsional Free Energy           =  +1.49 kcal/mol
DOCKED: USER    (4) Unbound System's Energy         =  -1.11 kcal/mol
DOCKED: USER
DOCKED: USER
DOCKED: REMARK  5 active torsions:
DOCKED: REMARK  status: ('A' for Active; 'I' for Inactive)
DOCKED: REMARK    1  A    between atoms: C_2  and  C_19 
DOCKED: REMARK    2  A    between atoms: C_2  and  C_11 
DOCKED: REMARK    3  A    between atoms: C_19  and  C_20 
DOCKED: REMARK    4  A    between atoms: C_20  and  C_21 
DOCKED: REMARK    5  A    between atoms: C_21  and  N_22 
DOCKED: USER                              x       y       z     vdW  Elec       q    Type
DOCKED: USER                           _______ _______ _______ _____ _____    ______ ____
DOCKED: ROOT
DOCKED: ATOM      1  O   UNL     1     -38.147 -14.241  11.109 -0.04 -0.00    -0.346 OA 
DOCKED: ATOM      2  C   UNL     1     -39.608 -14.164  11.134 -0.12 +0.00    +0.130 C  
DOCKED: ATOM      3  C   UNL     1     -40.048 -15.496  10.600 -0.21 +0.00    +0.004 A  
DOCKED: ATOM      4  C   UNL     1     -38.940 -16.305  10.392 -0.25 +0.00    +0.006 A  
DOCKED: ATOM      5  C   UNL     1     -37.709 -15.580  10.780 -0.16 +0.00    +0.169 C  
DOCKED: ATOM      6  C   UNL     1     -41.328 -15.959  10.330 -0.22 -0.00    -0.001 A  
DOCKED: ATOM      7  C   UNL     1     -39.070 -17.594   9.906 -0.32 +0.00    +0.008 A  
DOCKED: ATOM      8  C   UNL     1     -41.475 -17.256   9.835 -0.24 +0.00    +0.010 A  
DOCKED: ATOM      9  C   UNL     1     -40.352 -18.069   9.625 -0.27 +0.00    +0.068 A  
DOCKED: ATOM     10  N   UNL     1     -40.661 -20.474   8.710 -2.59 -0.00    -0.191 NA 
DOCKED: ATOM     11  C   UNL     1     -40.522 -19.395   9.120 -0.36 +0.00    +0.101 C  
DOCKED: ENDROOT
DOCKED: BRANCH   2  12
DOCKED: ATOM     12  C   UNL     1     -40.054 -13.925  12.572 -0.04 +0.00    +0.038 C  
DOCKED: BRANCH  12  13
DOCKED: ATOM     13  C   UNL     1     -39.163 -12.898  13.268 -0.02 +0.00    +0.038 C  
DOCKED: BRANCH  13  14
DOCKED: ATOM     14  C   UNL     1     -39.864 -11.546  13.378 -0.00 +0.00    +0.251 C  
DOCKED: BRANCH  14  15
DOCKED: ATOM     15  N   UNL     1     -40.385 -11.352  14.726 +0.00 +0.00    +0.141 N  
DOCKED: ATOM     16  C   UNL     1     -41.757 -11.852  14.827 +0.00 +0.00    +0.285 C  
DOCKED: ATOM     17  C   UNL     1     -39.529 -12.018  15.710 +0.00 +0.00    +0.285 C  
DOCKED: ENDBRANCH  14  15
DOCKED: ENDBRANCH  13  14
DOCKED: ENDBRANCH  12  13
DOCKED: ENDBRANCH   2  12
DOCKED: BRANCH   2  18
DOCKED: ATOM     18  C   UNL     1     -40.000 -13.025  10.253 -0.17 +0.00    +0.006 A  
DOCKED: ATOM     19  C   UNL     1     -41.339 -12.649  10.154 -0.21 +0.00    +0.001 A  
DOCKED: ATOM     20  C   UNL     1     -41.704 -11.584   9.329 -0.15 +0.00    +0.029 A  
DOCKED: ATOM     21  C   UNL     1     -40.730 -10.898   8.605 -0.11 +0.00    +0.140 A  
DOCKED: ATOM     22  C   UNL     1     -39.391 -11.274   8.705 -0.13 +0.00    +0.029 A  
DOCKED: ATOM     23  F   UNL     1     -41.081  -9.875   7.815 -0.03 -0.00    -0.204 F  
DOCKED: ATOM     24  C   UNL     1     -39.025 -12.339   9.529 -0.13 +0.00    +0.001 A  
DOCKED: ENDBRANCH   2  18
DOCKED: TORSDOF 5
DOCKED: TER
DOCKED: ENDMDL
________________________________________________________________________________


    FINAL DOCKED STATE:
    ________________________


Run:   174 / 512
Time taken for this run:   0.002s

DOCKED: MODEL        174
DOCKED: USER    Run = 174
DOCKED: USER
DOCKED: USER    Estimated Free Energy of Binding    =  -3.97 kcal/mol  [=(1)+(2)+(3)-(4)]
DOCKED: USER
DOCKED: USER    (1) Final Intermolecular Energy     =  -5.46 kcal/mol
DOCKED: USER        vdW + Hbond + desolv Energy     =  -5.46 kcal/mol
DOCKED: USER        Electrostatic Energy            =  +0.00 kcal/mol
DOCKED: USER        Moving Ligand-Fixed Receptor    =  -5.46 kcal/mol
DOCKED: USER        Moving Ligand-Moving Receptor   =  +0.00 kcal/mol
DOCKED: USER    (2) Final Total Internal Energy     =  -1.27 kcal/mol
DOCKED: USER    (3) Torsional Free Energy           =  +1.49 kcal/mol
DOCKED: USER    (4) Unbound System's Energy         =  -1.27 kcal/mol
DOCKED: USER
DOCKED: USER
DOCKED: REMARK  5 active torsions:
DOCKED: REMARK  status: ('A' for Active; 'I' for Inactive)
DOCKED: REMARK    1  A    between atoms: C_2  and  C_19 
DOCKED: REMARK    2  A    between atoms: C_2  and  C_11 
DOCKED: REMARK    3  A    between atoms: C_19  and  C_20 
DOCKED: REMARK    4  A    between atoms: C_20  and  C_21 
DOCKED: REMARK    5  A    between atoms: C_21  and  N_22 
DOCKED: USER                              x       y       z     vdW  Elec       q    Type
DOCKED: USER                           _______ _______ _______ _____ _____    ______ ____
DOCKED: ROOT
DOCKED: ATOM      1  O   UNL     1     -33.335  -8.529   3.343 -0.07 -0.00    -0.346 OA 
DOCKED: ATOM      2  C   UNL     1     -34.467  -9.447   3.476 -0.13 +0.00    +0.130 C  
DOCKED: ATOM      3  C   UNL     1     -35.406  -9.021   2.385 -0.18 +0.00    +0.004 A  
DOCKED: ATOM      4  C   UNL     1     -34.816  -8.021   1.625 -0.15 +0.00    +0.006 A  
DOCKED: ATOM      5  C   UNL     1     -33.460  -7.729   2.144 -0.12 +0.00    +0.169 C  
DOCKED: ATOM      6  C   UNL     1     -36.676  -9.488   2.083 -0.28 -0.00    -0.001 A  
DOCKED: ATOM      7  C   UNL     1     -35.471  -7.455   0.545 -0.27 +0.00    +0.008 A  
DOCKED: ATOM      8  C   UNL     1     -37.353  -8.924   1.000 -0.06 +0.00    +0.010 A  
DOCKED: ATOM      9  C   UNL     1     -36.753  -7.913   0.235 -0.34 +0.00    +0.068 A  
DOCKED: ATOM     10  N   UNL     1     -38.034  -6.890  -1.772 -2.47 -0.00    -0.191 NA 
DOCKED: ATOM     11  C   UNL     1     -37.459  -7.348  -0.872 -0.41 +0.00    +0.101 C  
DOCKED: ENDROOT
DOCKED: BRANCH   2  12
DOCKED: ATOM     12  C   UNL     1     -33.956 -10.872   3.297 -0.07 +0.00    +0.038 C  
DOCKED: BRANCH  12  13
DOCKED: ATOM     13  C   UNL     1     -32.494 -10.888   2.858 -0.02 +0.00    +0.038 C  
DOCKED: BRANCH  13  14
DOCKED: ATOM     14  C   UNL     1     -32.352 -11.439   1.440 -0.01 +0.00    +0.251 C  
DOCKED: BRANCH  14  15
DOCKED: ATOM     15  N   UNL     1     -32.642 -10.398   0.460 -0.02 +0.00    +0.141 N  
DOCKED: ATOM     16  C   UNL     1     -31.420  -9.682   0.091 +0.00 +0.00    +0.285 C  
DOCKED: ATOM     17  C   UNL     1     -33.274 -10.972  -0.729 -0.06 +0.00    +0.285 C  
DOCKED: ENDBRANCH  14  15
DOCKED: ENDBRANCH  13  14
DOCKED: ENDBRANCH  12  13
DOCKED: ENDBRANCH   2  12
DOCKED: BRANCH   2  18
DOCKED: ATOM     18  C   UNL     1     -35.033  -9.245   4.842 -0.16 +0.00    +0.006 A  
DOCKED: ATOM     19  C   UNL     1     -34.203  -9.328   5.959 -0.12 +0.00    +0.001 A  
DOCKED: ATOM     20  C   UNL     1     -34.733  -9.139   7.236 -0.10 +0.00    +0.029 A  
DOCKED: ATOM     21  C   UNL     1     -36.092  -8.869   7.394 -0.12 +0.00    +0.140 A  
DOCKED: ATOM     22  C   UNL     1     -36.921  -8.787   6.276 -0.21 +0.00    +0.029 A  
DOCKED: ATOM     23  F   UNL     1     -36.601  -8.687   8.619 -0.02 -0.00    -0.204 F  
DOCKED: ATOM     24  C   UNL     1     -36.392  -8.975   4.998 -0.07 +0.00    +0.001 A  
DOCKED: ENDBRANCH   2  18
DOCKED: TORSDOF 5
DOCKED: TER
DOCKED: ENDMDL
________________________________________________________________________________


    FINAL DOCKED STATE:
    ________________________


Run:   175 / 512
Time taken for this run:   0.002s

DOCKED: MODEL        175
DOCKED: USER    Run = 175
DOCKED: USER
DOCKED: USER    Estimated Free Energy of Binding    =  -3.98 kcal/mol  [=(1)+(2)+(3)-(4)]
DOCKED: USER
DOCKED: USER    (1) Final Intermolecular Energy     =  -5.47 kcal/mol
DOCKED: USER        vdW + Hbond + desolv Energy     =  -5.47 kcal/mol
DOCKED: USER        Electrostatic Energy            =  +0.00 kcal/mol
DOCKED: USER        Moving Ligand-Fixed Receptor    =  -5.47 kcal/mol
DOCKED: USER        Moving Ligand-Moving Receptor   =  +0.00 kcal/mol
DOCKED: USER    (2) Final Total Internal Energy     =  -1.30 kcal/mol
DOCKED: USER    (3) Torsional Free Energy           =  +1.49 kcal/mol
DOCKED: USER    (4) Unbound System's Energy         =  -1.30 kcal/mol
DOCKED: USER
DOCKED: USER
DOCKED: REMARK  5 active torsions:
DOCKED: REMARK  status: ('A' for Active; 'I' for Inactive)
DOCKED: REMARK    1  A    between atoms: C_2  and  C_19 
DOCKED: REMARK    2  A    between atoms: C_2  and  C_11 
DOCKED: REMARK    3  A    between atoms: C_19  and  C_20 
DOCKED: REMARK    4  A    between atoms: C_20  and  C_21 
DOCKED: REMARK    5  A    between atoms: C_21  and  N_22 
DOCKED: USER                              x       y       z     vdW  Elec       q    Type
DOCKED: USER                           _______ _______ _______ _____ _____    ______ ____
DOCKED: ROOT
DOCKED: ATOM      1  O   UNL     1     -34.616 -10.950   2.771 -0.01 -0.00    -0.346 OA 
DOCKED: ATOM      2  C   UNL     1     -33.740 -10.755   1.615 -0.07 +0.00    +0.130 C  
DOCKED: ATOM      3  C   UNL     1     -34.539  -9.868   0.704 -0.15 +0.00    +0.004 A  
DOCKED: ATOM      4  C   UNL     1     -35.720  -9.498   1.330 -0.25 +0.00    +0.006 A  
DOCKED: ATOM      5  C   UNL     1     -35.780 -10.095   2.684 -0.19 +0.00    +0.169 C  
DOCKED: ATOM      6  C   UNL     1     -34.238  -9.416  -0.573 -0.15 -0.00    -0.001 A  
DOCKED: ATOM      7  C   UNL     1     -36.639  -8.673   0.706 -0.26 +0.00    +0.008 A  
DOCKED: ATOM      8  C   UNL     1     -35.157  -8.586  -1.218 -0.22 +0.00    +0.010 A  
DOCKED: ATOM      9  C   UNL     1     -36.351  -8.216  -0.581 -0.13 +0.00    +0.068 A  
DOCKED: ATOM     10  N   UNL     1     -38.032  -6.670  -1.805 -2.39 -0.00    -0.191 NA 
DOCKED: ATOM     11  C   UNL     1     -37.278  -7.364  -1.256 -0.40 +0.00    +0.101 C  
DOCKED: ENDROOT
DOCKED: BRANCH   2  12
DOCKED: ATOM     12  C   UNL     1     -32.448 -10.104   2.093 -0.03 +0.00    +0.038 C  
DOCKED: BRANCH  12  13
DOCKED: ATOM     13  C   UNL     1     -32.687  -8.670   2.563 -0.08 +0.00    +0.038 C  
DOCKED: BRANCH  13  14
DOCKED: ATOM     14  C   UNL     1     -31.761  -7.694   1.841 -0.03 +0.00    +0.251 C  
DOCKED: BRANCH  14  15
DOCKED: ATOM     15  N   UNL     1     -32.441  -6.425   1.611 -0.07 +0.00    +0.141 N  
DOCKED: ATOM     16  C   UNL     1     -33.892  -6.614   1.590 -0.11 +0.00    +0.285 C  
DOCKED: ATOM     17  C   UNL     1     -32.072  -5.448   2.638 -0.08 +0.00    +0.285 C  
DOCKED: ENDBRANCH  14  15
DOCKED: ENDBRANCH  13  14
DOCKED: ENDBRANCH  12  13
DOCKED: ENDBRANCH   2  12
DOCKED: BRANCH   2  18
DOCKED: ATOM     18  C   UNL     1     -33.480 -12.104   1.032 -0.09 +0.00    +0.006 A  
DOCKED: ATOM     19  C   UNL     1     -34.524 -12.829   0.460 -0.23 +0.00    +0.001 A  
DOCKED: ATOM     20  C   UNL     1     -34.279 -14.090  -0.084 -0.26 +0.00    +0.029 A  
DOCKED: ATOM     21  C   UNL     1     -32.992 -14.624  -0.056 -0.14 +0.00    +0.140 A  
DOCKED: ATOM     22  C   UNL     1     -31.947 -13.898   0.516 -0.04 +0.00    +0.029 A  
DOCKED: ATOM     23  F   UNL     1     -32.757 -15.834  -0.580 -0.08 -0.00    -0.204 F  
DOCKED: ATOM     24  C   UNL     1     -32.191 -12.636   1.062 -0.02 +0.00    +0.001 A  
DOCKED: ENDBRANCH   2  18
DOCKED: TORSDOF 5
DOCKED: TER
DOCKED: ENDMDL
________________________________________________________________________________


    FINAL DOCKED STATE:
    ________________________


Run:   176 / 512
Time taken for this run:   0.002s

DOCKED: MODEL        176
DOCKED: USER    Run = 176
DOCKED: USER
DOCKED: USER    Estimated Free Energy of Binding    =  -3.70 kcal/mol  [=(1)+(2)+(3)-(4)]
DOCKED: USER
DOCKED: USER    (1) Final Intermolecular Energy     =  -5.20 kcal/mol
DOCKED: USER        vdW + Hbond + desolv Energy     =  -5.20 kcal/mol
DOCKED: USER        Electrostatic Energy            =  +0.00 kcal/mol
DOCKED: USER        Moving Ligand-Fixed Receptor    =  -5.20 kcal/mol
DOCKED: USER        Moving Ligand-Moving Receptor   =  +0.00 kcal/mol
DOCKED: USER    (2) Final Total Internal Energy     =  -1.46 kcal/mol
DOCKED: USER    (3) Torsional Free Energy           =  +1.49 kcal/mol
DOCKED: USER    (4) Unbound System's Energy         =  -1.46 kcal/mol
DOCKED: USER
DOCKED: USER
DOCKED: REMARK  5 active torsions:
DOCKED: REMARK  status: ('A' for Active; 'I' for Inactive)
DOCKED: REMARK    1  A    between atoms: C_2  and  C_19 
DOCKED: REMARK    2  A    between atoms: C_2  and  C_11 
DOCKED: REMARK    3  A    between atoms: C_19  and  C_20 
DOCKED: REMARK    4  A    between atoms: C_20  and  C_21 
DOCKED: REMARK    5  A    between atoms: C_21  and  N_22 
DOCKED: USER                              x       y       z     vdW  Elec       q    Type
DOCKED: USER                           _______ _______ _______ _____ _____    ______ ____
DOCKED: ROOT
DOCKED: ATOM      1  O   UNL     1     -31.935  -5.782  -2.716 -0.03 -0.00    -0.346 OA 
DOCKED: ATOM      2  C   UNL     1     -32.039  -6.131  -1.299 -0.07 +0.00    +0.130 C  
DOCKED: ATOM      3  C   UNL     1     -33.497  -6.431  -1.108 -0.16 +0.00    +0.004 A  
DOCKED: ATOM      4  C   UNL     1     -34.151  -6.367  -2.330 -0.21 +0.00    +0.006 A  
DOCKED: ATOM      5  C   UNL     1     -33.184  -6.038  -3.401 -0.11 +0.00    +0.169 C  
DOCKED: ATOM      6  C   UNL     1     -34.188  -6.747   0.053 -0.19 -0.00    -0.001 A  
DOCKED: ATOM      7  C   UNL     1     -35.510  -6.610  -2.434 -0.30 +0.00    +0.008 A  
DOCKED: ATOM      8  C   UNL     1     -35.560  -6.990  -0.035 -0.32 +0.00    +0.010 A  
DOCKED: ATOM      9  C   UNL     1     -36.217  -6.922  -1.272 -0.37 +0.00    +0.068 A  
DOCKED: ATOM     10  N   UNL     1     -38.763  -7.384  -1.401 -2.44 -0.00    -0.191 NA 
DOCKED: ATOM     11  C   UNL     1     -37.622  -7.176  -1.343 -0.28 +0.00    +0.101 C  
DOCKED: ENDROOT
DOCKED: BRANCH   2  12
DOCKED: ATOM     12  C   UNL     1     -31.145  -7.337  -1.033 -0.03 +0.00    +0.038 C  
DOCKED: BRANCH  12  13
DOCKED: ATOM     13  C   UNL     1     -31.935  -8.642  -1.107 -0.03 +0.00    +0.038 C  
DOCKED: BRANCH  13  14
DOCKED: ATOM     14  C   UNL     1     -31.920  -9.214  -2.524 -0.01 +0.00    +0.251 C  
DOCKED: BRANCH  14  15
DOCKED: ATOM     15  N   UNL     1     -33.278  -9.309  -3.047 -0.08 +0.00    +0.141 N  
DOCKED: ATOM     16  C   UNL     1     -33.259  -9.592  -4.483 -0.07 +0.00    +0.285 C  
DOCKED: ATOM     17  C   UNL     1     -34.033 -10.342  -2.336 -0.12 +0.00    +0.285 C  
DOCKED: ENDBRANCH  14  15
DOCKED: ENDBRANCH  13  14
DOCKED: ENDBRANCH  12  13
DOCKED: ENDBRANCH   2  12
DOCKED: BRANCH   2  18
DOCKED: ATOM     18  C   UNL     1     -31.583  -4.942  -0.521 -0.08 +0.00    +0.006 A  
DOCKED: ATOM     19  C   UNL     1     -32.452  -3.872  -0.311 -0.14 +0.00    +0.001 A  
DOCKED: ATOM     20  C   UNL     1     -32.024  -2.760   0.415 -0.11 +0.00    +0.029 A  
DOCKED: ATOM     21  C   UNL     1     -30.730  -2.720   0.931 -0.01 +0.00    +0.140 A  
DOCKED: ATOM     22  C   UNL     1     -29.861  -3.790   0.721 -0.02 +0.00    +0.029 A  
DOCKED: ATOM     23  F   UNL     1     -30.320  -1.653   1.630 +0.01 -0.00    -0.204 F  
DOCKED: ATOM     24  C   UNL     1     -30.288  -4.903  -0.007 -0.03 +0.00    +0.001 A  
DOCKED: ENDBRANCH   2  18
DOCKED: TORSDOF 5
DOCKED: TER
DOCKED: ENDMDL
________________________________________________________________________________


    FINAL DOCKED STATE:
    ________________________


Run:   177 / 512
Time taken for this run:   0.002s

DOCKED: MODEL        177
DOCKED: USER    Run = 177
DOCKED: USER
DOCKED: USER    Estimated Free Energy of Binding    =  -4.43 kcal/mol  [=(1)+(2)+(3)-(4)]
DOCKED: USER
DOCKED: USER    (1) Final Intermolecular Energy     =  -5.92 kcal/mol
DOCKED: USER        vdW + Hbond + desolv Energy     =  -5.92 kcal/mol
DOCKED: USER        Electrostatic Energy            =  +0.00 kcal/mol
DOCKED: USER        Moving Ligand-Fixed Receptor    =  -5.92 kcal/mol
DOCKED: USER        Moving Ligand-Moving Receptor   =  +0.00 kcal/mol
DOCKED: USER    (2) Final Total Internal Energy     =  -1.44 kcal/mol
DOCKED: USER    (3) Torsional Free Energy           =  +1.49 kcal/mol
DOCKED: USER    (4) Unbound System's Energy         =  -1.44 kcal/mol
DOCKED: USER
DOCKED: USER
DOCKED: REMARK  5 active torsions:
DOCKED: REMARK  status: ('A' for Active; 'I' for Inactive)
DOCKED: REMARK    1  A    between atoms: C_2  and  C_19 
DOCKED: REMARK    2  A    between atoms: C_2  and  C_11 
DOCKED: REMARK    3  A    between atoms: C_19  and  C_20 
DOCKED: REMARK    4  A    between atoms: C_20  and  C_21 
DOCKED: REMARK    5  A    between atoms: C_21  and  N_22 
DOCKED: USER                              x       y       z     vdW  Elec       q    Type
DOCKED: USER                           _______ _______ _______ _____ _____    ______ ____
DOCKED: ROOT
DOCKED: ATOM      1  O   UNL     1     -40.227 -16.223  11.922 -0.01 -0.00    -0.346 OA 
DOCKED: ATOM      2  C   UNL     1     -39.224 -17.285  11.830 -0.13 +0.00    +0.130 C  
DOCKED: ATOM      3  C   UNL     1     -39.478 -17.904  10.486 -0.28 +0.00    +0.004 A  
DOCKED: ATOM      4  C   UNL     1     -40.465 -17.190   9.822 -0.28 +0.00    +0.006 A  
DOCKED: ATOM      5  C   UNL     1     -40.917 -16.058  10.662 -0.16 +0.00    +0.169 C  
DOCKED: ATOM      6  C   UNL     1     -38.875 -19.004   9.894 -0.40 -0.00    -0.001 A  
DOCKED: ATOM      7  C   UNL     1     -40.885 -17.550   8.553 -0.12 +0.00    +0.008 A  
DOCKED: ATOM      8  C   UNL     1     -39.291 -19.383   8.617 -0.40 +0.00    +0.010 A  
DOCKED: ATOM      9  C   UNL     1     -40.290 -18.659   7.950 -0.42 +0.00    +0.068 A  
DOCKED: ATOM     10  N   UNL     1     -41.035 -19.386   5.577 -2.14 -0.00    -0.191 NA 
DOCKED: ATOM     11  C   UNL     1     -40.702 -19.061   6.641 -0.50 +0.00    +0.101 C  
DOCKED: ENDROOT
DOCKED: BRANCH   2  12
DOCKED: ATOM     12  C   UNL     1     -37.841 -16.653  11.941 -0.17 +0.00    +0.038 C  
DOCKED: BRANCH  12  13
DOCKED: ATOM     13  C   UNL     1     -37.910 -15.275  12.596 -0.07 +0.00    +0.038 C  
DOCKED: BRANCH  13  14
DOCKED: ATOM     14  C   UNL     1     -38.293 -15.386  14.071 -0.01 +0.00    +0.251 C  
DOCKED: BRANCH  14  15
DOCKED: ATOM     15  N   UNL     1     -39.496 -14.609  14.342 -0.00 +0.00    +0.141 N  
DOCKED: ATOM     16  C   UNL     1     -39.781 -14.583  15.778 -0.00 +0.00    +0.285 C  
DOCKED: ATOM     17  C   UNL     1     -39.356 -13.246  13.828 -0.00 +0.00    +0.285 C  
DOCKED: ENDBRANCH  14  15
DOCKED: ENDBRANCH  13  14
DOCKED: ENDBRANCH  12  13
DOCKED: ENDBRANCH   2  12
DOCKED: BRANCH   2  18
DOCKED: ATOM     18  C   UNL     1     -39.478 -18.225  12.961 -0.15 +0.00    +0.006 A  
DOCKED: ATOM     19  C   UNL     1     -40.653 -18.118  13.705 -0.10 +0.00    +0.001 A  
DOCKED: ATOM     20  C   UNL     1     -40.889 -18.997  14.762 -0.12 +0.00    +0.029 A  
DOCKED: ATOM     21  C   UNL     1     -39.952 -19.981  15.074 -0.05 +0.00    +0.140 A  
DOCKED: ATOM     22  C   UNL     1     -38.778 -20.088  14.329 -0.23 +0.00    +0.029 A  
DOCKED: ATOM     23  F   UNL     1     -40.180 -20.826  16.087 -0.05 -0.00    -0.204 F  
DOCKED: ATOM     24  C   UNL     1     -38.540 -19.208  13.271 -0.13 +0.00    +0.001 A  
DOCKED: ENDBRANCH   2  18
DOCKED: TORSDOF 5
DOCKED: TER
DOCKED: ENDMDL
________________________________________________________________________________


    FINAL DOCKED STATE:
    ________________________


Run:   178 / 512
Time taken for this run:   0.002s

DOCKED: MODEL        178
DOCKED: USER    Run = 178
DOCKED: USER
DOCKED: USER    Estimated Free Energy of Binding    =  -4.57 kcal/mol  [=(1)+(2)+(3)-(4)]
DOCKED: USER
DOCKED: USER    (1) Final Intermolecular Energy     =  -6.07 kcal/mol
DOCKED: USER        vdW + Hbond + desolv Energy     =  -6.07 kcal/mol
DOCKED: USER        Electrostatic Energy            =  +0.00 kcal/mol
DOCKED: USER        Moving Ligand-Fixed Receptor    =  -6.07 kcal/mol
DOCKED: USER        Moving Ligand-Moving Receptor   =  +0.00 kcal/mol
DOCKED: USER    (2) Final Total Internal Energy     =  -0.90 kcal/mol
DOCKED: USER    (3) Torsional Free Energy           =  +1.49 kcal/mol
DOCKED: USER    (4) Unbound System's Energy         =  -0.90 kcal/mol
DOCKED: USER
DOCKED: USER
DOCKED: REMARK  5 active torsions:
DOCKED: REMARK  status: ('A' for Active; 'I' for Inactive)
DOCKED: REMARK    1  A    between atoms: C_2  and  C_19 
DOCKED: REMARK    2  A    between atoms: C_2  and  C_11 
DOCKED: REMARK    3  A    between atoms: C_19  and  C_20 
DOCKED: REMARK    4  A    between atoms: C_20  and  C_21 
DOCKED: REMARK    5  A    between atoms: C_21  and  N_22 
DOCKED: USER                              x       y       z     vdW  Elec       q    Type
DOCKED: USER                           _______ _______ _______ _____ _____    ______ ____
DOCKED: ROOT
DOCKED: ATOM      1  O   UNL     1     -42.007 -16.707  11.530 -0.01 -0.00    -0.346 OA 
DOCKED: ATOM      2  C   UNL     1     -40.582 -16.988  11.351 -0.12 +0.00    +0.130 C  
DOCKED: ATOM      3  C   UNL     1     -40.499 -17.560   9.966 -0.27 +0.00    +0.004 A  
DOCKED: ATOM      4  C   UNL     1     -41.748 -17.508   9.364 -0.24 +0.00    +0.006 A  
DOCKED: ATOM      5  C   UNL     1     -42.727 -16.895  10.290 -0.18 +0.00    +0.169 C  
DOCKED: ATOM      6  C   UNL     1     -39.404 -18.075   9.288 -0.37 -0.00    -0.001 A  
DOCKED: ATOM      7  C   UNL     1     -41.946 -17.970   8.074 +0.01 +0.00    +0.008 A  
DOCKED: ATOM      8  C   UNL     1     -39.588 -18.548   7.988 -0.30 +0.00    +0.010 A  
DOCKED: ATOM      9  C   UNL     1     -40.853 -18.496   7.384 -0.38 +0.00    +0.068 A  
DOCKED: ATOM     10  N   UNL     1     -41.159 -19.379   4.968 -2.69 -0.00    -0.191 NA 
DOCKED: ATOM     11  C   UNL     1     -41.022 -18.983   6.052 -0.29 +0.00    +0.101 C  
DOCKED: ENDROOT
DOCKED: BRANCH   2  12
DOCKED: ATOM     12  C   UNL     1     -39.810 -15.682  11.501 -0.13 +0.00    +0.038 C  
DOCKED: BRANCH  12  13
DOCKED: ATOM     13  C   UNL     1     -40.463 -14.765  12.533 -0.05 +0.00    +0.038 C  
DOCKED: BRANCH  13  14
DOCKED: ATOM     14  C   UNL     1     -41.224 -13.628  11.854 -0.04 +0.00    +0.251 C  
DOCKED: BRANCH  14  15
DOCKED: ATOM     15  N   UNL     1     -40.502 -12.370  12.008 -0.03 +0.00    +0.141 N  
DOCKED: ATOM     16  C   UNL     1     -41.079 -11.573  13.092 -0.00 +0.00    +0.285 C  
DOCKED: ATOM     17  C   UNL     1     -39.082 -12.619  12.262 -0.01 +0.00    +0.285 C  
DOCKED: ENDBRANCH  14  15
DOCKED: ENDBRANCH  13  14
DOCKED: ENDBRANCH  12  13
DOCKED: ENDBRANCH   2  12
DOCKED: BRANCH   2  18
DOCKED: ATOM     18  C   UNL     1     -40.195 -17.967  12.409 -0.13 +0.00    +0.006 A  
DOCKED: ATOM     19  C   UNL     1     -39.191 -18.902  12.159 -0.24 +0.00    +0.001 A  
DOCKED: ATOM     20  C   UNL     1     -38.830 -19.817  13.149 -0.18 +0.00    +0.029 A  
DOCKED: ATOM     21  C   UNL     1     -39.472 -19.795  14.386 -0.12 +0.00    +0.140 A  
DOCKED: ATOM     22  C   UNL     1     -40.476 -18.859  14.636 -0.12 +0.00    +0.029 A  
DOCKED: ATOM     23  F   UNL     1     -39.124 -20.672  15.337 -0.07 -0.00    -0.204 F  
DOCKED: ATOM     24  C   UNL     1     -40.838 -17.944  13.646 -0.09 +0.00    +0.001 A  
DOCKED: ENDBRANCH   2  18
DOCKED: TORSDOF 5
DOCKED: TER
DOCKED: ENDMDL
________________________________________________________________________________


    FINAL DOCKED STATE:
    ________________________


Run:   179 / 512
Time taken for this run:   0.002s

DOCKED: MODEL        179
DOCKED: USER    Run = 179
DOCKED: USER
DOCKED: USER    Estimated Free Energy of Binding    =  -3.86 kcal/mol  [=(1)+(2)+(3)-(4)]
DOCKED: USER
DOCKED: USER    (1) Final Intermolecular Energy     =  -5.35 kcal/mol
DOCKED: USER        vdW + Hbond + desolv Energy     =  -5.35 kcal/mol
DOCKED: USER        Electrostatic Energy            =  +0.00 kcal/mol
DOCKED: USER        Moving Ligand-Fixed Receptor    =  -5.35 kcal/mol
DOCKED: USER        Moving Ligand-Moving Receptor   =  +0.00 kcal/mol
DOCKED: USER    (2) Final Total Internal Energy     =  -1.17 kcal/mol
DOCKED: USER    (3) Torsional Free Energy           =  +1.49 kcal/mol
DOCKED: USER    (4) Unbound System's Energy         =  -1.17 kcal/mol
DOCKED: USER
DOCKED: USER
DOCKED: REMARK  5 active torsions:
DOCKED: REMARK  status: ('A' for Active; 'I' for Inactive)
DOCKED: REMARK    1  A    between atoms: C_2  and  C_19 
DOCKED: REMARK    2  A    between atoms: C_2  and  C_11 
DOCKED: REMARK    3  A    between atoms: C_19  and  C_20 
DOCKED: REMARK    4  A    between atoms: C_20  and  C_21 
DOCKED: REMARK    5  A    between atoms: C_21  and  N_22 
DOCKED: USER                              x       y       z     vdW  Elec       q    Type
DOCKED: USER                           _______ _______ _______ _____ _____    ______ ____
DOCKED: ROOT
DOCKED: ATOM      1  O   UNL     1     -30.001 -16.985   2.775 +0.01 -0.00    -0.346 OA 
DOCKED: ATOM      2  C   UNL     1     -31.141 -16.187   3.229 -0.05 +0.00    +0.130 C  
DOCKED: ATOM      3  C   UNL     1     -31.840 -17.084   4.210 -0.10 +0.00    +0.004 A  
DOCKED: ATOM      4  C   UNL     1     -31.104 -18.247   4.386 -0.09 +0.00    +0.006 A  
DOCKED: ATOM      5  C   UNL     1     -29.879 -18.197   3.556 -0.02 +0.00    +0.169 C  
DOCKED: ATOM      6  C   UNL     1     -33.026 -16.881   4.900 -0.21 -0.00    -0.001 A  
DOCKED: ATOM      7  C   UNL     1     -31.526 -19.244   5.248 -0.18 +0.00    +0.008 A  
DOCKED: ATOM      8  C   UNL     1     -33.468 -17.879   5.771 -0.30 +0.00    +0.010 A  
DOCKED: ATOM      9  C   UNL     1     -32.721 -19.054   5.944 -0.29 +0.00    +0.068 A  
DOCKED: ATOM     10  N   UNL     1     -33.567 -20.884   7.571 -2.64 -0.00    -0.191 NA 
DOCKED: ATOM     11  C   UNL     1     -33.188 -20.064   6.841 -0.39 +0.00    +0.101 C  
DOCKED: ENDROOT
DOCKED: BRANCH   2  12
DOCKED: ATOM     12  C   UNL     1     -30.612 -14.908   3.866 -0.02 +0.00    +0.038 C  
DOCKED: BRANCH  12  13
DOCKED: ATOM     13  C   UNL     1     -30.041 -15.174   5.258 -0.02 +0.00    +0.038 C  
DOCKED: BRANCH  13  14
DOCKED: ATOM     14  C   UNL     1     -29.839 -13.870   6.027 -0.00 +0.00    +0.251 C  
DOCKED: BRANCH  14  15
DOCKED: ATOM     15  N   UNL     1     -30.155 -14.060   7.438 -0.01 +0.00    +0.141 N  
DOCKED: ATOM     16  C   UNL     1     -31.215 -15.056   7.600 -0.02 +0.00    +0.285 C  
DOCKED: ATOM     17  C   UNL     1     -28.962 -14.463   8.184 -0.00 +0.00    +0.285 C  
DOCKED: ENDBRANCH  14  15
DOCKED: ENDBRANCH  13  14
DOCKED: ENDBRANCH  12  13
DOCKED: ENDBRANCH   2  12
DOCKED: BRANCH   2  18
DOCKED: ATOM     18  C   UNL     1     -31.970 -15.886   2.025 -0.11 +0.00    +0.006 A  
DOCKED: ATOM     19  C   UNL     1     -31.979 -16.770   0.947 -0.13 +0.00    +0.001 A  
DOCKED: ATOM     20  C   UNL     1     -32.753 -16.487  -0.179 -0.12 +0.00    +0.029 A  
DOCKED: ATOM     21  C   UNL     1     -33.517 -15.322  -0.225 -0.19 +0.00    +0.140 A  
DOCKED: ATOM     22  C   UNL     1     -33.508 -14.438   0.854 -0.20 +0.00    +0.029 A  
DOCKED: ATOM     23  F   UNL     1     -34.262 -15.052  -1.305 -0.12 -0.00    -0.204 F  
DOCKED: ATOM     24  C   UNL     1     -32.733 -14.720   1.980 -0.13 +0.00    +0.001 A  
DOCKED: ENDBRANCH   2  18
DOCKED: TORSDOF 5
DOCKED: TER
DOCKED: ENDMDL
________________________________________________________________________________


    FINAL DOCKED STATE:
    ________________________


Run:   180 / 512
Time taken for this run:   0.002s

DOCKED: MODEL        180
DOCKED: USER    Run = 180
DOCKED: USER
DOCKED: USER    Estimated Free Energy of Binding    =  -5.05 kcal/mol  [=(1)+(2)+(3)-(4)]
DOCKED: USER
DOCKED: USER    (1) Final Intermolecular Energy     =  -6.54 kcal/mol
DOCKED: USER        vdW + Hbond + desolv Energy     =  -6.54 kcal/mol
DOCKED: USER        Electrostatic Energy            =  +0.00 kcal/mol
DOCKED: USER        Moving Ligand-Fixed Receptor    =  -6.54 kcal/mol
DOCKED: USER        Moving Ligand-Moving Receptor   =  +0.00 kcal/mol
DOCKED: USER    (2) Final Total Internal Energy     =  -1.40 kcal/mol
DOCKED: USER    (3) Torsional Free Energy           =  +1.49 kcal/mol
DOCKED: USER    (4) Unbound System's Energy         =  -1.40 kcal/mol
DOCKED: USER
DOCKED: USER
DOCKED: REMARK  5 active torsions:
DOCKED: REMARK  status: ('A' for Active; 'I' for Inactive)
DOCKED: REMARK    1  A    between atoms: C_2  and  C_19 
DOCKED: REMARK    2  A    between atoms: C_2  and  C_11 
DOCKED: REMARK    3  A    between atoms: C_19  and  C_20 
DOCKED: REMARK    4  A    between atoms: C_20  and  C_21 
DOCKED: REMARK    5  A    between atoms: C_21  and  N_22 
DOCKED: USER                              x       y       z     vdW  Elec       q    Type
DOCKED: USER                           _______ _______ _______ _____ _____    ______ ____
DOCKED: ROOT
DOCKED: ATOM      1  O   UNL     1     -38.915 -16.739  10.982 -0.07 -0.00    -0.346 OA 
DOCKED: ATOM      2  C   UNL     1     -39.954 -17.741  11.223 -0.16 +0.00    +0.130 C  
DOCKED: ATOM      3  C   UNL     1     -40.392 -18.143   9.844 -0.29 +0.00    +0.004 A  
DOCKED: ATOM      4  C   UNL     1     -39.598 -17.510   8.899 -0.36 +0.00    +0.006 A  
DOCKED: ATOM      5  C   UNL     1     -38.587 -16.668   9.575 -0.03 +0.00    +0.169 C  
DOCKED: ATOM      6  C   UNL     1     -41.405 -19.009   9.458 -0.31 -0.00    -0.001 A  
DOCKED: ATOM      7  C   UNL     1     -39.790 -17.715   7.543 -0.09 +0.00    +0.008 A  
DOCKED: ATOM      8  C   UNL     1     -41.614 -19.223   8.095 -0.40 +0.00    +0.010 A  
DOCKED: ATOM      9  C   UNL     1     -40.810 -18.579   7.142 -0.40 +0.00    +0.068 A  
DOCKED: ATOM     10  N   UNL     1     -41.220 -19.002   4.619 -3.18 -0.00    -0.191 NA 
DOCKED: ATOM     11  C   UNL     1     -41.036 -18.812   5.751 -0.27 +0.00    +0.101 C  
DOCKED: ENDROOT
DOCKED: BRANCH   2  12
DOCKED: ATOM     12  C   UNL     1     -39.341 -18.893  12.010 -0.27 +0.00    +0.038 C  
DOCKED: BRANCH  12  13
DOCKED: ATOM     13  C   UNL     1     -38.749 -18.410  13.333 -0.18 +0.00    +0.038 C  
DOCKED: BRANCH  13  14
DOCKED: ATOM     14  C   UNL     1     -37.336 -17.864  13.136 -0.07 +0.00    +0.251 C  
DOCKED: BRANCH  14  15
DOCKED: ATOM     15  N   UNL     1     -37.295 -16.440  13.449 -0.05 +0.00    +0.141 N  
DOCKED: ATOM     16  C   UNL     1     -38.076 -16.153  14.653 -0.01 +0.00    +0.285 C  
DOCKED: ATOM     17  C   UNL     1     -35.912 -15.991  13.622 -0.03 +0.00    +0.285 C  
DOCKED: ENDBRANCH  14  15
DOCKED: ENDBRANCH  13  14
DOCKED: ENDBRANCH  12  13
DOCKED: ENDBRANCH   2  12
DOCKED: BRANCH   2  18
DOCKED: ATOM     18  C   UNL     1     -41.035 -17.070  12.004 -0.09 +0.00    +0.006 A  
DOCKED: ATOM     19  C   UNL     1     -40.874 -15.750  12.424 -0.06 +0.00    +0.001 A  
DOCKED: ATOM     20  C   UNL     1     -41.885 -15.124  13.154 -0.03 +0.00    +0.029 A  
DOCKED: ATOM     21  C   UNL     1     -43.054 -15.818  13.463 -0.01 +0.00    +0.140 A  
DOCKED: ATOM     22  C   UNL     1     -43.214 -17.138  13.042 -0.06 +0.00    +0.029 A  
DOCKED: ATOM     23  F   UNL     1     -44.025 -15.216  14.162 +0.01 -0.00    -0.204 F  
DOCKED: ATOM     24  C   UNL     1     -42.204 -17.765  12.311 -0.10 +0.00    +0.001 A  
DOCKED: ENDBRANCH   2  18
DOCKED: TORSDOF 5
DOCKED: TER
DOCKED: ENDMDL
________________________________________________________________________________


    FINAL DOCKED STATE:
    ________________________


Run:   181 / 512
Time taken for this run:   0.002s

DOCKED: MODEL        181
DOCKED: USER    Run = 181
DOCKED: USER
DOCKED: USER    Estimated Free Energy of Binding    =  -4.96 kcal/mol  [=(1)+(2)+(3)-(4)]
DOCKED: USER
DOCKED: USER    (1) Final Intermolecular Energy     =  -6.45 kcal/mol
DOCKED: USER        vdW + Hbond + desolv Energy     =  -6.45 kcal/mol
DOCKED: USER        Electrostatic Energy            =  +0.00 kcal/mol
DOCKED: USER        Moving Ligand-Fixed Receptor    =  -6.45 kcal/mol
DOCKED: USER        Moving Ligand-Moving Receptor   =  +0.00 kcal/mol
DOCKED: USER    (2) Final Total Internal Energy     =  -1.11 kcal/mol
DOCKED: USER    (3) Torsional Free Energy           =  +1.49 kcal/mol
DOCKED: USER    (4) Unbound System's Energy         =  -1.11 kcal/mol
DOCKED: USER
DOCKED: USER
DOCKED: REMARK  5 active torsions:
DOCKED: REMARK  status: ('A' for Active; 'I' for Inactive)
DOCKED: REMARK    1  A    between atoms: C_2  and  C_19 
DOCKED: REMARK    2  A    between atoms: C_2  and  C_11 
DOCKED: REMARK    3  A    between atoms: C_19  and  C_20 
DOCKED: REMARK    4  A    between atoms: C_20  and  C_21 
DOCKED: REMARK    5  A    between atoms: C_21  and  N_22 
DOCKED: USER                              x       y       z     vdW  Elec       q    Type
DOCKED: USER                           _______ _______ _______ _____ _____    ______ ____
DOCKED: ROOT
DOCKED: ATOM      1  O   UNL     1     -34.581 -10.566   3.168 -0.02 -0.00    -0.346 OA 
DOCKED: ATOM      2  C   UNL     1     -35.955 -10.376   3.635 -0.19 +0.00    +0.130 C  
DOCKED: ATOM      3  C   UNL     1     -36.594  -9.561   2.548 -0.29 +0.00    +0.004 A  
DOCKED: ATOM      4  C   UNL     1     -35.698  -9.394   1.501 -0.25 +0.00    +0.006 A  
DOCKED: ATOM      5  C   UNL     1     -34.428 -10.087   1.812 -0.11 +0.00    +0.169 C  
DOCKED: ATOM      6  C   UNL     1     -37.870  -9.020   2.485 -0.08 -0.00    -0.001 A  
DOCKED: ATOM      7  C   UNL     1     -36.042  -8.682   0.365 -0.25 +0.00    +0.008 A  
DOCKED: ATOM      8  C   UNL     1     -38.231  -8.296   1.348 -0.27 +0.00    +0.010 A  
DOCKED: ATOM      9  C   UNL     1     -37.321  -8.128   0.293 -0.29 +0.00    +0.068 A  
DOCKED: ATOM     10  N   UNL     1     -38.025  -6.781  -1.806 -2.42 -0.00    -0.191 NA 
DOCKED: ATOM     11  C   UNL     1     -37.709  -7.385  -0.864 -0.37 +0.00    +0.101 C  
DOCKED: ENDROOT
DOCKED: BRANCH   2  12
DOCKED: ATOM     12  C   UNL     1     -36.600 -11.746   3.806 -0.25 +0.00    +0.038 C  
DOCKED: BRANCH  12  13
DOCKED: ATOM     13  C   UNL     1     -36.504 -12.230   5.252 -0.18 +0.00    +0.038 C  
DOCKED: BRANCH  13  14
DOCKED: ATOM     14  C   UNL     1     -35.164 -12.916   5.513 -0.09 +0.00    +0.251 C  
DOCKED: BRANCH  14  15
DOCKED: ATOM     15  N   UNL     1     -34.900 -13.920   4.489 -0.15 +0.00    +0.141 N  
DOCKED: ATOM     16  C   UNL     1     -33.617 -14.581   4.734 -0.08 +0.00    +0.285 C  
DOCKED: ATOM     17  C   UNL     1     -35.979 -14.907   4.444 -0.21 +0.00    +0.285 C  
DOCKED: ENDBRANCH  14  15
DOCKED: ENDBRANCH  13  14
DOCKED: ENDBRANCH  12  13
DOCKED: ENDBRANCH   2  12
DOCKED: BRANCH   2  18
DOCKED: ATOM     18  C   UNL     1     -35.877  -9.651   4.936 -0.19 +0.00    +0.006 A  
DOCKED: ATOM     19  C   UNL     1     -34.637  -9.403   5.523 -0.14 +0.00    +0.001 A  
DOCKED: ATOM     20  C   UNL     1     -34.565  -8.725   6.740 -0.07 +0.00    +0.029 A  
DOCKED: ATOM     21  C   UNL     1     -35.733  -8.296   7.369 -0.09 +0.00    +0.140 A  
DOCKED: ATOM     22  C   UNL     1     -36.974  -8.544   6.781 -0.20 +0.00    +0.029 A  
DOCKED: ATOM     23  F   UNL     1     -35.665  -7.643   8.536 -0.05 -0.00    -0.204 F  
DOCKED: ATOM     24  C   UNL     1     -37.046  -9.222   5.564 -0.24 +0.00    +0.001 A  
DOCKED: ENDBRANCH   2  18
DOCKED: TORSDOF 5
DOCKED: TER
DOCKED: ENDMDL
________________________________________________________________________________


    FINAL DOCKED STATE:
    ________________________


Run:   182 / 512
Time taken for this run:   0.002s

DOCKED: MODEL        182
DOCKED: USER    Run = 182
DOCKED: USER
DOCKED: USER    Estimated Free Energy of Binding    =  -4.32 kcal/mol  [=(1)+(2)+(3)-(4)]
DOCKED: USER
DOCKED: USER    (1) Final Intermolecular Energy     =  -5.81 kcal/mol
DOCKED: USER        vdW + Hbond + desolv Energy     =  -5.81 kcal/mol
DOCKED: USER        Electrostatic Energy            =  +0.00 kcal/mol
DOCKED: USER        Moving Ligand-Fixed Receptor    =  -5.81 kcal/mol
DOCKED: USER        Moving Ligand-Moving Receptor   =  +0.00 kcal/mol
DOCKED: USER    (2) Final Total Internal Energy     =  -1.41 kcal/mol
DOCKED: USER    (3) Torsional Free Energy           =  +1.49 kcal/mol
DOCKED: USER    (4) Unbound System's Energy         =  -1.41 kcal/mol
DOCKED: USER
DOCKED: USER
DOCKED: REMARK  5 active torsions:
DOCKED: REMARK  status: ('A' for Active; 'I' for Inactive)
DOCKED: REMARK    1  A    between atoms: C_2  and  C_19 
DOCKED: REMARK    2  A    between atoms: C_2  and  C_11 
DOCKED: REMARK    3  A    between atoms: C_19  and  C_20 
DOCKED: REMARK    4  A    between atoms: C_20  and  C_21 
DOCKED: REMARK    5  A    between atoms: C_21  and  N_22 
DOCKED: USER                              x       y       z     vdW  Elec       q    Type
DOCKED: USER                           _______ _______ _______ _____ _____    ______ ____
DOCKED: ROOT
DOCKED: ATOM      1  O   UNL     1     -38.349 -13.657  10.026 -0.08 -0.00    -0.346 OA 
DOCKED: ATOM      2  C   UNL     1     -39.683 -13.708  10.627 -0.15 +0.00    +0.130 C  
DOCKED: ATOM      3  C   UNL     1     -40.177 -15.085  10.289 -0.22 +0.00    +0.004 A  
DOCKED: ATOM      4  C   UNL     1     -39.173 -15.798   9.649 -0.25 +0.00    +0.006 A  
DOCKED: ATOM      5  C   UNL     1     -37.958 -14.959   9.532 -0.08 +0.00    +0.169 C  
DOCKED: ATOM      6  C   UNL     1     -41.412 -15.665  10.538 -0.21 -0.00    -0.001 A  
DOCKED: ATOM      7  C   UNL     1     -39.368 -17.104   9.234 -0.33 +0.00    +0.008 A  
DOCKED: ATOM      8  C   UNL     1     -41.626 -16.980  10.122 -0.22 +0.00    +0.010 A  
DOCKED: ATOM      9  C   UNL     1     -40.609 -17.696   9.474 -0.26 +0.00    +0.068 A  
DOCKED: ATOM     10  N   UNL     1     -41.037 -20.138   8.720 -2.56 -0.00    -0.191 NA 
DOCKED: ATOM     11  C   UNL     1     -40.845 -19.042   9.058 -0.36 +0.00    +0.101 C  
DOCKED: ENDROOT
DOCKED: BRANCH   2  12
DOCKED: ATOM     12  C   UNL     1     -39.546 -13.479  12.127 -0.05 +0.00    +0.038 C  
DOCKED: BRANCH  12  13
DOCKED: ATOM     13  C   UNL     1     -38.146 -12.989  12.490 -0.03 +0.00    +0.038 C  
DOCKED: BRANCH  13  14
DOCKED: ATOM     14  C   UNL     1     -38.162 -11.509  12.867 -0.00 +0.00    +0.251 C  
DOCKED: BRANCH  14  15
DOCKED: ATOM     15  N   UNL     1     -39.204 -10.808  12.126 -0.01 +0.00    +0.141 N  
DOCKED: ATOM     16  C   UNL     1     -40.309 -10.439  13.013 -0.00 +0.00    +0.285 C  
DOCKED: ATOM     17  C   UNL     1     -38.659  -9.617  11.472 -0.00 +0.00    +0.285 C  
DOCKED: ENDBRANCH  14  15
DOCKED: ENDBRANCH  13  14
DOCKED: ENDBRANCH  12  13
DOCKED: ENDBRANCH   2  12
DOCKED: BRANCH   2  18
DOCKED: ATOM     18  C   UNL     1     -40.490 -12.628   9.988 -0.19 +0.00    +0.006 A  
DOCKED: ATOM     19  C   UNL     1     -39.891 -11.754   9.082 -0.15 +0.00    +0.001 A  
DOCKED: ATOM     20  C   UNL     1     -40.647 -10.744   8.485 -0.16 +0.00    +0.029 A  
DOCKED: ATOM     21  C   UNL     1     -42.000 -10.610   8.795 -0.11 +0.00    +0.140 A  
DOCKED: ATOM     22  C   UNL     1     -42.598 -11.485   9.702 -0.16 +0.00    +0.029 A  
DOCKED: ATOM     23  F   UNL     1     -42.725  -9.641   8.221 -0.02 -0.00    -0.204 F  
DOCKED: ATOM     24  C   UNL     1     -41.843 -12.495  10.299 -0.19 +0.00    +0.001 A  
DOCKED: ENDBRANCH   2  18
DOCKED: TORSDOF 5
DOCKED: TER
DOCKED: ENDMDL
________________________________________________________________________________


    FINAL DOCKED STATE:
    ________________________


Run:   183 / 512
Time taken for this run:   0.002s

DOCKED: MODEL        183
DOCKED: USER    Run = 183
DOCKED: USER
DOCKED: USER    Estimated Free Energy of Binding    =  -4.11 kcal/mol  [=(1)+(2)+(3)-(4)]
DOCKED: USER
DOCKED: USER    (1) Final Intermolecular Energy     =  -5.60 kcal/mol
DOCKED: USER        vdW + Hbond + desolv Energy     =  -5.60 kcal/mol
DOCKED: USER        Electrostatic Energy            =  +0.00 kcal/mol
DOCKED: USER        Moving Ligand-Fixed Receptor    =  -5.60 kcal/mol
DOCKED: USER        Moving Ligand-Moving Receptor   =  +0.00 kcal/mol
DOCKED: USER    (2) Final Total Internal Energy     =  -1.22 kcal/mol
DOCKED: USER    (3) Torsional Free Energy           =  +1.49 kcal/mol
DOCKED: USER    (4) Unbound System's Energy         =  -1.22 kcal/mol
DOCKED: USER
DOCKED: USER
DOCKED: REMARK  5 active torsions:
DOCKED: REMARK  status: ('A' for Active; 'I' for Inactive)
DOCKED: REMARK    1  A    between atoms: C_2  and  C_19 
DOCKED: REMARK    2  A    between atoms: C_2  and  C_11 
DOCKED: REMARK    3  A    between atoms: C_19  and  C_20 
DOCKED: REMARK    4  A    between atoms: C_20  and  C_21 
DOCKED: REMARK    5  A    between atoms: C_21  and  N_22 
DOCKED: USER                              x       y       z     vdW  Elec       q    Type
DOCKED: USER                           _______ _______ _______ _____ _____    ______ ____
DOCKED: ROOT
DOCKED: ATOM      1  O   UNL     1     -35.895 -16.520  12.109 -0.08 -0.00    -0.346 OA 
DOCKED: ATOM      2  C   UNL     1     -36.898 -15.552  11.662 -0.12 +0.00    +0.130 C  
DOCKED: ATOM      3  C   UNL     1     -37.918 -16.393  10.951 -0.20 +0.00    +0.004 A  
DOCKED: ATOM      4  C   UNL     1     -37.586 -17.735  11.075 -0.24 +0.00    +0.006 A  
DOCKED: ATOM      5  C   UNL     1     -36.349 -17.874  11.876 -0.08 +0.00    +0.169 C  
DOCKED: ATOM      6  C   UNL     1     -39.055 -16.002  10.259 -0.26 -0.00    -0.001 A  
DOCKED: ATOM      7  C   UNL     1     -38.371 -18.726  10.512 -0.35 +0.00    +0.008 A  
DOCKED: ATOM      8  C   UNL     1     -39.855 -16.990   9.682 -0.31 +0.00    +0.010 A  
DOCKED: ATOM      9  C   UNL     1     -39.515 -18.345   9.808 -0.31 +0.00    +0.068 A  
DOCKED: ATOM     10  N   UNL     1     -41.024 -20.154   8.729 -2.56 -0.00    -0.191 NA 
DOCKED: ATOM     11  C   UNL     1     -40.347 -19.343   9.213 -0.36 +0.00    +0.101 C  
DOCKED: ENDROOT
DOCKED: BRANCH   2  12
DOCKED: ATOM     12  C   UNL     1     -37.463 -14.843  12.887 -0.05 +0.00    +0.038 C  
DOCKED: BRANCH  12  13
DOCKED: ATOM     13  C   UNL     1     -38.298 -15.792  13.744 -0.04 +0.00    +0.038 C  
DOCKED: BRANCH  13  14
DOCKED: ATOM     14  C   UNL     1     -37.473 -16.360  14.898 -0.02 +0.00    +0.251 C  
DOCKED: BRANCH  14  15
DOCKED: ATOM     15  N   UNL     1     -36.082 -15.939  14.782 -0.02 +0.00    +0.141 N  
DOCKED: ATOM     16  C   UNL     1     -35.771 -14.907  15.773 -0.00 +0.00    +0.285 C  
DOCKED: ATOM     17  C   UNL     1     -35.182 -17.082  14.940 -0.03 +0.00    +0.285 C  
DOCKED: ENDBRANCH  14  15
DOCKED: ENDBRANCH  13  14
DOCKED: ENDBRANCH  12  13
DOCKED: ENDBRANCH   2  12
DOCKED: BRANCH   2  18
DOCKED: ATOM     18  C   UNL     1     -36.203 -14.591  10.757 -0.12 +0.00    +0.006 A  
DOCKED: ATOM     19  C   UNL     1     -34.979 -14.039  11.133 -0.07 +0.00    +0.001 A  
DOCKED: ATOM     20  C   UNL     1     -34.331 -13.140  10.286 -0.05 +0.00    +0.029 A  
DOCKED: ATOM     21  C   UNL     1     -34.906 -12.795   9.064 -0.06 +0.00    +0.140 A  
DOCKED: ATOM     22  C   UNL     1     -36.130 -13.348   8.687 -0.14 +0.00    +0.029 A  
DOCKED: ATOM     23  F   UNL     1     -34.282 -11.933   8.250 -0.00 -0.00    -0.204 F  
DOCKED: ATOM     24  C   UNL     1     -36.780 -14.246   9.535 -0.13 +0.00    +0.001 A  
DOCKED: ENDBRANCH   2  18
DOCKED: TORSDOF 5
DOCKED: TER
DOCKED: ENDMDL
________________________________________________________________________________


    FINAL DOCKED STATE:
    ________________________


Run:   184 / 512
Time taken for this run:   0.002s

DOCKED: MODEL        184
DOCKED: USER    Run = 184
DOCKED: USER
DOCKED: USER    Estimated Free Energy of Binding    =  -4.20 kcal/mol  [=(1)+(2)+(3)-(4)]
DOCKED: USER
DOCKED: USER    (1) Final Intermolecular Energy     =  -5.69 kcal/mol
DOCKED: USER        vdW + Hbond + desolv Energy     =  -5.69 kcal/mol
DOCKED: USER        Electrostatic Energy            =  +0.00 kcal/mol
DOCKED: USER        Moving Ligand-Fixed Receptor    =  -5.69 kcal/mol
DOCKED: USER        Moving Ligand-Moving Receptor   =  +0.00 kcal/mol
DOCKED: USER    (2) Final Total Internal Energy     =  -1.50 kcal/mol
DOCKED: USER    (3) Torsional Free Energy           =  +1.49 kcal/mol
DOCKED: USER    (4) Unbound System's Energy         =  -1.50 kcal/mol
DOCKED: USER
DOCKED: USER
DOCKED: REMARK  5 active torsions:
DOCKED: REMARK  status: ('A' for Active; 'I' for Inactive)
DOCKED: REMARK    1  A    between atoms: C_2  and  C_19 
DOCKED: REMARK    2  A    between atoms: C_2  and  C_11 
DOCKED: REMARK    3  A    between atoms: C_19  and  C_20 
DOCKED: REMARK    4  A    between atoms: C_20  and  C_21 
DOCKED: REMARK    5  A    between atoms: C_21  and  N_22 
DOCKED: USER                              x       y       z     vdW  Elec       q    Type
DOCKED: USER                           _______ _______ _______ _____ _____    ______ ____
DOCKED: ROOT
DOCKED: ATOM      1  O   UNL     1     -39.017 -14.290  11.801 -0.01 -0.00    -0.346 OA 
DOCKED: ATOM      2  C   UNL     1     -40.437 -14.243  11.449 -0.10 +0.00    +0.130 C  
DOCKED: ATOM      3  C   UNL     1     -40.688 -15.570  10.793 -0.19 +0.00    +0.004 A  
DOCKED: ATOM      4  C   UNL     1     -39.543 -16.350  10.862 -0.19 +0.00    +0.006 A  
DOCKED: ATOM      5  C   UNL     1     -38.474 -15.610  11.570 -0.11 +0.00    +0.169 C  
DOCKED: ATOM      6  C   UNL     1     -41.842 -16.052  10.192 -0.22 -0.00    -0.001 A  
DOCKED: ATOM      7  C   UNL     1     -39.509 -17.629  10.334 -0.28 +0.00    +0.008 A  
DOCKED: ATOM      8  C   UNL     1     -41.822 -17.338   9.650 -0.23 +0.00    +0.010 A  
DOCKED: ATOM      9  C   UNL     1     -40.662 -18.123   9.722 -0.24 +0.00    +0.068 A  
DOCKED: ATOM     10  N   UNL     1     -40.660 -20.508   8.711 -2.61 -0.00    -0.191 NA 
DOCKED: ATOM     11  C   UNL     1     -40.661 -19.438   9.164 -0.33 +0.00    +0.101 C  
DOCKED: ENDROOT
DOCKED: BRANCH   2  12
DOCKED: ATOM     12  C   UNL     1     -41.245 -14.051  12.727 -0.04 +0.00    +0.038 C  
DOCKED: BRANCH  12  13
DOCKED: ATOM     13  C   UNL     1     -41.041 -15.215  13.695 -0.03 +0.00    +0.038 C  
DOCKED: BRANCH  13  14
DOCKED: ATOM     14  C   UNL     1     -42.243 -16.157  13.682 -0.01 +0.00    +0.251 C  
DOCKED: BRANCH  14  15
DOCKED: ATOM     15  N   UNL     1     -41.851 -17.473  13.190 -0.04 +0.00    +0.141 N  
DOCKED: ATOM     16  C   UNL     1     -40.907 -18.107  14.111 -0.04 +0.00    +0.285 C  
DOCKED: ATOM     17  C   UNL     1     -43.027 -18.324  13.003 -0.03 +0.00    +0.285 C  
DOCKED: ENDBRANCH  14  15
DOCKED: ENDBRANCH  13  14
DOCKED: ENDBRANCH  12  13
DOCKED: ENDBRANCH   2  12
DOCKED: BRANCH   2  18
DOCKED: ATOM     18  C   UNL     1     -40.618 -13.090  10.519 -0.18 +0.00    +0.006 A  
DOCKED: ATOM     19  C   UNL     1     -41.889 -12.557  10.310 -0.20 +0.00    +0.001 A  
DOCKED: ATOM     20  C   UNL     1     -42.057 -11.479   9.440 -0.17 +0.00    +0.029 A  
DOCKED: ATOM     21  C   UNL     1     -40.955 -10.937   8.781 -0.12 +0.00    +0.140 A  
DOCKED: ATOM     22  C   UNL     1     -39.684 -11.470   8.991 -0.14 +0.00    +0.029 A  
DOCKED: ATOM     23  F   UNL     1     -41.117  -9.901   7.947 -0.03 -0.00    -0.204 F  
DOCKED: ATOM     24  C   UNL     1     -39.515 -12.549   9.861 -0.16 +0.00    +0.001 A  
DOCKED: ENDBRANCH   2  18
DOCKED: TORSDOF 5
DOCKED: TER
DOCKED: ENDMDL
________________________________________________________________________________


    FINAL DOCKED STATE:
    ________________________


Run:   185 / 512
Time taken for this run:   0.002s

DOCKED: MODEL        185
DOCKED: USER    Run = 185
DOCKED: USER
DOCKED: USER    Estimated Free Energy of Binding    =  -3.34 kcal/mol  [=(1)+(2)+(3)-(4)]
DOCKED: USER
DOCKED: USER    (1) Final Intermolecular Energy     =  -4.83 kcal/mol
DOCKED: USER        vdW + Hbond + desolv Energy     =  -4.83 kcal/mol
DOCKED: USER        Electrostatic Energy            =  +0.00 kcal/mol
DOCKED: USER        Moving Ligand-Fixed Receptor    =  -4.83 kcal/mol
DOCKED: USER        Moving Ligand-Moving Receptor   =  +0.00 kcal/mol
DOCKED: USER    (2) Final Total Internal Energy     =  -1.03 kcal/mol
DOCKED: USER    (3) Torsional Free Energy           =  +1.49 kcal/mol
DOCKED: USER    (4) Unbound System's Energy         =  -1.03 kcal/mol
DOCKED: USER
DOCKED: USER
DOCKED: REMARK  5 active torsions:
DOCKED: REMARK  status: ('A' for Active; 'I' for Inactive)
DOCKED: REMARK    1  A    between atoms: C_2  and  C_19 
DOCKED: REMARK    2  A    between atoms: C_2  and  C_11 
DOCKED: REMARK    3  A    between atoms: C_19  and  C_20 
DOCKED: REMARK    4  A    between atoms: C_20  and  C_21 
DOCKED: REMARK    5  A    between atoms: C_21  and  N_22 
DOCKED: USER                              x       y       z     vdW  Elec       q    Type
DOCKED: USER                           _______ _______ _______ _____ _____    ______ ____
DOCKED: ROOT
DOCKED: ATOM      1  O   UNL     1     -32.487  -7.174   2.589 -0.05 -0.00    -0.346 OA 
DOCKED: ATOM      2  C   UNL     1     -32.779  -8.553   2.196 -0.07 +0.00    +0.130 C  
DOCKED: ATOM      3  C   UNL     1     -33.980  -8.427   1.305 -0.13 +0.00    +0.004 A  
DOCKED: ATOM      4  C   UNL     1     -34.281  -7.085   1.115 -0.19 +0.00    +0.006 A  
DOCKED: ATOM      5  C   UNL     1     -33.307  -6.244   1.846 -0.15 +0.00    +0.169 C  
DOCKED: ATOM      6  C   UNL     1     -34.738  -9.419   0.701 -0.17 -0.00    -0.001 A  
DOCKED: ATOM      7  C   UNL     1     -35.346  -6.691   0.323 -0.30 +0.00    +0.008 A  
DOCKED: ATOM      8  C   UNL     1     -35.819  -9.037  -0.097 -0.07 +0.00    +0.010 A  
DOCKED: ATOM      9  C   UNL     1     -36.121  -7.680  -0.285 -0.32 +0.00    +0.068 A  
DOCKED: ATOM     10  N   UNL     1     -38.130  -7.007  -1.776 -2.54 -0.00    -0.191 NA 
DOCKED: ATOM     11  C   UNL     1     -37.229  -7.309  -1.106 -0.43 +0.00    +0.101 C  
DOCKED: ENDROOT
DOCKED: BRANCH   2  12
DOCKED: ATOM     12  C   UNL     1     -31.561  -9.118   1.475 -0.02 +0.00    +0.038 C  
DOCKED: BRANCH  12  13
DOCKED: ATOM     13  C   UNL     1     -31.290  -8.370   0.171 -0.02 +0.00    +0.038 C  
DOCKED: BRANCH  13  14
DOCKED: ATOM     14  C   UNL     1     -30.098  -8.972  -0.571 +0.00 +0.00    +0.251 C  
DOCKED: BRANCH  14  15
DOCKED: ATOM     15  N   UNL     1     -30.396 -10.338  -0.985 -0.00 +0.00    +0.141 N  
DOCKED: ATOM     16  C   UNL     1     -30.823 -10.371  -2.385 +0.00 +0.00    +0.285 C  
DOCKED: ATOM     17  C   UNL     1     -29.230 -11.202  -0.790 +0.00 +0.00    +0.285 C  
DOCKED: ENDBRANCH  14  15
DOCKED: ENDBRANCH  13  14
DOCKED: ENDBRANCH  12  13
DOCKED: ENDBRANCH   2  12
DOCKED: BRANCH   2  18
DOCKED: ATOM     18  C   UNL     1     -33.062  -9.313   3.449 -0.09 +0.00    +0.006 A  
DOCKED: ATOM     19  C   UNL     1     -32.961  -8.678   4.687 -0.11 +0.00    +0.001 A  
DOCKED: ATOM     20  C   UNL     1     -33.226  -9.390   5.857 -0.08 +0.00    +0.029 A  
DOCKED: ATOM     21  C   UNL     1     -33.592 -10.734   5.789 -0.03 +0.00    +0.140 A  
DOCKED: ATOM     22  C   UNL     1     -33.693 -11.368   4.551 -0.04 +0.00    +0.029 A  
DOCKED: ATOM     23  F   UNL     1     -33.847 -11.416   6.913 +0.00 -0.00    -0.204 F  
DOCKED: ATOM     24  C   UNL     1     -33.427 -10.657   3.379 -0.05 +0.00    +0.001 A  
DOCKED: ENDBRANCH   2  18
DOCKED: TORSDOF 5
DOCKED: TER
DOCKED: ENDMDL
________________________________________________________________________________


    FINAL DOCKED STATE:
    ________________________


Run:   186 / 512
Time taken for this run:   0.002s

DOCKED: MODEL        186
DOCKED: USER    Run = 186
DOCKED: USER
DOCKED: USER    Estimated Free Energy of Binding    =  -4.17 kcal/mol  [=(1)+(2)+(3)-(4)]
DOCKED: USER
DOCKED: USER    (1) Final Intermolecular Energy     =  -5.66 kcal/mol
DOCKED: USER        vdW + Hbond + desolv Energy     =  -5.66 kcal/mol
DOCKED: USER        Electrostatic Energy            =  +0.00 kcal/mol
DOCKED: USER        Moving Ligand-Fixed Receptor    =  -5.66 kcal/mol
DOCKED: USER        Moving Ligand-Moving Receptor   =  +0.00 kcal/mol
DOCKED: USER    (2) Final Total Internal Energy     =  -0.96 kcal/mol
DOCKED: USER    (3) Torsional Free Energy           =  +1.49 kcal/mol
DOCKED: USER    (4) Unbound System's Energy         =  -0.96 kcal/mol
DOCKED: USER
DOCKED: USER
DOCKED: REMARK  5 active torsions:
DOCKED: REMARK  status: ('A' for Active; 'I' for Inactive)
DOCKED: REMARK    1  A    between atoms: C_2  and  C_19 
DOCKED: REMARK    2  A    between atoms: C_2  and  C_11 
DOCKED: REMARK    3  A    between atoms: C_19  and  C_20 
DOCKED: REMARK    4  A    between atoms: C_20  and  C_21 
DOCKED: REMARK    5  A    between atoms: C_21  and  N_22 
DOCKED: USER                              x       y       z     vdW  Elec       q    Type
DOCKED: USER                           _______ _______ _______ _____ _____    ______ ____
DOCKED: ROOT
DOCKED: ATOM      1  O   UNL     1     -41.555 -13.761  10.989 -0.06 -0.00    -0.346 OA 
DOCKED: ATOM      2  C   UNL     1     -40.120 -14.049  10.967 -0.14 +0.00    +0.130 C  
DOCKED: ATOM      3  C   UNL     1     -40.046 -15.475  10.504 -0.21 +0.00    +0.004 A  
DOCKED: ATOM      4  C   UNL     1     -41.318 -15.928  10.182 -0.22 +0.00    +0.006 A  
DOCKED: ATOM      5  C   UNL     1     -42.305 -14.846  10.394 -0.19 +0.00    +0.169 C  
DOCKED: ATOM      6  C   UNL     1     -38.941 -16.302  10.366 -0.26 -0.00    -0.001 A  
DOCKED: ATOM      7  C   UNL     1     -41.529 -17.216   9.719 -0.23 +0.00    +0.008 A  
DOCKED: ATOM      8  C   UNL     1     -39.137 -17.605   9.905 -0.32 +0.00    +0.010 A  
DOCKED: ATOM      9  C   UNL     1     -40.425 -18.059   9.582 -0.27 +0.00    +0.068 A  
DOCKED: ATOM     10  N   UNL     1     -40.754 -20.481   8.724 -2.59 -0.00    -0.191 NA 
DOCKED: ATOM     11  C   UNL     1     -40.607 -19.395   9.109 -0.37 +0.00    +0.101 C  
DOCKED: ENDROOT
DOCKED: BRANCH   2  12
DOCKED: ATOM     12  C   UNL     1     -39.447 -13.077  10.006 -0.17 +0.00    +0.038 C  
DOCKED: BRANCH  12  13
DOCKED: ATOM     13  C   UNL     1     -40.442 -12.054   9.461 -0.19 +0.00    +0.038 C  
DOCKED: BRANCH  13  14
DOCKED: ATOM     14  C   UNL     1     -39.821 -11.230   8.335 -0.05 +0.00    +0.251 C  
DOCKED: BRANCH  14  15
DOCKED: ATOM     15  N   UNL     1     -40.605 -10.024   8.097 -0.13 +0.00    +0.141 N  
DOCKED: ATOM     16  C   UNL     1     -40.092  -8.910   8.896 -0.02 +0.00    +0.285 C  
DOCKED: ATOM     17  C   UNL     1     -40.597  -9.675   6.675 -0.14 +0.00    +0.285 C  
DOCKED: ENDBRANCH  14  15
DOCKED: ENDBRANCH  13  14
DOCKED: ENDBRANCH  12  13
DOCKED: ENDBRANCH   2  12
DOCKED: BRANCH   2  18
DOCKED: ATOM     18  C   UNL     1     -39.617 -13.864  12.360 -0.04 +0.00    +0.006 A  
DOCKED: ATOM     19  C   UNL     1     -40.244 -14.518  13.420 -0.02 +0.00    +0.001 A  
DOCKED: ATOM     20  C   UNL     1     -39.773 -14.344  14.722 -0.00 +0.00    +0.029 A  
DOCKED: ATOM     21  C   UNL     1     -38.677 -13.517  14.962 -0.00 +0.00    +0.140 A  
DOCKED: ATOM     22  C   UNL     1     -38.050 -12.864  13.901 -0.00 +0.00    +0.029 A  
DOCKED: ATOM     23  F   UNL     1     -38.224 -13.352  16.211 +0.00 -0.00    -0.204 F  
DOCKED: ATOM     24  C   UNL     1     -38.521 -13.037  12.599 -0.02 +0.00    +0.001 A  
DOCKED: ENDBRANCH   2  18
DOCKED: TORSDOF 5
DOCKED: TER
DOCKED: ENDMDL
________________________________________________________________________________


    FINAL DOCKED STATE:
    ________________________


Run:   187 / 512
Time taken for this run:   0.002s

DOCKED: MODEL        187
DOCKED: USER    Run = 187
DOCKED: USER
DOCKED: USER    Estimated Free Energy of Binding    =  -4.23 kcal/mol  [=(1)+(2)+(3)-(4)]
DOCKED: USER
DOCKED: USER    (1) Final Intermolecular Energy     =  -5.72 kcal/mol
DOCKED: USER        vdW + Hbond + desolv Energy     =  -5.72 kcal/mol
DOCKED: USER        Electrostatic Energy            =  +0.00 kcal/mol
DOCKED: USER        Moving Ligand-Fixed Receptor    =  -5.72 kcal/mol
DOCKED: USER        Moving Ligand-Moving Receptor   =  +0.00 kcal/mol
DOCKED: USER    (2) Final Total Internal Energy     =  -1.46 kcal/mol
DOCKED: USER    (3) Torsional Free Energy           =  +1.49 kcal/mol
DOCKED: USER    (4) Unbound System's Energy         =  -1.46 kcal/mol
DOCKED: USER
DOCKED: USER
DOCKED: REMARK  5 active torsions:
DOCKED: REMARK  status: ('A' for Active; 'I' for Inactive)
DOCKED: REMARK    1  A    between atoms: C_2  and  C_19 
DOCKED: REMARK    2  A    between atoms: C_2  and  C_11 
DOCKED: REMARK    3  A    between atoms: C_19  and  C_20 
DOCKED: REMARK    4  A    between atoms: C_20  and  C_21 
DOCKED: REMARK    5  A    between atoms: C_21  and  N_22 
DOCKED: USER                              x       y       z     vdW  Elec       q    Type
DOCKED: USER                           _______ _______ _______ _____ _____    ______ ____
DOCKED: ROOT
DOCKED: ATOM      1  O   UNL     1     -36.201 -16.024  11.769 -0.08 -0.00    -0.346 OA 
DOCKED: ATOM      2  C   UNL     1     -37.230 -15.170  11.173 -0.13 +0.00    +0.130 C  
DOCKED: ATOM      3  C   UNL     1     -38.186 -16.143  10.546 -0.22 +0.00    +0.004 A  
DOCKED: ATOM      4  C   UNL     1     -37.798 -17.441  10.850 -0.22 +0.00    +0.006 A  
DOCKED: ATOM      5  C   UNL     1     -36.585 -17.416  11.698 -0.17 +0.00    +0.169 C  
DOCKED: ATOM      6  C   UNL     1     -39.314 -15.900   9.776 -0.28 -0.00    -0.001 A  
DOCKED: ATOM      7  C   UNL     1     -38.517 -18.533  10.397 -0.34 +0.00    +0.008 A  
DOCKED: ATOM      8  C   UNL     1     -40.047 -16.991   9.307 -0.31 +0.00    +0.010 A  
DOCKED: ATOM      9  C   UNL     1     -39.651 -18.301   9.617 -0.31 +0.00    +0.068 A  
DOCKED: ATOM     10  N   UNL     1     -41.038 -20.304   8.734 -2.55 -0.00    -0.191 NA 
DOCKED: ATOM     11  C   UNL     1     -40.416 -19.406   9.130 -0.36 +0.00    +0.101 C  
DOCKED: ENDROOT
DOCKED: BRANCH   2  12
DOCKED: ATOM     12  C   UNL     1     -37.870 -14.340  12.280 -0.06 +0.00    +0.038 C  
DOCKED: BRANCH  12  13
DOCKED: ATOM     13  C   UNL     1     -37.291 -14.696  13.648 -0.02 +0.00    +0.038 C  
DOCKED: BRANCH  13  14
DOCKED: ATOM     14  C   UNL     1     -36.123 -13.779  14.006 -0.00 +0.00    +0.251 C  
DOCKED: BRANCH  14  15
DOCKED: ATOM     15  N   UNL     1     -35.833 -12.872  12.901 -0.01 +0.00    +0.141 N  
DOCKED: ATOM     16  C   UNL     1     -36.414 -11.552  13.151 -0.00 +0.00    +0.285 C  
DOCKED: ATOM     17  C   UNL     1     -34.389 -12.760  12.692 -0.00 +0.00    +0.285 C  
DOCKED: ENDBRANCH  14  15
DOCKED: ENDBRANCH  13  14
DOCKED: ENDBRANCH  12  13
DOCKED: ENDBRANCH   2  12
DOCKED: BRANCH   2  18
DOCKED: ATOM     18  C   UNL     1     -36.548 -14.298  10.173 -0.14 +0.00    +0.006 A  
DOCKED: ATOM     19  C   UNL     1     -37.254 -13.273   9.545 -0.15 +0.00    +0.001 A  
DOCKED: ATOM     20  C   UNL     1     -36.615 -12.459   8.609 -0.11 +0.00    +0.029 A  
DOCKED: ATOM     21  C   UNL     1     -35.271 -12.670   8.303 -0.08 +0.00    +0.140 A  
DOCKED: ATOM     22  C   UNL     1     -34.565 -13.695   8.932 -0.10 +0.00    +0.029 A  
DOCKED: ATOM     23  F   UNL     1     -34.658 -11.887   7.407 -0.00 -0.00    -0.204 F  
DOCKED: ATOM     24  C   UNL     1     -35.204 -14.511   9.867 -0.07 +0.00    +0.001 A  
DOCKED: ENDBRANCH   2  18
DOCKED: TORSDOF 5
DOCKED: TER
DOCKED: ENDMDL
________________________________________________________________________________


    FINAL DOCKED STATE:
    ________________________


Run:   188 / 512
Time taken for this run:   0.002s

DOCKED: MODEL        188
DOCKED: USER    Run = 188
DOCKED: USER
DOCKED: USER    Estimated Free Energy of Binding    =  -4.91 kcal/mol  [=(1)+(2)+(3)-(4)]
DOCKED: USER
DOCKED: USER    (1) Final Intermolecular Energy     =  -6.40 kcal/mol
DOCKED: USER        vdW + Hbond + desolv Energy     =  -6.40 kcal/mol
DOCKED: USER        Electrostatic Energy            =  +0.00 kcal/mol
DOCKED: USER        Moving Ligand-Fixed Receptor    =  -6.40 kcal/mol
DOCKED: USER        Moving Ligand-Moving Receptor   =  +0.00 kcal/mol
DOCKED: USER    (2) Final Total Internal Energy     =  -1.29 kcal/mol
DOCKED: USER    (3) Torsional Free Energy           =  +1.49 kcal/mol
DOCKED: USER    (4) Unbound System's Energy         =  -1.29 kcal/mol
DOCKED: USER
DOCKED: USER
DOCKED: REMARK  5 active torsions:
DOCKED: REMARK  status: ('A' for Active; 'I' for Inactive)
DOCKED: REMARK    1  A    between atoms: C_2  and  C_19 
DOCKED: REMARK    2  A    between atoms: C_2  and  C_11 
DOCKED: REMARK    3  A    between atoms: C_19  and  C_20 
DOCKED: REMARK    4  A    between atoms: C_20  and  C_21 
DOCKED: REMARK    5  A    between atoms: C_21  and  N_22 
DOCKED: USER                              x       y       z     vdW  Elec       q    Type
DOCKED: USER                           _______ _______ _______ _____ _____    ______ ____
DOCKED: ROOT
DOCKED: ATOM      1  O   UNL     1     -38.241 -18.771  12.007 -0.09 -0.00    -0.346 OA 
DOCKED: ATOM      2  C   UNL     1     -38.517 -17.420  11.518 -0.19 +0.00    +0.130 C  
DOCKED: ATOM      3  C   UNL     1     -39.059 -17.641  10.136 -0.31 +0.00    +0.004 A  
DOCKED: ATOM      4  C   UNL     1     -39.187 -19.002   9.896 -0.39 +0.00    +0.006 A  
DOCKED: ATOM      5  C   UNL     1     -38.757 -19.764  11.090 -0.26 +0.00    +0.169 C  
DOCKED: ATOM      6  C   UNL     1     -39.421 -16.711   9.171 -0.31 -0.00    -0.001 A  
DOCKED: ATOM      7  C   UNL     1     -39.673 -19.479   8.691 -0.46 +0.00    +0.008 A  
DOCKED: ATOM      8  C   UNL     1     -39.909 -17.177   7.949 -0.04 +0.00    +0.010 A  
DOCKED: ATOM      9  C   UNL     1     -40.035 -18.553   7.711 -0.40 +0.00    +0.068 A  
DOCKED: ATOM     10  N   UNL     1     -40.950 -19.383   5.433 -2.18 -0.00    -0.191 NA 
DOCKED: ATOM     11  C   UNL     1     -40.539 -19.011   6.455 -0.49 +0.00    +0.101 C  
DOCKED: ENDROOT
DOCKED: BRANCH   2  12
DOCKED: ATOM     12  C   UNL     1     -39.526 -16.764  12.454 -0.10 +0.00    +0.038 C  
DOCKED: BRANCH  12  13
DOCKED: ATOM     13  C   UNL     1     -38.920 -16.501  13.831 -0.05 +0.00    +0.038 C  
DOCKED: BRANCH  13  14
DOCKED: ATOM     14  C   UNL     1     -38.666 -17.808  14.579 -0.06 +0.00    +0.251 C  
DOCKED: BRANCH  14  15
DOCKED: ATOM     15  N   UNL     1     -39.866 -18.636  14.574 -0.09 +0.00    +0.141 N  
DOCKED: ATOM     16  C   UNL     1     -39.555 -19.999  15.009 -0.08 +0.00    +0.285 C  
DOCKED: ATOM     17  C   UNL     1     -40.899 -18.053  15.432 -0.02 +0.00    +0.285 C  
DOCKED: ENDBRANCH  14  15
DOCKED: ENDBRANCH  13  14
DOCKED: ENDBRANCH  12  13
DOCKED: ENDBRANCH   2  12
DOCKED: BRANCH   2  18
DOCKED: ATOM     18  C   UNL     1     -37.220 -16.681  11.523 -0.19 +0.00    +0.006 A  
DOCKED: ATOM     19  C   UNL     1     -37.159 -15.377  11.033 -0.15 +0.00    +0.001 A  
DOCKED: ATOM     20  C   UNL     1     -35.945 -14.688  11.038 -0.11 +0.00    +0.029 A  
DOCKED: ATOM     21  C   UNL     1     -34.796 -15.303  11.533 -0.08 +0.00    +0.140 A  
DOCKED: ATOM     22  C   UNL     1     -34.858 -16.607  12.023 -0.14 +0.00    +0.029 A  
DOCKED: ATOM     23  F   UNL     1     -33.632 -14.641  11.539 -0.01 -0.00    -0.204 F  
DOCKED: ATOM     24  C   UNL     1     -36.071 -17.298  12.018 -0.19 +0.00    +0.001 A  
DOCKED: ENDBRANCH   2  18
DOCKED: TORSDOF 5
DOCKED: TER
DOCKED: ENDMDL
________________________________________________________________________________


    FINAL DOCKED STATE:
    ________________________


Run:   189 / 512
Time taken for this run:   0.002s

DOCKED: MODEL        189
DOCKED: USER    Run = 189
DOCKED: USER
DOCKED: USER    Estimated Free Energy of Binding    =  -4.09 kcal/mol  [=(1)+(2)+(3)-(4)]
DOCKED: USER
DOCKED: USER    (1) Final Intermolecular Energy     =  -5.58 kcal/mol
DOCKED: USER        vdW + Hbond + desolv Energy     =  -5.58 kcal/mol
DOCKED: USER        Electrostatic Energy            =  +0.00 kcal/mol
DOCKED: USER        Moving Ligand-Fixed Receptor    =  -5.58 kcal/mol
DOCKED: USER        Moving Ligand-Moving Receptor   =  +0.00 kcal/mol
DOCKED: USER    (2) Final Total Internal Energy     =  -0.99 kcal/mol
DOCKED: USER    (3) Torsional Free Energy           =  +1.49 kcal/mol
DOCKED: USER    (4) Unbound System's Energy         =  -0.99 kcal/mol
DOCKED: USER
DOCKED: USER
DOCKED: REMARK  5 active torsions:
DOCKED: REMARK  status: ('A' for Active; 'I' for Inactive)
DOCKED: REMARK    1  A    between atoms: C_2  and  C_19 
DOCKED: REMARK    2  A    between atoms: C_2  and  C_11 
DOCKED: REMARK    3  A    between atoms: C_19  and  C_20 
DOCKED: REMARK    4  A    between atoms: C_20  and  C_21 
DOCKED: REMARK    5  A    between atoms: C_21  and  N_22 
DOCKED: USER                              x       y       z     vdW  Elec       q    Type
DOCKED: USER                           _______ _______ _______ _____ _____    ______ ____
DOCKED: ROOT
DOCKED: ATOM      1  O   UNL     1     -39.962 -15.866  12.465 -0.00 -0.00    -0.346 OA 
DOCKED: ATOM      2  C   UNL     1     -38.963 -16.935  12.407 -0.09 +0.00    +0.130 C  
DOCKED: ATOM      3  C   UNL     1     -39.179 -17.555  11.057 -0.22 +0.00    +0.004 A  
DOCKED: ATOM      4  C   UNL     1     -40.139 -16.836  10.360 -0.24 +0.00    +0.006 A  
DOCKED: ATOM      5  C   UNL     1     -40.610 -15.699  11.183 -0.12 +0.00    +0.169 C  
DOCKED: ATOM      6  C   UNL     1     -38.565 -18.661  10.487 -0.35 -0.00    -0.001 A  
DOCKED: ATOM      7  C   UNL     1     -40.521 -17.196   9.079 -0.27 +0.00    +0.008 A  
DOCKED: ATOM      8  C   UNL     1     -38.943 -19.040   9.197 -0.36 +0.00    +0.010 A  
DOCKED: ATOM      9  C   UNL     1     -39.915 -18.310   8.497 -0.37 +0.00    +0.068 A  
DOCKED: ATOM     10  N   UNL     1     -40.589 -19.038   6.103 -1.86 -0.00    -0.191 NA 
DOCKED: ATOM     11  C   UNL     1     -40.287 -18.712   7.177 -0.51 +0.00    +0.101 C  
DOCKED: ENDROOT
DOCKED: BRANCH   2  12
DOCKED: ATOM     12  C   UNL     1     -37.580 -16.312  12.560 -0.12 +0.00    +0.038 C  
DOCKED: BRANCH  12  13
DOCKED: ATOM     13  C   UNL     1     -36.488 -17.248  12.046 -0.21 +0.00    +0.038 C  
DOCKED: BRANCH  13  14
DOCKED: ATOM     14  C   UNL     1     -35.378 -16.465  11.347 +0.01 +0.00    +0.251 C  
DOCKED: BRANCH  14  15
DOCKED: ATOM     15  N   UNL     1     -35.494 -15.043  11.648 -0.08 +0.00    +0.141 N  
DOCKED: ATOM     16  C   UNL     1     -34.195 -14.490  12.034 -0.03 +0.00    +0.285 C  
DOCKED: ATOM     17  C   UNL     1     -36.033 -14.314  10.499 -0.08 +0.00    +0.285 C  
DOCKED: ENDBRANCH  14  15
DOCKED: ENDBRANCH  13  14
DOCKED: ENDBRANCH  12  13
DOCKED: ENDBRANCH   2  12
DOCKED: BRANCH   2  18
DOCKED: ATOM     18  C   UNL     1     -39.260 -17.871  13.531 -0.11 +0.00    +0.006 A  
DOCKED: ATOM     19  C   UNL     1     -38.588 -17.736  14.745 -0.08 +0.00    +0.001 A  
DOCKED: ATOM     20  C   UNL     1     -38.866 -18.612  15.795 -0.10 +0.00    +0.029 A  
DOCKED: ATOM     21  C   UNL     1     -39.815 -19.620  15.630 -0.12 +0.00    +0.140 A  
DOCKED: ATOM     22  C   UNL     1     -40.487 -19.753  14.415 -0.05 +0.00    +0.029 A  
DOCKED: ATOM     23  F   UNL     1     -40.083 -20.459  16.639 -0.03 -0.00    -0.204 F  
DOCKED: ATOM     24  C   UNL     1     -40.209 -18.878  13.364 -0.18 +0.00    +0.001 A  
DOCKED: ENDBRANCH   2  18
DOCKED: TORSDOF 5
DOCKED: TER
DOCKED: ENDMDL
________________________________________________________________________________


    FINAL DOCKED STATE:
    ________________________


Run:   190 / 512
Time taken for this run:   0.002s

DOCKED: MODEL        190
DOCKED: USER    Run = 190
DOCKED: USER
DOCKED: USER    Estimated Free Energy of Binding    =  -4.49 kcal/mol  [=(1)+(2)+(3)-(4)]
DOCKED: USER
DOCKED: USER    (1) Final Intermolecular Energy     =  -5.99 kcal/mol
DOCKED: USER        vdW + Hbond + desolv Energy     =  -5.99 kcal/mol
DOCKED: USER        Electrostatic Energy            =  +0.00 kcal/mol
DOCKED: USER        Moving Ligand-Fixed Receptor    =  -5.99 kcal/mol
DOCKED: USER        Moving Ligand-Moving Receptor   =  +0.00 kcal/mol
DOCKED: USER    (2) Final Total Internal Energy     =  -1.42 kcal/mol
DOCKED: USER    (3) Torsional Free Energy           =  +1.49 kcal/mol
DOCKED: USER    (4) Unbound System's Energy         =  -1.42 kcal/mol
DOCKED: USER
DOCKED: USER
DOCKED: REMARK  5 active torsions:
DOCKED: REMARK  status: ('A' for Active; 'I' for Inactive)
DOCKED: REMARK    1  A    between atoms: C_2  and  C_19 
DOCKED: REMARK    2  A    between atoms: C_2  and  C_11 
DOCKED: REMARK    3  A    between atoms: C_19  and  C_20 
DOCKED: REMARK    4  A    between atoms: C_20  and  C_21 
DOCKED: REMARK    5  A    between atoms: C_21  and  N_22 
DOCKED: USER                              x       y       z     vdW  Elec       q    Type
DOCKED: USER                           _______ _______ _______ _____ _____    ______ ____
DOCKED: ROOT
DOCKED: ATOM      1  O   UNL     1     -40.525 -19.068  12.331 -0.09 -0.00    -0.346 OA 
DOCKED: ATOM      2  C   UNL     1     -40.142 -17.759  11.801 -0.12 +0.00    +0.130 C  
DOCKED: ATOM      3  C   UNL     1     -40.274 -17.921  10.314 -0.25 +0.00    +0.004 A  
DOCKED: ATOM      4  C   UNL     1     -40.792 -19.175  10.025 -0.26 +0.00    +0.006 A  
DOCKED: ATOM      5  C   UNL     1     -41.048 -19.915  11.282 -0.06 +0.00    +0.169 C  
DOCKED: ATOM      6  C   UNL     1     -39.970 -17.025   9.299 -0.33 -0.00    -0.001 A  
DOCKED: ATOM      7  C   UNL     1     -41.020 -19.578   8.720 -0.38 +0.00    +0.008 A  
DOCKED: ATOM      8  C   UNL     1     -40.190 -17.418   7.977 -0.11 +0.00    +0.010 A  
DOCKED: ATOM      9  C   UNL     1     -40.713 -18.688   7.690 -0.41 +0.00    +0.068 A  
DOCKED: ATOM     10  N   UNL     1     -41.113 -19.384   5.227 -2.45 -0.00    -0.191 NA 
DOCKED: ATOM     11  C   UNL     1     -40.933 -19.072   6.332 -0.37 +0.00    +0.101 C  
DOCKED: ENDROOT
DOCKED: BRANCH   2  12
DOCKED: ATOM     12  C   UNL     1     -41.091 -16.711  12.370 -0.09 +0.00    +0.038 C  
DOCKED: BRANCH  12  13
DOCKED: ATOM     13  C   UNL     1     -42.186 -17.354  13.219 -0.07 +0.00    +0.038 C  
DOCKED: BRANCH  13  14
DOCKED: ATOM     14  C   UNL     1     -41.944 -17.106  14.707 -0.01 +0.00    +0.251 C  
DOCKED: BRANCH  14  15
DOCKED: ATOM     15  N   UNL     1     -41.770 -18.372  15.410 -0.05 +0.00    +0.141 N  
DOCKED: ATOM     16  C   UNL     1     -42.317 -19.479  14.623 -0.06 +0.00    +0.285 C  
DOCKED: ATOM     17  C   UNL     1     -40.356 -18.609  15.705 -0.04 +0.00    +0.285 C  
DOCKED: ENDBRANCH  14  15
DOCKED: ENDBRANCH  13  14
DOCKED: ENDBRANCH  12  13
DOCKED: ENDBRANCH   2  12
DOCKED: BRANCH   2  18
DOCKED: ATOM     18  C   UNL     1     -38.737 -17.505  12.236 -0.15 +0.00    +0.006 A  
DOCKED: ATOM     19  C   UNL     1     -38.488 -16.882  13.458 -0.08 +0.00    +0.001 A  
DOCKED: ATOM     20  C   UNL     1     -37.174 -16.646  13.863 -0.07 +0.00    +0.029 A  
DOCKED: ATOM     21  C   UNL     1     -36.112 -17.032  13.047 -0.10 +0.00    +0.140 A  
DOCKED: ATOM     22  C   UNL     1     -36.362 -17.656  11.825 -0.16 +0.00    +0.029 A  
DOCKED: ATOM     23  F   UNL     1     -34.851 -16.807  13.437 -0.01 -0.00    -0.204 F  
DOCKED: ATOM     24  C   UNL     1     -37.676 -17.892  11.418 -0.26 +0.00    +0.001 A  
DOCKED: ENDBRANCH   2  18
DOCKED: TORSDOF 5
DOCKED: TER
DOCKED: ENDMDL
________________________________________________________________________________


    FINAL DOCKED STATE:
    ________________________


Run:   191 / 512
Time taken for this run:   0.002s

DOCKED: MODEL        191
DOCKED: USER    Run = 191
DOCKED: USER
DOCKED: USER    Estimated Free Energy of Binding    =  -3.71 kcal/mol  [=(1)+(2)+(3)-(4)]
DOCKED: USER
DOCKED: USER    (1) Final Intermolecular Energy     =  -5.20 kcal/mol
DOCKED: USER        vdW + Hbond + desolv Energy     =  -5.20 kcal/mol
DOCKED: USER        Electrostatic Energy            =  +0.00 kcal/mol
DOCKED: USER        Moving Ligand-Fixed Receptor    =  -5.20 kcal/mol
DOCKED: USER        Moving Ligand-Moving Receptor   =  +0.00 kcal/mol
DOCKED: USER    (2) Final Total Internal Energy     =  -1.28 kcal/mol
DOCKED: USER    (3) Torsional Free Energy           =  +1.49 kcal/mol
DOCKED: USER    (4) Unbound System's Energy         =  -1.28 kcal/mol
DOCKED: USER
DOCKED: USER
DOCKED: REMARK  5 active torsions:
DOCKED: REMARK  status: ('A' for Active; 'I' for Inactive)
DOCKED: REMARK    1  A    between atoms: C_2  and  C_19 
DOCKED: REMARK    2  A    between atoms: C_2  and  C_11 
DOCKED: REMARK    3  A    between atoms: C_19  and  C_20 
DOCKED: REMARK    4  A    between atoms: C_20  and  C_21 
DOCKED: REMARK    5  A    between atoms: C_21  and  N_22 
DOCKED: USER                              x       y       z     vdW  Elec       q    Type
DOCKED: USER                           _______ _______ _______ _____ _____    ______ ____
DOCKED: ROOT
DOCKED: ATOM      1  O   UNL     1     -33.825  -9.631   2.506 -0.02 -0.00    -0.346 OA 
DOCKED: ATOM      2  C   UNL     1     -33.121  -9.614   1.223 -0.04 +0.00    +0.130 C  
DOCKED: ATOM      3  C   UNL     1     -34.108  -8.993   0.278 -0.12 +0.00    +0.004 A  
DOCKED: ATOM      4  C   UNL     1     -35.235  -8.588   0.980 -0.22 +0.00    +0.006 A  
DOCKED: ATOM      5  C   UNL     1     -35.069  -8.897   2.418 -0.14 +0.00    +0.169 C  
DOCKED: ATOM      6  C   UNL     1     -34.012  -8.791  -1.091 -0.13 -0.00    -0.001 A  
DOCKED: ATOM      7  C   UNL     1     -36.300  -7.976   0.342 -0.35 +0.00    +0.008 A  
DOCKED: ATOM      8  C   UNL     1     -35.080  -8.179  -1.750 -0.24 +0.00    +0.010 A  
DOCKED: ATOM      9  C   UNL     1     -36.218  -7.773  -1.036 -0.31 +0.00    +0.068 A  
DOCKED: ATOM     10  N   UNL     1     -38.180  -6.636  -2.289 -2.46 -0.00    -0.191 NA 
DOCKED: ATOM     11  C   UNL     1     -37.300  -7.147  -1.728 -0.31 +0.00    +0.101 C  
DOCKED: ENDROOT
DOCKED: BRANCH   2  12
DOCKED: ATOM     12  C   UNL     1     -31.850  -8.788   1.381 -0.03 +0.00    +0.038 C  
DOCKED: BRANCH  12  13
DOCKED: ATOM     13  C   UNL     1     -32.078  -7.333   0.978 -0.05 +0.00    +0.038 C  
DOCKED: BRANCH  13  14
DOCKED: ATOM     14  C   UNL     1     -32.780  -6.558   2.092 -0.10 +0.00    +0.251 C  
DOCKED: BRANCH  14  15
DOCKED: ATOM     15  N   UNL     1     -32.803  -5.133   1.782 -0.11 +0.00    +0.141 N  
DOCKED: ATOM     16  C   UNL     1     -32.915  -4.921   0.338 -0.06 +0.00    +0.285 C  
DOCKED: ATOM     17  C   UNL     1     -33.906  -4.471   2.479 -0.16 +0.00    +0.285 C  
DOCKED: ENDBRANCH  14  15
DOCKED: ENDBRANCH  13  14
DOCKED: ENDBRANCH  12  13
DOCKED: ENDBRANCH   2  12
DOCKED: BRANCH   2  18
DOCKED: ATOM     18  C   UNL     1     -32.802 -11.032   0.882 -0.04 +0.00    +0.006 A  
DOCKED: ATOM     19  C   UNL     1     -31.532 -11.543   1.145 -0.01 +0.00    +0.001 A  
DOCKED: ATOM     20  C   UNL     1     -31.236 -12.869   0.826 -0.01 +0.00    +0.029 A  
DOCKED: ATOM     21  C   UNL     1     -32.209 -13.680   0.245 -0.04 +0.00    +0.140 A  
DOCKED: ATOM     22  C   UNL     1     -33.479 -13.168  -0.018 -0.14 +0.00    +0.029 A  
DOCKED: ATOM     23  F   UNL     1     -31.925 -14.953  -0.060 -0.01 -0.00    -0.204 F  
DOCKED: ATOM     24  C   UNL     1     -33.777 -11.842   0.301 -0.12 +0.00    +0.001 A  
DOCKED: ENDBRANCH   2  18
DOCKED: TORSDOF 5
DOCKED: TER
DOCKED: ENDMDL
________________________________________________________________________________


    FINAL DOCKED STATE:
    ________________________


Run:   192 / 512
Time taken for this run:   0.002s

DOCKED: MODEL        192
DOCKED: USER    Run = 192
DOCKED: USER
DOCKED: USER    Estimated Free Energy of Binding    =  -4.10 kcal/mol  [=(1)+(2)+(3)-(4)]
DOCKED: USER
DOCKED: USER    (1) Final Intermolecular Energy     =  -5.59 kcal/mol
DOCKED: USER        vdW + Hbond + desolv Energy     =  -5.59 kcal/mol
DOCKED: USER        Electrostatic Energy            =  +0.00 kcal/mol
DOCKED: USER        Moving Ligand-Fixed Receptor    =  -5.59 kcal/mol
DOCKED: USER        Moving Ligand-Moving Receptor   =  +0.00 kcal/mol
DOCKED: USER    (2) Final Total Internal Energy     =  -1.13 kcal/mol
DOCKED: USER    (3) Torsional Free Energy           =  +1.49 kcal/mol
DOCKED: USER    (4) Unbound System's Energy         =  -1.13 kcal/mol
DOCKED: USER
DOCKED: USER
DOCKED: REMARK  5 active torsions:
DOCKED: REMARK  status: ('A' for Active; 'I' for Inactive)
DOCKED: REMARK    1  A    between atoms: C_2  and  C_19 
DOCKED: REMARK    2  A    between atoms: C_2  and  C_11 
DOCKED: REMARK    3  A    between atoms: C_19  and  C_20 
DOCKED: REMARK    4  A    between atoms: C_20  and  C_21 
DOCKED: REMARK    5  A    between atoms: C_21  and  N_22 
DOCKED: USER                              x       y       z     vdW  Elec       q    Type
DOCKED: USER                           _______ _______ _______ _____ _____    ______ ____
DOCKED: ROOT
DOCKED: ATOM      1  O   UNL     1     -38.470 -15.666  13.047 -0.01 -0.00    -0.346 OA 
DOCKED: ATOM      2  C   UNL     1     -38.436 -15.052  11.719 -0.09 +0.00    +0.130 C  
DOCKED: ATOM      3  C   UNL     1     -38.933 -16.138  10.809 -0.21 +0.00    +0.004 A  
DOCKED: ATOM      4  C   UNL     1     -39.322 -17.237  11.561 -0.16 +0.00    +0.006 A  
DOCKED: ATOM      5  C   UNL     1     -39.124 -16.955  13.001 -0.06 +0.00    +0.169 C  
DOCKED: ATOM      6  C   UNL     1     -39.044 -16.147   9.426 -0.25 -0.00    -0.001 A  
DOCKED: ATOM      7  C   UNL     1     -39.827 -18.378  10.962 -0.23 +0.00    +0.008 A  
DOCKED: ATOM      8  C   UNL     1     -39.547 -17.292   8.807 -0.34 +0.00    +0.010 A  
DOCKED: ATOM      9  C   UNL     1     -39.937 -18.402   9.571 -0.31 +0.00    +0.068 A  
DOCKED: ATOM     10  N   UNL     1     -40.873 -20.510   8.390 -2.39 -0.00    -0.191 NA 
DOCKED: ATOM     11  C   UNL     1     -40.453 -19.564   8.920 -0.35 +0.00    +0.101 C  
DOCKED: ENDROOT
DOCKED: BRANCH   2  12
DOCKED: ATOM     12  C   UNL     1     -39.341 -13.826  11.731 -0.08 +0.00    +0.038 C  
DOCKED: BRANCH  12  13
DOCKED: ATOM     13  C   UNL     1     -40.791 -14.202  11.432 -0.12 +0.00    +0.038 C  
DOCKED: BRANCH  13  14
DOCKED: ATOM     14  C   UNL     1     -41.523 -13.057  10.735 -0.13 +0.00    +0.251 C  
DOCKED: BRANCH  14  15
DOCKED: ATOM     15  N   UNL     1     -42.923 -13.404  10.521 -0.17 +0.00    +0.141 N  
DOCKED: ATOM     16  C   UNL     1     -43.061 -14.832  10.227 -0.13 +0.00    +0.285 C  
DOCKED: ATOM     17  C   UNL     1     -43.727 -13.047  11.691 -0.03 +0.00    +0.285 C  
DOCKED: ENDBRANCH  14  15
DOCKED: ENDBRANCH  13  14
DOCKED: ENDBRANCH  12  13
DOCKED: ENDBRANCH   2  12
DOCKED: BRANCH   2  18
DOCKED: ATOM     18  C   UNL     1     -37.018 -14.672  11.450 -0.11 +0.00    +0.006 A  
DOCKED: ATOM     19  C   UNL     1     -36.007 -15.101  12.309 -0.08 +0.00    +0.001 A  
DOCKED: ATOM     20  C   UNL     1     -34.682 -14.745  12.056 -0.06 +0.00    +0.029 A  
DOCKED: ATOM     21  C   UNL     1     -34.370 -13.961  10.947 -0.05 +0.00    +0.140 A  
DOCKED: ATOM     22  C   UNL     1     -35.382 -13.532  10.088 -0.10 +0.00    +0.029 A  
DOCKED: ATOM     23  F   UNL     1     -33.097 -13.620  10.704 -0.00 -0.00    -0.204 F  
DOCKED: ATOM     24  C   UNL     1     -36.708 -13.888  10.340 -0.13 +0.00    +0.001 A  
DOCKED: ENDBRANCH   2  18
DOCKED: TORSDOF 5
DOCKED: TER
DOCKED: ENDMDL
________________________________________________________________________________


    FINAL DOCKED STATE:
    ________________________


Run:   193 / 512
Time taken for this run:   0.002s

DOCKED: MODEL        193
DOCKED: USER    Run = 193
DOCKED: USER
DOCKED: USER    Estimated Free Energy of Binding    =  -3.95 kcal/mol  [=(1)+(2)+(3)-(4)]
DOCKED: USER
DOCKED: USER    (1) Final Intermolecular Energy     =  -5.44 kcal/mol
DOCKED: USER        vdW + Hbond + desolv Energy     =  -5.44 kcal/mol
DOCKED: USER        Electrostatic Energy            =  +0.00 kcal/mol
DOCKED: USER        Moving Ligand-Fixed Receptor    =  -5.44 kcal/mol
DOCKED: USER        Moving Ligand-Moving Receptor   =  +0.00 kcal/mol
DOCKED: USER    (2) Final Total Internal Energy     =  -1.40 kcal/mol
DOCKED: USER    (3) Torsional Free Energy           =  +1.49 kcal/mol
DOCKED: USER    (4) Unbound System's Energy         =  -1.40 kcal/mol
DOCKED: USER
DOCKED: USER
DOCKED: REMARK  5 active torsions:
DOCKED: REMARK  status: ('A' for Active; 'I' for Inactive)
DOCKED: REMARK    1  A    between atoms: C_2  and  C_19 
DOCKED: REMARK    2  A    between atoms: C_2  and  C_11 
DOCKED: REMARK    3  A    between atoms: C_19  and  C_20 
DOCKED: REMARK    4  A    between atoms: C_20  and  C_21 
DOCKED: REMARK    5  A    between atoms: C_21  and  N_22 
DOCKED: USER                              x       y       z     vdW  Elec       q    Type
DOCKED: USER                           _______ _______ _______ _____ _____    ______ ____
DOCKED: ROOT
DOCKED: ATOM      1  O   UNL     1     -30.311 -17.754   1.809 +0.00 -0.00    -0.346 OA 
DOCKED: ATOM      2  C   UNL     1     -31.092 -16.727   2.500 -0.07 +0.00    +0.130 C  
DOCKED: ATOM      3  C   UNL     1     -31.746 -17.472   3.627 -0.11 +0.00    +0.004 A  
DOCKED: ATOM      4  C   UNL     1     -31.294 -18.783   3.646 -0.12 +0.00    +0.006 A  
DOCKED: ATOM      5  C   UNL     1     -30.313 -18.992   2.557 -0.05 +0.00    +0.169 C  
DOCKED: ATOM      6  C   UNL     1     -32.661 -17.021   4.568 -0.17 -0.00    -0.001 A  
DOCKED: ATOM      7  C   UNL     1     -31.739 -19.686   4.597 -0.21 +0.00    +0.008 A  
DOCKED: ATOM      8  C   UNL     1     -33.123 -17.920   5.531 -0.29 +0.00    +0.010 A  
DOCKED: ATOM      9  C   UNL     1     -32.664 -19.246   5.545 -0.28 +0.00    +0.068 A  
DOCKED: ATOM     10  N   UNL     1     -33.538 -20.888   7.349 -2.60 -0.00    -0.191 NA 
DOCKED: ATOM     11  C   UNL     1     -33.147 -20.151   6.539 -0.42 +0.00    +0.101 C  
DOCKED: ENDROOT
DOCKED: BRANCH   2  12
DOCKED: ATOM     12  C   UNL     1     -30.139 -15.639   2.981 -0.01 +0.00    +0.038 C  
DOCKED: BRANCH  12  13
DOCKED: ATOM     13  C   UNL     1     -29.181 -16.169   4.047 -0.01 +0.00    +0.038 C  
DOCKED: BRANCH  13  14
DOCKED: ATOM     14  C   UNL     1     -29.039 -15.178   5.200 -0.00 +0.00    +0.251 C  
DOCKED: BRANCH  14  15
DOCKED: ATOM     15  N   UNL     1     -29.376 -15.819   6.465 -0.01 +0.00    +0.141 N  
DOCKED: ATOM     16  C   UNL     1     -30.694 -15.384   6.929 -0.01 +0.00    +0.285 C  
DOCKED: ATOM     17  C   UNL     1     -29.342 -17.276   6.329 -0.00 +0.00    +0.285 C  
DOCKED: ENDBRANCH  14  15
DOCKED: ENDBRANCH  13  14
DOCKED: ENDBRANCH  12  13
DOCKED: ENDBRANCH   2  12
DOCKED: BRANCH   2  18
DOCKED: ATOM     18  C   UNL     1     -32.072 -16.187   1.513 -0.12 +0.00    +0.006 A  
DOCKED: ATOM     19  C   UNL     1     -32.202 -16.785   0.261 -0.12 +0.00    +0.001 A  
DOCKED: ATOM     20  C   UNL     1     -33.119 -16.278  -0.661 -0.16 +0.00    +0.029 A  
DOCKED: ATOM     21  C   UNL     1     -33.904 -15.175  -0.329 -0.19 +0.00    +0.140 A  
DOCKED: ATOM     22  C   UNL     1     -33.773 -14.577   0.924 -0.20 +0.00    +0.029 A  
DOCKED: ATOM     23  F   UNL     1     -34.785 -14.690  -1.214 -0.14 -0.00    -0.204 F  
DOCKED: ATOM     24  C   UNL     1     -32.856 -15.083   1.846 -0.15 +0.00    +0.001 A  
DOCKED: ENDBRANCH   2  18
DOCKED: TORSDOF 5
DOCKED: TER
DOCKED: ENDMDL
________________________________________________________________________________


    FINAL DOCKED STATE:
    ________________________


Run:   194 / 512
Time taken for this run:   0.002s

DOCKED: MODEL        194
DOCKED: USER    Run = 194
DOCKED: USER
DOCKED: USER    Estimated Free Energy of Binding    =  -3.84 kcal/mol  [=(1)+(2)+(3)-(4)]
DOCKED: USER
DOCKED: USER    (1) Final Intermolecular Energy     =  -5.33 kcal/mol
DOCKED: USER        vdW + Hbond + desolv Energy     =  -5.33 kcal/mol
DOCKED: USER        Electrostatic Energy            =  +0.00 kcal/mol
DOCKED: USER        Moving Ligand-Fixed Receptor    =  -5.33 kcal/mol
DOCKED: USER        Moving Ligand-Moving Receptor   =  +0.00 kcal/mol
DOCKED: USER    (2) Final Total Internal Energy     =  -1.44 kcal/mol
DOCKED: USER    (3) Torsional Free Energy           =  +1.49 kcal/mol
DOCKED: USER    (4) Unbound System's Energy         =  -1.44 kcal/mol
DOCKED: USER
DOCKED: USER
DOCKED: REMARK  5 active torsions:
DOCKED: REMARK  status: ('A' for Active; 'I' for Inactive)
DOCKED: REMARK    1  A    between atoms: C_2  and  C_19 
DOCKED: REMARK    2  A    between atoms: C_2  and  C_11 
DOCKED: REMARK    3  A    between atoms: C_19  and  C_20 
DOCKED: REMARK    4  A    between atoms: C_20  and  C_21 
DOCKED: REMARK    5  A    between atoms: C_21  and  N_22 
DOCKED: USER                              x       y       z     vdW  Elec       q    Type
DOCKED: USER                           _______ _______ _______ _____ _____    ______ ____
DOCKED: ROOT
DOCKED: ATOM      1  O   UNL     1     -33.649 -10.042   2.339 -0.01 -0.00    -0.346 OA 
DOCKED: ATOM      2  C   UNL     1     -33.138 -10.252   0.984 -0.04 +0.00    +0.130 C  
DOCKED: ATOM      3  C   UNL     1     -34.123  -9.529   0.112 -0.13 +0.00    +0.004 A  
DOCKED: ATOM      4  C   UNL     1     -35.053  -8.871   0.905 -0.21 +0.00    +0.006 A  
DOCKED: ATOM      5  C   UNL     1     -34.746  -9.099   2.334 -0.14 +0.00    +0.169 C  
DOCKED: ATOM      6  C   UNL     1     -34.185  -9.450  -1.271 -0.16 -0.00    -0.001 A  
DOCKED: ATOM      7  C   UNL     1     -36.074  -8.120   0.346 -0.32 +0.00    +0.008 A  
DOCKED: ATOM      8  C   UNL     1     -35.211  -8.701  -1.850 -0.20 +0.00    +0.010 A  
DOCKED: ATOM      9  C   UNL     1     -36.150  -8.039  -1.045 -0.24 +0.00    +0.068 A  
DOCKED: ATOM     10  N   UNL     1     -38.038  -6.651  -2.151 -2.56 -0.00    -0.191 NA 
DOCKED: ATOM     11  C   UNL     1     -37.191  -7.274  -1.655 -0.31 +0.00    +0.101 C  
DOCKED: ENDROOT
DOCKED: BRANCH   2  12
DOCKED: ATOM     12  C   UNL     1     -31.733  -9.667   0.902 -0.01 +0.00    +0.038 C  
DOCKED: BRANCH  12  13
DOCKED: ATOM     13  C   UNL     1     -31.755  -8.145   1.023 -0.03 +0.00    +0.038 C  
DOCKED: BRANCH  13  14
DOCKED: ATOM     14  C   UNL     1     -31.712  -7.484  -0.353 -0.00 +0.00    +0.251 C  
DOCKED: BRANCH  14  15
DOCKED: ATOM     15  N   UNL     1     -32.221  -6.120  -0.277 -0.05 +0.00    +0.141 N  
DOCKED: ATOM     16  C   UNL     1     -33.231  -5.887  -1.311 -0.08 +0.00    +0.285 C  
DOCKED: ATOM     17  C   UNL     1     -32.781  -5.851   1.049 -0.06 +0.00    +0.285 C  
DOCKED: ENDBRANCH  14  15
DOCKED: ENDBRANCH  13  14
DOCKED: ENDBRANCH  12  13
DOCKED: ENDBRANCH   2  12
DOCKED: BRANCH   2  18
DOCKED: ATOM     18  C   UNL     1     -33.122 -11.725   0.746 -0.06 +0.00    +0.006 A  
DOCKED: ATOM     19  C   UNL     1     -34.287 -12.472   0.924 -0.19 +0.00    +0.001 A  
DOCKED: ATOM     20  C   UNL     1     -34.271 -13.849   0.702 -0.23 +0.00    +0.029 A  
DOCKED: ATOM     21  C   UNL     1     -33.092 -14.478   0.302 -0.15 +0.00    +0.140 A  
DOCKED: ATOM     22  C   UNL     1     -31.928 -13.730   0.125 -0.03 +0.00    +0.029 A  
DOCKED: ATOM     23  F   UNL     1     -33.078 -15.799   0.087 -0.10 -0.00    -0.204 F  
DOCKED: ATOM     24  C   UNL     1     -31.943 -12.352   0.347 -0.02 +0.00    +0.001 A  
DOCKED: ENDBRANCH   2  18
DOCKED: TORSDOF 5
DOCKED: TER
DOCKED: ENDMDL
________________________________________________________________________________


    FINAL DOCKED STATE:
    ________________________


Run:   195 / 512
Time taken for this run:   0.002s

DOCKED: MODEL        195
DOCKED: USER    Run = 195
DOCKED: USER
DOCKED: USER    Estimated Free Energy of Binding    =  -3.09 kcal/mol  [=(1)+(2)+(3)-(4)]
DOCKED: USER
DOCKED: USER    (1) Final Intermolecular Energy     =  -4.58 kcal/mol
DOCKED: USER        vdW + Hbond + desolv Energy     =  -4.58 kcal/mol
DOCKED: USER        Electrostatic Energy            =  +0.00 kcal/mol
DOCKED: USER        Moving Ligand-Fixed Receptor    =  -4.58 kcal/mol
DOCKED: USER        Moving Ligand-Moving Receptor   =  +0.00 kcal/mol
DOCKED: USER    (2) Final Total Internal Energy     =  -1.41 kcal/mol
DOCKED: USER    (3) Torsional Free Energy           =  +1.49 kcal/mol
DOCKED: USER    (4) Unbound System's Energy         =  -1.41 kcal/mol
DOCKED: USER
DOCKED: USER
DOCKED: REMARK  5 active torsions:
DOCKED: REMARK  status: ('A' for Active; 'I' for Inactive)
DOCKED: REMARK    1  A    between atoms: C_2  and  C_19 
DOCKED: REMARK    2  A    between atoms: C_2  and  C_11 
DOCKED: REMARK    3  A    between atoms: C_19  and  C_20 
DOCKED: REMARK    4  A    between atoms: C_20  and  C_21 
DOCKED: REMARK    5  A    between atoms: C_21  and  N_22 
DOCKED: USER                              x       y       z     vdW  Elec       q    Type
DOCKED: USER                           _______ _______ _______ _____ _____    ______ ____
DOCKED: ROOT
DOCKED: ATOM      1  O   UNL     1     -32.133  -8.215  -5.558 +0.02 -0.00    -0.346 OA 
DOCKED: ATOM      2  C   UNL     1     -31.713  -7.827  -4.211 -0.03 +0.00    +0.130 C  
DOCKED: ATOM      3  C   UNL     1     -33.004  -7.548  -3.497 -0.09 +0.00    +0.004 A  
DOCKED: ATOM      4  C   UNL     1     -34.072  -7.856  -4.328 -0.16 +0.00    +0.006 A  
DOCKED: ATOM      5  C   UNL     1     -33.570  -8.365  -5.624 -0.07 +0.00    +0.169 C  
DOCKED: ATOM      6  C   UNL     1     -33.217  -7.071  -2.212 -0.12 -0.00    -0.001 A  
DOCKED: ATOM      7  C   UNL     1     -35.382  -7.695  -3.908 -0.23 +0.00    +0.008 A  
DOCKED: ATOM      8  C   UNL     1     -34.532  -6.899  -1.776 -0.23 +0.00    +0.010 A  
DOCKED: ATOM      9  C   UNL     1     -35.608  -7.210  -2.619 -0.28 +0.00    +0.068 A  
DOCKED: ATOM     10  N   UNL     1     -38.036  -6.884  -1.775 -2.47 -0.00    -0.191 NA 
DOCKED: ATOM     11  C   UNL     1     -36.947  -7.030  -2.154 -0.32 +0.00    +0.101 C  
DOCKED: ENDROOT
DOCKED: BRANCH   2  12
DOCKED: ATOM     12  C   UNL     1     -30.933  -8.983  -3.596 -0.01 +0.00    +0.038 C  
DOCKED: BRANCH  12  13
DOCKED: ATOM     13  C   UNL     1     -31.855 -10.147  -3.237 -0.03 +0.00    +0.038 C  
DOCKED: BRANCH  13  14
DOCKED: ATOM     14  C   UNL     1     -32.176 -10.154  -1.744 -0.02 +0.00    +0.251 C  
DOCKED: BRANCH  14  15
DOCKED: ATOM     15  N   UNL     1     -33.334 -10.998  -1.478 -0.09 +0.00    +0.141 N  
DOCKED: ATOM     16  C   UNL     1     -34.385 -10.235  -0.802 -0.10 +0.00    +0.285 C  
DOCKED: ATOM     17  C   UNL     1     -33.847 -11.577  -2.721 -0.07 +0.00    +0.285 C  
DOCKED: ENDBRANCH  14  15
DOCKED: ENDBRANCH  13  14
DOCKED: ENDBRANCH  12  13
DOCKED: ENDBRANCH   2  12
DOCKED: BRANCH   2  18
DOCKED: ATOM     18  C   UNL     1     -30.854  -6.614  -4.354 -0.05 +0.00    +0.006 A  
DOCKED: ATOM     19  C   UNL     1     -31.184  -5.634  -5.289 -0.10 +0.00    +0.001 A  
DOCKED: ATOM     20  C   UNL     1     -30.380  -4.501  -5.422 -0.04 +0.00    +0.029 A  
DOCKED: ATOM     21  C   UNL     1     -29.249  -4.350  -4.621 -0.03 +0.00    +0.140 A  
DOCKED: ATOM     22  C   UNL     1     -28.920  -5.331  -3.686 -0.02 +0.00    +0.029 A  
DOCKED: ATOM     23  F   UNL     1     -28.479  -3.262  -4.747 +0.01 -0.00    -0.204 F  
DOCKED: ATOM     24  C   UNL     1     -29.724  -6.465  -3.552 -0.02 +0.00    +0.001 A  
DOCKED: ENDBRANCH   2  18
DOCKED: TORSDOF 5
DOCKED: TER
DOCKED: ENDMDL
________________________________________________________________________________


    FINAL DOCKED STATE:
    ________________________


Run:   196 / 512
Time taken for this run:   0.002s

DOCKED: MODEL        196
DOCKED: USER    Run = 196
DOCKED: USER
DOCKED: USER    Estimated Free Energy of Binding    =  -4.35 kcal/mol  [=(1)+(2)+(3)-(4)]
DOCKED: USER
DOCKED: USER    (1) Final Intermolecular Energy     =  -5.84 kcal/mol
DOCKED: USER        vdW + Hbond + desolv Energy     =  -5.84 kcal/mol
DOCKED: USER        Electrostatic Energy            =  +0.00 kcal/mol
DOCKED: USER        Moving Ligand-Fixed Receptor    =  -5.84 kcal/mol
DOCKED: USER        Moving Ligand-Moving Receptor   =  +0.00 kcal/mol
DOCKED: USER    (2) Final Total Internal Energy     =  -1.28 kcal/mol
DOCKED: USER    (3) Torsional Free Energy           =  +1.49 kcal/mol
DOCKED: USER    (4) Unbound System's Energy         =  -1.28 kcal/mol
DOCKED: USER
DOCKED: USER
DOCKED: REMARK  5 active torsions:
DOCKED: REMARK  status: ('A' for Active; 'I' for Inactive)
DOCKED: REMARK    1  A    between atoms: C_2  and  C_19 
DOCKED: REMARK    2  A    between atoms: C_2  and  C_11 
DOCKED: REMARK    3  A    between atoms: C_19  and  C_20 
DOCKED: REMARK    4  A    between atoms: C_20  and  C_21 
DOCKED: REMARK    5  A    between atoms: C_21  and  N_22 
DOCKED: USER                              x       y       z     vdW  Elec       q    Type
DOCKED: USER                           _______ _______ _______ _____ _____    ______ ____
DOCKED: ROOT
DOCKED: ATOM      1  O   UNL     1     -38.285 -14.124  10.661 -0.05 -0.00    -0.346 OA 
DOCKED: ATOM      2  C   UNL     1     -39.702 -14.140  11.030 -0.13 +0.00    +0.130 C  
DOCKED: ATOM      3  C   UNL     1     -40.178 -15.488  10.571 -0.21 +0.00    +0.004 A  
DOCKED: ATOM      4  C   UNL     1     -39.105 -16.221  10.083 -0.28 +0.00    +0.006 A  
DOCKED: ATOM      5  C   UNL     1     -37.861 -15.427  10.196 -0.15 +0.00    +0.169 C  
DOCKED: ATOM      6  C   UNL     1     -41.456 -16.027  10.594 -0.20 -0.00    -0.001 A  
DOCKED: ATOM      7  C   UNL     1     -39.272 -17.508   9.600 -0.34 +0.00    +0.008 A  
DOCKED: ATOM      8  C   UNL     1     -41.641 -17.321  10.106 -0.22 +0.00    +0.010 A  
DOCKED: ATOM      9  C   UNL     1     -40.554 -18.058   9.612 -0.26 +0.00    +0.068 A  
DOCKED: ATOM     10  N   UNL     1     -40.932 -20.461   8.720 -2.56 -0.00    -0.191 NA 
DOCKED: ATOM     11  C   UNL     1     -40.762 -19.383   9.119 -0.36 +0.00    +0.101 C  
DOCKED: ENDROOT
DOCKED: BRANCH   2  12
DOCKED: ATOM     12  C   UNL     1     -39.809 -13.955  12.539 -0.04 +0.00    +0.038 C  
DOCKED: BRANCH  12  13
DOCKED: ATOM     13  C   UNL     1     -39.152 -12.652  12.988 -0.02 +0.00    +0.038 C  
DOCKED: BRANCH  13  14
DOCKED: ATOM     14  C   UNL     1     -40.142 -11.771  13.749 -0.00 +0.00    +0.251 C  
DOCKED: BRANCH  14  15
DOCKED: ATOM     15  N   UNL     1     -41.511 -12.161  13.437 -0.01 +0.00    +0.141 N  
DOCKED: ATOM     16  C   UNL     1     -42.167 -12.730  14.615 +0.00 +0.00    +0.285 C  
DOCKED: ATOM     17  C   UNL     1     -42.272 -11.016  12.935 -0.00 +0.00    +0.285 C  
DOCKED: ENDBRANCH  14  15
DOCKED: ENDBRANCH  13  14
DOCKED: ENDBRANCH  12  13
DOCKED: ENDBRANCH   2  12
DOCKED: BRANCH   2  18
DOCKED: ATOM     18  C   UNL     1     -40.355 -13.014  10.301 -0.18 +0.00    +0.006 A  
DOCKED: ATOM     19  C   UNL     1     -39.574 -12.046   9.671 -0.15 +0.00    +0.001 A  
DOCKED: ATOM     20  C   UNL     1     -40.186 -10.992   8.991 -0.15 +0.00    +0.029 A  
DOCKED: ATOM     21  C   UNL     1     -41.577 -10.909   8.941 -0.11 +0.00    +0.140 A  
DOCKED: ATOM     22  C   UNL     1     -42.357 -11.878   9.571 -0.17 +0.00    +0.029 A  
DOCKED: ATOM     23  F   UNL     1     -42.164  -9.899   8.286 -0.02 -0.00    -0.204 F  
DOCKED: ATOM     24  C   UNL     1     -41.746 -12.931  10.253 -0.22 +0.00    +0.001 A  
DOCKED: ENDBRANCH   2  18
DOCKED: TORSDOF 5
DOCKED: TER
DOCKED: ENDMDL
________________________________________________________________________________


    FINAL DOCKED STATE:
    ________________________


Run:   197 / 512
Time taken for this run:   0.002s

DOCKED: MODEL        197
DOCKED: USER    Run = 197
DOCKED: USER
DOCKED: USER    Estimated Free Energy of Binding    =  -3.12 kcal/mol  [=(1)+(2)+(3)-(4)]
DOCKED: USER
DOCKED: USER    (1) Final Intermolecular Energy     =  -4.61 kcal/mol
DOCKED: USER        vdW + Hbond + desolv Energy     =  -4.61 kcal/mol
DOCKED: USER        Electrostatic Energy            =  +0.00 kcal/mol
DOCKED: USER        Moving Ligand-Fixed Receptor    =  -4.61 kcal/mol
DOCKED: USER        Moving Ligand-Moving Receptor   =  +0.00 kcal/mol
DOCKED: USER    (2) Final Total Internal Energy     =  -1.34 kcal/mol
DOCKED: USER    (3) Torsional Free Energy           =  +1.49 kcal/mol
DOCKED: USER    (4) Unbound System's Energy         =  -1.34 kcal/mol
DOCKED: USER
DOCKED: USER
DOCKED: REMARK  5 active torsions:
DOCKED: REMARK  status: ('A' for Active; 'I' for Inactive)
DOCKED: REMARK    1  A    between atoms: C_2  and  C_19 
DOCKED: REMARK    2  A    between atoms: C_2  and  C_11 
DOCKED: REMARK    3  A    between atoms: C_19  and  C_20 
DOCKED: REMARK    4  A    between atoms: C_20  and  C_21 
DOCKED: REMARK    5  A    between atoms: C_21  and  N_22 
DOCKED: USER                              x       y       z     vdW  Elec       q    Type
DOCKED: USER                           _______ _______ _______ _____ _____    ______ ____
DOCKED: ROOT
DOCKED: ATOM      1  O   UNL     1     -32.475 -15.283   3.542 +0.00 -0.00    -0.346 OA 
DOCKED: ATOM      2  C   UNL     1     -31.166 -15.813   3.927 -0.04 +0.00    +0.130 C  
DOCKED: ATOM      3  C   UNL     1     -31.497 -16.964   4.833 -0.08 +0.00    +0.004 A  
DOCKED: ATOM      4  C   UNL     1     -32.872 -17.146   4.874 -0.20 +0.00    +0.006 A  
DOCKED: ATOM      5  C   UNL     1     -33.536 -16.151   4.002 -0.14 +0.00    +0.169 C  
DOCKED: ATOM      6  C   UNL     1     -30.648 -17.792   5.553 -0.07 -0.00    -0.001 A  
DOCKED: ATOM      7  C   UNL     1     -33.443 -18.151   5.636 -0.32 +0.00    +0.008 A  
DOCKED: ATOM      8  C   UNL     1     -31.209 -18.807   6.329 -0.13 +0.00    +0.010 A  
DOCKED: ATOM      9  C   UNL     1     -32.600 -18.986   6.370 -0.28 +0.00    +0.068 A  
DOCKED: ATOM     10  N   UNL     1     -33.608 -20.884   7.817 -2.61 -0.00    -0.191 NA 
DOCKED: ATOM     11  C   UNL     1     -33.156 -20.032   7.168 -0.33 +0.00    +0.101 C  
DOCKED: ENDROOT
DOCKED: BRANCH   2  12
DOCKED: ATOM     12  C   UNL     1     -30.430 -16.245   2.664 -0.03 +0.00    +0.038 C  
DOCKED: BRANCH  12  13
DOCKED: ATOM     13  C   UNL     1     -31.059 -17.495   2.052 -0.10 +0.00    +0.038 C  
DOCKED: BRANCH  13  14
DOCKED: ATOM     14  C   UNL     1     -30.250 -18.743   2.400 -0.03 +0.00    +0.251 C  
DOCKED: BRANCH  14  15
DOCKED: ATOM     15  N   UNL     1     -31.133 -19.893   2.557 -0.09 +0.00    +0.141 N  
DOCKED: ATOM     16  C   UNL     1     -31.280 -20.608   1.288 -0.05 +0.00    +0.285 C  
DOCKED: ATOM     17  C   UNL     1     -30.627 -20.795   3.592 -0.07 +0.00    +0.285 C  
DOCKED: ENDBRANCH  14  15
DOCKED: ENDBRANCH  13  14
DOCKED: ENDBRANCH  12  13
DOCKED: ENDBRANCH   2  12
DOCKED: BRANCH   2  18
DOCKED: ATOM     18  C   UNL     1     -30.438 -14.714   4.625 -0.01 +0.00    +0.006 A  
DOCKED: ATOM     19  C   UNL     1     -29.047 -14.648   4.559 -0.00 +0.00    +0.001 A  
DOCKED: ATOM     20  C   UNL     1     -28.367 -13.620   5.213 -0.00 +0.00    +0.029 A  
DOCKED: ATOM     21  C   UNL     1     -29.079 -12.659   5.931 -0.00 +0.00    +0.140 A  
DOCKED: ATOM     22  C   UNL     1     -30.470 -12.726   5.996 -0.00 +0.00    +0.029 A  
DOCKED: ATOM     23  F   UNL     1     -28.426 -11.671   6.557 +0.00 -0.00    -0.204 F  
DOCKED: ATOM     24  C   UNL     1     -31.151 -13.755   5.343 -0.01 +0.00    +0.001 A  
DOCKED: ENDBRANCH   2  18
DOCKED: TORSDOF 5
DOCKED: TER
DOCKED: ENDMDL
________________________________________________________________________________


    FINAL DOCKED STATE:
    ________________________


Run:   198 / 512
Time taken for this run:   0.002s

DOCKED: MODEL        198
DOCKED: USER    Run = 198
DOCKED: USER
DOCKED: USER    Estimated Free Energy of Binding    =  -4.25 kcal/mol  [=(1)+(2)+(3)-(4)]
DOCKED: USER
DOCKED: USER    (1) Final Intermolecular Energy     =  -5.74 kcal/mol
DOCKED: USER        vdW + Hbond + desolv Energy     =  -5.74 kcal/mol
DOCKED: USER        Electrostatic Energy            =  +0.00 kcal/mol
DOCKED: USER        Moving Ligand-Fixed Receptor    =  -5.74 kcal/mol
DOCKED: USER        Moving Ligand-Moving Receptor   =  +0.00 kcal/mol
DOCKED: USER    (2) Final Total Internal Energy     =  -1.50 kcal/mol
DOCKED: USER    (3) Torsional Free Energy           =  +1.49 kcal/mol
DOCKED: USER    (4) Unbound System's Energy         =  -1.50 kcal/mol
DOCKED: USER
DOCKED: USER
DOCKED: REMARK  5 active torsions:
DOCKED: REMARK  status: ('A' for Active; 'I' for Inactive)
DOCKED: REMARK    1  A    between atoms: C_2  and  C_19 
DOCKED: REMARK    2  A    between atoms: C_2  and  C_11 
DOCKED: REMARK    3  A    between atoms: C_19  and  C_20 
DOCKED: REMARK    4  A    between atoms: C_20  and  C_21 
DOCKED: REMARK    5  A    between atoms: C_21  and  N_22 
DOCKED: USER                              x       y       z     vdW  Elec       q    Type
DOCKED: USER                           _______ _______ _______ _____ _____    ______ ____
DOCKED: ROOT
DOCKED: ATOM      1  O   UNL     1     -40.335 -18.198  11.865 -0.03 -0.00    -0.346 OA 
DOCKED: ATOM      2  C   UNL     1     -39.783 -17.091  11.081 -0.16 +0.00    +0.130 C  
DOCKED: ATOM      3  C   UNL     1     -40.011 -17.510   9.658 -0.32 +0.00    +0.004 A  
DOCKED: ATOM      4  C   UNL     1     -40.729 -18.697   9.629 -0.31 +0.00    +0.006 A  
DOCKED: ATOM      5  C   UNL     1     -41.033 -19.134  11.010 -0.18 +0.00    +0.169 C  
DOCKED: ATOM      6  C   UNL     1     -39.624 -16.884   8.482 -0.11 -0.00    -0.001 A  
DOCKED: ATOM      7  C   UNL     1     -41.080 -19.299   8.433 -0.42 +0.00    +0.008 A  
DOCKED: ATOM      8  C   UNL     1     -39.966 -17.481   7.267 -0.05 +0.00    +0.010 A  
DOCKED: ATOM      9  C   UNL     1     -40.691 -18.682   7.243 -0.43 +0.00    +0.068 A  
DOCKED: ATOM     10  N   UNL     1     -41.314 -19.760   4.971 -2.34 -0.00    -0.191 NA 
DOCKED: ATOM     11  C   UNL     1     -41.034 -19.277   5.990 -0.33 +0.00    +0.101 C  
DOCKED: ENDROOT
DOCKED: BRANCH   2  12
DOCKED: ATOM     12  C   UNL     1     -40.532 -15.817  11.452 -0.13 +0.00    +0.038 C  
DOCKED: BRANCH  12  13
DOCKED: ATOM     13  C   UNL     1     -40.945 -15.821  12.923 -0.05 +0.00    +0.038 C  
DOCKED: BRANCH  13  14
DOCKED: ATOM     14  C   UNL     1     -39.828 -15.272  13.809 -0.01 +0.00    +0.251 C  
DOCKED: BRANCH  14  15
DOCKED: ATOM     15  N   UNL     1     -39.186 -16.355  14.545 -0.02 +0.00    +0.141 N  
DOCKED: ATOM     16  C   UNL     1     -38.694 -15.878  15.839 -0.00 +0.00    +0.285 C  
DOCKED: ATOM     17  C   UNL     1     -40.115 -17.470  14.736 -0.02 +0.00    +0.285 C  
DOCKED: ENDBRANCH  14  15
DOCKED: ENDBRANCH  13  14
DOCKED: ENDBRANCH  12  13
DOCKED: ENDBRANCH   2  12
DOCKED: BRANCH   2  18
DOCKED: ATOM     18  C   UNL     1     -38.337 -16.988  11.432 -0.20 +0.00    +0.006 A  
DOCKED: ATOM     19  C   UNL     1     -37.589 -15.896  10.992 -0.18 +0.00    +0.001 A  
DOCKED: ATOM     20  C   UNL     1     -36.236 -15.801  11.321 -0.11 +0.00    +0.029 A  
DOCKED: ATOM     21  C   UNL     1     -35.634 -16.796  12.089 -0.12 +0.00    +0.140 A  
DOCKED: ATOM     22  C   UNL     1     -36.382 -17.887  12.529 -0.00 +0.00    +0.029 A  
DOCKED: ATOM     23  F   UNL     1     -34.336 -16.703  12.406 -0.03 -0.00    -0.204 F  
DOCKED: ATOM     24  C   UNL     1     -37.735 -17.984  12.201 -0.19 +0.00    +0.001 A  
DOCKED: ENDBRANCH   2  18
DOCKED: TORSDOF 5
DOCKED: TER
DOCKED: ENDMDL
________________________________________________________________________________


    FINAL DOCKED STATE:
    ________________________


Run:   199 / 512
Time taken for this run:   0.002s

DOCKED: MODEL        199
DOCKED: USER    Run = 199
DOCKED: USER
DOCKED: USER    Estimated Free Energy of Binding    =  -4.51 kcal/mol  [=(1)+(2)+(3)-(4)]
DOCKED: USER
DOCKED: USER    (1) Final Intermolecular Energy     =  -6.00 kcal/mol
DOCKED: USER        vdW + Hbond + desolv Energy     =  -6.00 kcal/mol
DOCKED: USER        Electrostatic Energy            =  +0.00 kcal/mol
DOCKED: USER        Moving Ligand-Fixed Receptor    =  -6.00 kcal/mol
DOCKED: USER        Moving Ligand-Moving Receptor   =  +0.00 kcal/mol
DOCKED: USER    (2) Final Total Internal Energy     =  -1.16 kcal/mol
DOCKED: USER    (3) Torsional Free Energy           =  +1.49 kcal/mol
DOCKED: USER    (4) Unbound System's Energy         =  -1.16 kcal/mol
DOCKED: USER
DOCKED: USER
DOCKED: REMARK  5 active torsions:
DOCKED: REMARK  status: ('A' for Active; 'I' for Inactive)
DOCKED: REMARK    1  A    between atoms: C_2  and  C_19 
DOCKED: REMARK    2  A    between atoms: C_2  and  C_11 
DOCKED: REMARK    3  A    between atoms: C_19  and  C_20 
DOCKED: REMARK    4  A    between atoms: C_20  and  C_21 
DOCKED: REMARK    5  A    between atoms: C_21  and  N_22 
DOCKED: USER                              x       y       z     vdW  Elec       q    Type
DOCKED: USER                           _______ _______ _______ _____ _____    ______ ____
DOCKED: ROOT
DOCKED: ATOM      1  O   UNL     1     -39.476 -18.936  12.511 -0.08 -0.00    -0.346 OA 
DOCKED: ATOM      2  C   UNL     1     -39.149 -17.614  11.975 -0.14 +0.00    +0.130 C  
DOCKED: ATOM      3  C   UNL     1     -39.484 -17.725  10.516 -0.27 +0.00    +0.004 A  
DOCKED: ATOM      4  C   UNL     1     -40.057 -18.963  10.261 -0.30 +0.00    +0.006 A  
DOCKED: ATOM      5  C   UNL     1     -40.151 -19.741  11.517 -0.13 +0.00    +0.169 C  
DOCKED: ATOM      6  C   UNL     1     -39.307 -16.800   9.497 -0.32 -0.00    -0.001 A  
DOCKED: ATOM      7  C   UNL     1     -40.466 -19.320   8.988 -0.40 +0.00    +0.008 A  
DOCKED: ATOM      8  C   UNL     1     -39.711 -17.146   8.207 -0.14 +0.00    +0.010 A  
DOCKED: ATOM      9  C   UNL     1     -40.288 -18.400   7.953 -0.40 +0.00    +0.068 A  
DOCKED: ATOM     10  N   UNL     1     -41.030 -19.008   5.547 -2.32 -0.00    -0.191 NA 
DOCKED: ATOM     11  C   UNL     1     -40.696 -18.736   6.626 -0.49 +0.00    +0.101 C  
DOCKED: ENDROOT
DOCKED: BRANCH   2  12
DOCKED: ATOM     12  C   UNL     1     -39.995 -16.575  12.701 -0.08 +0.00    +0.038 C  
DOCKED: BRANCH  12  13
DOCKED: ATOM     13  C   UNL     1     -39.920 -15.215  12.010 -0.09 +0.00    +0.038 C  
DOCKED: BRANCH  13  14
DOCKED: ATOM     14  C   UNL     1     -41.238 -14.455  12.150 -0.03 +0.00    +0.251 C  
DOCKED: BRANCH  14  15
DOCKED: ATOM     15  N   UNL     1     -42.348 -15.273  11.678 -0.07 +0.00    +0.141 N  
DOCKED: ATOM     16  C   UNL     1     -43.625 -14.727  12.141 -0.02 +0.00    +0.285 C  
DOCKED: ATOM     17  C   UNL     1     -42.336 -15.367  10.218 -0.13 +0.00    +0.285 C  
DOCKED: ENDBRANCH  14  15
DOCKED: ENDBRANCH  13  14
DOCKED: ENDBRANCH  12  13
DOCKED: ENDBRANCH   2  12
DOCKED: BRANCH   2  18
DOCKED: ATOM     18  C   UNL     1     -37.694 -17.391  12.222 -0.18 +0.00    +0.006 A  
DOCKED: ATOM     19  C   UNL     1     -36.748 -17.938  11.355 -0.13 +0.00    +0.001 A  
DOCKED: ATOM     20  C   UNL     1     -35.388 -17.729  11.587 -0.02 +0.00    +0.029 A  
DOCKED: ATOM     21  C   UNL     1     -34.976 -16.975  12.685 -0.10 +0.00    +0.140 A  
DOCKED: ATOM     22  C   UNL     1     -35.922 -16.428  13.551 -0.07 +0.00    +0.029 A  
DOCKED: ATOM     23  F   UNL     1     -33.671 -16.773  12.906 -0.01 -0.00    -0.204 F  
DOCKED: ATOM     24  C   UNL     1     -37.283 -16.637  13.320 -0.09 +0.00    +0.001 A  
DOCKED: ENDBRANCH   2  18
DOCKED: TORSDOF 5
DOCKED: TER
DOCKED: ENDMDL
________________________________________________________________________________


    FINAL DOCKED STATE:
    ________________________


Run:   200 / 512
Time taken for this run:   0.002s

DOCKED: MODEL        200
DOCKED: USER    Run = 200
DOCKED: USER
DOCKED: USER    Estimated Free Energy of Binding    =  -3.96 kcal/mol  [=(1)+(2)+(3)-(4)]
DOCKED: USER
DOCKED: USER    (1) Final Intermolecular Energy     =  -5.45 kcal/mol
DOCKED: USER        vdW + Hbond + desolv Energy     =  -5.45 kcal/mol
DOCKED: USER        Electrostatic Energy            =  +0.00 kcal/mol
DOCKED: USER        Moving Ligand-Fixed Receptor    =  -5.45 kcal/mol
DOCKED: USER        Moving Ligand-Moving Receptor   =  +0.00 kcal/mol
DOCKED: USER    (2) Final Total Internal Energy     =  -1.35 kcal/mol
DOCKED: USER    (3) Torsional Free Energy           =  +1.49 kcal/mol
DOCKED: USER    (4) Unbound System's Energy         =  -1.35 kcal/mol
DOCKED: USER
DOCKED: USER
DOCKED: REMARK  5 active torsions:
DOCKED: REMARK  status: ('A' for Active; 'I' for Inactive)
DOCKED: REMARK    1  A    between atoms: C_2  and  C_19 
DOCKED: REMARK    2  A    between atoms: C_2  and  C_11 
DOCKED: REMARK    3  A    between atoms: C_19  and  C_20 
DOCKED: REMARK    4  A    between atoms: C_20  and  C_21 
DOCKED: REMARK    5  A    between atoms: C_21  and  N_22 
DOCKED: USER                              x       y       z     vdW  Elec       q    Type
DOCKED: USER                           _______ _______ _______ _____ _____    ______ ____
DOCKED: ROOT
DOCKED: ATOM      1  O   UNL     1     -30.454 -16.224   2.833 +0.01 -0.00    -0.346 OA 
DOCKED: ATOM      2  C   UNL     1     -31.653 -15.585   3.378 -0.06 +0.00    +0.130 C  
DOCKED: ATOM      3  C   UNL     1     -32.246 -16.636   4.271 -0.12 +0.00    +0.004 A  
DOCKED: ATOM      4  C   UNL     1     -31.403 -17.737   4.321 -0.09 +0.00    +0.006 A  
DOCKED: ATOM      5  C   UNL     1     -30.206 -17.490   3.486 -0.03 +0.00    +0.169 C  
DOCKED: ATOM      6  C   UNL     1     -33.431 -16.614   4.992 -0.25 -0.00    -0.001 A  
DOCKED: ATOM      7  C   UNL     1     -31.714 -18.849   5.083 -0.17 +0.00    +0.008 A  
DOCKED: ATOM      8  C   UNL     1     -33.762 -17.730   5.763 -0.30 +0.00    +0.010 A  
DOCKED: ATOM      9  C   UNL     1     -32.907 -18.842   5.808 -0.29 +0.00    +0.068 A  
DOCKED: ATOM     10  N   UNL     1     -33.548 -20.895   7.252 -2.55 -0.00    -0.191 NA 
DOCKED: ATOM     11  C   UNL     1     -33.261 -19.975   6.604 -0.39 +0.00    +0.101 C  
DOCKED: ENDROOT
DOCKED: BRANCH   2  12
DOCKED: ATOM     12  C   UNL     1     -31.231 -14.331   4.135 -0.02 +0.00    +0.038 C  
DOCKED: BRANCH  12  13
DOCKED: ATOM     13  C   UNL     1     -30.818 -14.659   5.568 -0.02 +0.00    +0.038 C  
DOCKED: BRANCH  13  14
DOCKED: ATOM     14  C   UNL     1     -29.299 -14.619   5.725 -0.00 +0.00    +0.251 C  
DOCKED: BRANCH  14  15
DOCKED: ATOM     15  N   UNL     1     -28.783 -15.952   6.011 -0.01 +0.00    +0.141 N  
DOCKED: ATOM     16  C   UNL     1     -27.597 -16.232   5.199 -0.00 +0.00    +0.285 C  
DOCKED: ATOM     17  C   UNL     1     -28.467 -16.089   7.434 +0.00 +0.00    +0.285 C  
DOCKED: ENDBRANCH  14  15
DOCKED: ENDBRANCH  13  14
DOCKED: ENDBRANCH  12  13
DOCKED: ENDBRANCH   2  12
DOCKED: BRANCH   2  18
DOCKED: ATOM     18  C   UNL     1     -32.530 -15.244   2.220 -0.12 +0.00    +0.006 A  
DOCKED: ATOM     19  C   UNL     1     -33.550 -14.305   2.370 -0.17 +0.00    +0.001 A  
DOCKED: ATOM     20  C   UNL     1     -34.370 -13.988   1.286 -0.19 +0.00    +0.029 A  
DOCKED: ATOM     21  C   UNL     1     -34.168 -14.609   0.054 -0.19 +0.00    +0.140 A  
DOCKED: ATOM     22  C   UNL     1     -33.148 -15.548  -0.095 -0.20 +0.00    +0.029 A  
DOCKED: ATOM     23  F   UNL     1     -34.954 -14.303  -0.986 -0.14 -0.00    -0.204 F  
DOCKED: ATOM     24  C   UNL     1     -32.328 -15.866   0.988 -0.14 +0.00    +0.001 A  
DOCKED: ENDBRANCH   2  18
DOCKED: TORSDOF 5
DOCKED: TER
DOCKED: ENDMDL
________________________________________________________________________________


    FINAL DOCKED STATE:
    ________________________


Run:   201 / 512
Time taken for this run:   0.002s

DOCKED: MODEL        201
DOCKED: USER    Run = 201
DOCKED: USER
DOCKED: USER    Estimated Free Energy of Binding    =  -3.55 kcal/mol  [=(1)+(2)+(3)-(4)]
DOCKED: USER
DOCKED: USER    (1) Final Intermolecular Energy     =  -5.04 kcal/mol
DOCKED: USER        vdW + Hbond + desolv Energy     =  -5.04 kcal/mol
DOCKED: USER        Electrostatic Energy            =  +0.00 kcal/mol
DOCKED: USER        Moving Ligand-Fixed Receptor    =  -5.04 kcal/mol
DOCKED: USER        Moving Ligand-Moving Receptor   =  +0.00 kcal/mol
DOCKED: USER    (2) Final Total Internal Energy     =  -1.41 kcal/mol
DOCKED: USER    (3) Torsional Free Energy           =  +1.49 kcal/mol
DOCKED: USER    (4) Unbound System's Energy         =  -1.41 kcal/mol
DOCKED: USER
DOCKED: USER
DOCKED: REMARK  5 active torsions:
DOCKED: REMARK  status: ('A' for Active; 'I' for Inactive)
DOCKED: REMARK    1  A    between atoms: C_2  and  C_19 
DOCKED: REMARK    2  A    between atoms: C_2  and  C_11 
DOCKED: REMARK    3  A    between atoms: C_19  and  C_20 
DOCKED: REMARK    4  A    between atoms: C_20  and  C_21 
DOCKED: REMARK    5  A    between atoms: C_21  and  N_22 
DOCKED: USER                              x       y       z     vdW  Elec       q    Type
DOCKED: USER                           _______ _______ _______ _____ _____    ______ ____
DOCKED: ROOT
DOCKED: ATOM      1  O   UNL     1     -31.683  -5.521  -0.637 -0.02 -0.00    -0.346 OA 
DOCKED: ATOM      2  C   UNL     1     -32.113  -6.139   0.618 -0.06 +0.00    +0.130 C  
DOCKED: ATOM      3  C   UNL     1     -33.555  -6.478   0.376 -0.15 +0.00    +0.004 A  
DOCKED: ATOM      4  C   UNL     1     -33.890  -6.183  -0.938 -0.16 +0.00    +0.006 A  
DOCKED: ATOM      5  C   UNL     1     -32.708  -5.647  -1.649 -0.10 +0.00    +0.169 C  
DOCKED: ATOM      6  C   UNL     1     -34.493  -7.017   1.246 -0.19 -0.00    -0.001 A  
DOCKED: ATOM      7  C   UNL     1     -35.166  -6.409  -1.424 -0.28 +0.00    +0.008 A  
DOCKED: ATOM      8  C   UNL     1     -35.785  -7.247   0.771 -0.26 +0.00    +0.010 A  
DOCKED: ATOM      9  C   UNL     1     -36.120  -6.945  -0.557 -0.36 +0.00    +0.068 A  
DOCKED: ATOM     10  N   UNL     1     -38.527  -7.389  -1.407 -2.49 -0.00    -0.191 NA 
DOCKED: ATOM     11  C   UNL     1     -37.447  -7.189  -1.026 -0.39 +0.00    +0.101 C  
DOCKED: ENDROOT
DOCKED: BRANCH   2  12
DOCKED: ATOM     12  C   UNL     1     -31.248  -7.368   0.872 -0.03 +0.00    +0.038 C  
DOCKED: BRANCH  12  13
DOCKED: ATOM     13  C   UNL     1     -30.818  -8.026  -0.437 -0.01 +0.00    +0.038 C  
DOCKED: BRANCH  13  14
DOCKED: ATOM     14  C   UNL     1     -31.592  -9.320  -0.681 +0.00 +0.00    +0.251 C  
DOCKED: BRANCH  14  15
DOCKED: ATOM     15  N   UNL     1     -31.887  -9.474  -2.101 -0.01 +0.00    +0.141 N  
DOCKED: ATOM     16  C   UNL     1     -33.333  -9.504  -2.327 -0.07 +0.00    +0.285 C  
DOCKED: ATOM     17  C   UNL     1     -31.275  -8.394  -2.875 +0.01 +0.00    +0.285 C  
DOCKED: ENDBRANCH  14  15
DOCKED: ENDBRANCH  13  14
DOCKED: ENDBRANCH  12  13
DOCKED: ENDBRANCH   2  12
DOCKED: BRANCH   2  18
DOCKED: ATOM     18  C   UNL     1     -31.928  -5.119   1.692 -0.08 +0.00    +0.006 A  
DOCKED: ATOM     19  C   UNL     1     -31.939  -5.508   3.031 -0.11 +0.00    +0.001 A  
DOCKED: ATOM     20  C   UNL     1     -31.766  -4.554   4.035 -0.09 +0.00    +0.029 A  
DOCKED: ATOM     21  C   UNL     1     -31.583  -3.213   3.698 -0.05 +0.00    +0.140 A  
DOCKED: ATOM     22  C   UNL     1     -31.573  -2.825   2.358 -0.04 +0.00    +0.029 A  
DOCKED: ATOM     23  F   UNL     1     -31.416  -2.298   4.661 -0.01 -0.00    -0.204 F  
DOCKED: ATOM     24  C   UNL     1     -31.746  -3.779   1.354 -0.07 +0.00    +0.001 A  
DOCKED: ENDBRANCH   2  18
DOCKED: TORSDOF 5
DOCKED: TER
DOCKED: ENDMDL
________________________________________________________________________________


    FINAL DOCKED STATE:
    ________________________


Run:   202 / 512
Time taken for this run:   0.002s

DOCKED: MODEL        202
DOCKED: USER    Run = 202
DOCKED: USER
DOCKED: USER    Estimated Free Energy of Binding    =  -4.59 kcal/mol  [=(1)+(2)+(3)-(4)]
DOCKED: USER
DOCKED: USER    (1) Final Intermolecular Energy     =  -6.08 kcal/mol
DOCKED: USER        vdW + Hbond + desolv Energy     =  -6.08 kcal/mol
DOCKED: USER        Electrostatic Energy            =  +0.00 kcal/mol
DOCKED: USER        Moving Ligand-Fixed Receptor    =  -6.08 kcal/mol
DOCKED: USER        Moving Ligand-Moving Receptor   =  +0.00 kcal/mol
DOCKED: USER    (2) Final Total Internal Energy     =  -1.35 kcal/mol
DOCKED: USER    (3) Torsional Free Energy           =  +1.49 kcal/mol
DOCKED: USER    (4) Unbound System's Energy         =  -1.35 kcal/mol
DOCKED: USER
DOCKED: USER
DOCKED: REMARK  5 active torsions:
DOCKED: REMARK  status: ('A' for Active; 'I' for Inactive)
DOCKED: REMARK    1  A    between atoms: C_2  and  C_19 
DOCKED: REMARK    2  A    between atoms: C_2  and  C_11 
DOCKED: REMARK    3  A    between atoms: C_19  and  C_20 
DOCKED: REMARK    4  A    between atoms: C_20  and  C_21 
DOCKED: REMARK    5  A    between atoms: C_21  and  N_22 
DOCKED: USER                              x       y       z     vdW  Elec       q    Type
DOCKED: USER                           _______ _______ _______ _____ _____    ______ ____
DOCKED: ROOT
DOCKED: ATOM      1  O   UNL     1     -38.764 -13.978  10.151 -0.09 -0.00    -0.346 OA 
DOCKED: ATOM      2  C   UNL     1     -40.049 -14.198  10.818 -0.15 +0.00    +0.130 C  
DOCKED: ATOM      3  C   UNL     1     -40.453 -15.574  10.373 -0.22 +0.00    +0.004 A  
DOCKED: ATOM      4  C   UNL     1     -39.439 -16.135   9.610 -0.28 +0.00    +0.006 A  
DOCKED: ATOM      5  C   UNL     1     -38.305 -15.189   9.508 -0.11 +0.00    +0.169 C  
DOCKED: ATOM      6  C   UNL     1     -41.620 -16.277  10.633 -0.20 -0.00    -0.001 A  
DOCKED: ATOM      7  C   UNL     1     -39.557 -17.408   9.079 -0.36 +0.00    +0.008 A  
DOCKED: ATOM      8  C   UNL     1     -41.756 -17.561  10.101 -0.23 +0.00    +0.010 A  
DOCKED: ATOM      9  C   UNL     1     -40.729 -18.123   9.328 -0.27 +0.00    +0.068 A  
DOCKED: ATOM     10  N   UNL     1     -41.012 -20.509   8.360 -2.37 -0.00    -0.191 NA 
DOCKED: ATOM     11  C   UNL     1     -40.885 -19.439   8.794 -0.39 +0.00    +0.101 C  
DOCKED: ENDROOT
DOCKED: BRANCH   2  12
DOCKED: ATOM     12  C   UNL     1     -39.834 -14.101  12.324 -0.05 +0.00    +0.038 C  
DOCKED: BRANCH  12  13
DOCKED: ATOM     13  C   UNL     1     -38.851 -15.161  12.816 -0.05 +0.00    +0.038 C  
DOCKED: BRANCH  13  14
DOCKED: ATOM     14  C   UNL     1     -39.582 -16.309  13.510 -0.02 +0.00    +0.251 C  
DOCKED: BRANCH  14  15
DOCKED: ATOM     15  N   UNL     1     -38.722 -17.483  13.592 -0.07 +0.00    +0.141 N  
DOCKED: ATOM     16  C   UNL     1     -39.247 -18.567  12.761 -0.10 +0.00    +0.285 C  
DOCKED: ATOM     17  C   UNL     1     -37.355 -17.150  13.188 -0.07 +0.00    +0.285 C  
DOCKED: ENDBRANCH  14  15
DOCKED: ENDBRANCH  13  14
DOCKED: ENDBRANCH  12  13
DOCKED: ENDBRANCH   2  12
DOCKED: BRANCH   2  18
DOCKED: ATOM     18  C   UNL     1     -40.978 -13.135  10.337 -0.20 +0.00    +0.006 A  
DOCKED: ATOM     19  C   UNL     1     -40.477 -12.032   9.647 -0.18 +0.00    +0.001 A  
DOCKED: ATOM     20  C   UNL     1     -41.348 -11.038   9.198 -0.16 +0.00    +0.029 A  
DOCKED: ATOM     21  C   UNL     1     -42.716 -11.148   9.439 -0.12 +0.00    +0.140 A  
DOCKED: ATOM     22  C   UNL     1     -43.216 -12.251  10.129 -0.18 +0.00    +0.029 A  
DOCKED: ATOM     23  F   UNL     1     -43.551 -10.194   9.006 -0.02 -0.00    -0.204 F  
DOCKED: ATOM     24  C   UNL     1     -42.347 -13.246  10.579 -0.20 +0.00    +0.001 A  
DOCKED: ENDBRANCH   2  18
DOCKED: TORSDOF 5
DOCKED: TER
DOCKED: ENDMDL
________________________________________________________________________________


    FINAL DOCKED STATE:
    ________________________


Run:   203 / 512
Time taken for this run:   0.002s

DOCKED: MODEL        203
DOCKED: USER    Run = 203
DOCKED: USER
DOCKED: USER    Estimated Free Energy of Binding    =  -3.91 kcal/mol  [=(1)+(2)+(3)-(4)]
DOCKED: USER
DOCKED: USER    (1) Final Intermolecular Energy     =  -5.40 kcal/mol
DOCKED: USER        vdW + Hbond + desolv Energy     =  -5.40 kcal/mol
DOCKED: USER        Electrostatic Energy            =  +0.00 kcal/mol
DOCKED: USER        Moving Ligand-Fixed Receptor    =  -5.40 kcal/mol
DOCKED: USER        Moving Ligand-Moving Receptor   =  +0.00 kcal/mol
DOCKED: USER    (2) Final Total Internal Energy     =  -1.37 kcal/mol
DOCKED: USER    (3) Torsional Free Energy           =  +1.49 kcal/mol
DOCKED: USER    (4) Unbound System's Energy         =  -1.37 kcal/mol
DOCKED: USER
DOCKED: USER
DOCKED: REMARK  5 active torsions:
DOCKED: REMARK  status: ('A' for Active; 'I' for Inactive)
DOCKED: REMARK    1  A    between atoms: C_2  and  C_19 
DOCKED: REMARK    2  A    between atoms: C_2  and  C_11 
DOCKED: REMARK    3  A    between atoms: C_19  and  C_20 
DOCKED: REMARK    4  A    between atoms: C_20  and  C_21 
DOCKED: REMARK    5  A    between atoms: C_21  and  N_22 
DOCKED: USER                              x       y       z     vdW  Elec       q    Type
DOCKED: USER                           _______ _______ _______ _____ _____    ______ ____
DOCKED: ROOT
DOCKED: ATOM      1  O   UNL     1     -36.976 -17.457  13.627 -0.05 -0.00    -0.346 OA 
DOCKED: ATOM      2  C   UNL     1     -37.008 -16.513  12.508 -0.12 +0.00    +0.130 C  
DOCKED: ATOM      3  C   UNL     1     -37.933 -17.160  11.518 -0.21 +0.00    +0.004 A  
DOCKED: ATOM      4  C   UNL     1     -38.469 -18.317  12.067 -0.22 +0.00    +0.006 A  
DOCKED: ATOM      5  C   UNL     1     -37.954 -18.506  13.442 -0.06 +0.00    +0.169 C  
DOCKED: ATOM      6  C   UNL     1     -38.280 -16.752  10.239 -0.21 -0.00    -0.001 A  
DOCKED: ATOM      7  C   UNL     1     -39.362 -19.103  11.359 -0.28 +0.00    +0.008 A  
DOCKED: ATOM      8  C   UNL     1     -39.177 -17.536   9.511 -0.34 +0.00    +0.010 A  
DOCKED: ATOM      9  C   UNL     1     -39.715 -18.706  10.069 -0.29 +0.00    +0.068 A  
DOCKED: ATOM     10  N   UNL     1     -41.380 -20.136   8.692 -2.30 -0.00    -0.191 NA 
DOCKED: ATOM     11  C   UNL     1     -40.632 -19.495   9.310 -0.25 +0.00    +0.101 C  
DOCKED: ENDROOT
DOCKED: BRANCH   2  12
DOCKED: ATOM     12  C   UNL     1     -37.529 -15.175  13.021 -0.05 +0.00    +0.038 C  
DOCKED: BRANCH  12  13
DOCKED: ATOM     13  C   UNL     1     -39.049 -15.188  13.164 -0.04 +0.00    +0.038 C  
DOCKED: BRANCH  13  14
DOCKED: ATOM     14  C   UNL     1     -39.712 -14.359  12.066 -0.04 +0.00    +0.251 C  
DOCKED: BRANCH  14  15
DOCKED: ATOM     15  N   UNL     1     -41.157 -14.554  12.085 -0.04 +0.00    +0.141 N  
DOCKED: ATOM     16  C   UNL     1     -41.678 -14.687  10.724 -0.13 +0.00    +0.285 C  
DOCKED: ATOM     17  C   UNL     1     -41.508 -15.732  12.880 -0.01 +0.00    +0.285 C  
DOCKED: ENDBRANCH  14  15
DOCKED: ENDBRANCH  13  14
DOCKED: ENDBRANCH  12  13
DOCKED: ENDBRANCH   2  12
DOCKED: BRANCH   2  18
DOCKED: ATOM     18  C   UNL     1     -35.609 -16.388  12.003 -0.14 +0.00    +0.006 A  
DOCKED: ATOM     19  C   UNL     1     -34.762 -17.495  12.016 -0.18 +0.00    +0.001 A  
DOCKED: ATOM     20  C   UNL     1     -33.455 -17.377  11.543 -0.16 +0.00    +0.029 A  
DOCKED: ATOM     21  C   UNL     1     -32.997 -16.153  11.057 -0.08 +0.00    +0.140 A  
DOCKED: ATOM     22  C   UNL     1     -33.845 -15.046  11.044 -0.09 +0.00    +0.029 A  
DOCKED: ATOM     23  F   UNL     1     -31.743 -16.041  10.601 -0.00 -0.00    -0.204 F  
DOCKED: ATOM     24  C   UNL     1     -35.153 -15.163  11.517 -0.11 +0.00    +0.001 A  
DOCKED: ENDBRANCH   2  18
DOCKED: TORSDOF 5
DOCKED: TER
DOCKED: ENDMDL
________________________________________________________________________________


    FINAL DOCKED STATE:
    ________________________


Run:   204 / 512
Time taken for this run:   0.002s

DOCKED: MODEL        204
DOCKED: USER    Run = 204
DOCKED: USER
DOCKED: USER    Estimated Free Energy of Binding    =  -4.01 kcal/mol  [=(1)+(2)+(3)-(4)]
DOCKED: USER
DOCKED: USER    (1) Final Intermolecular Energy     =  -5.50 kcal/mol
DOCKED: USER        vdW + Hbond + desolv Energy     =  -5.50 kcal/mol
DOCKED: USER        Electrostatic Energy            =  +0.00 kcal/mol
DOCKED: USER        Moving Ligand-Fixed Receptor    =  -5.50 kcal/mol
DOCKED: USER        Moving Ligand-Moving Receptor   =  +0.00 kcal/mol
DOCKED: USER    (2) Final Total Internal Energy     =  -1.13 kcal/mol
DOCKED: USER    (3) Torsional Free Energy           =  +1.49 kcal/mol
DOCKED: USER    (4) Unbound System's Energy         =  -1.13 kcal/mol
DOCKED: USER
DOCKED: USER
DOCKED: REMARK  5 active torsions:
DOCKED: REMARK  status: ('A' for Active; 'I' for Inactive)
DOCKED: REMARK    1  A    between atoms: C_2  and  C_19 
DOCKED: REMARK    2  A    between atoms: C_2  and  C_11 
DOCKED: REMARK    3  A    between atoms: C_19  and  C_20 
DOCKED: REMARK    4  A    between atoms: C_20  and  C_21 
DOCKED: REMARK    5  A    between atoms: C_21  and  N_22 
DOCKED: USER                              x       y       z     vdW  Elec       q    Type
DOCKED: USER                           _______ _______ _______ _____ _____    ______ ____
DOCKED: ROOT
DOCKED: ATOM      1  O   UNL     1     -34.947 -10.054   3.939 -0.05 -0.00    -0.346 OA 
DOCKED: ATOM      2  C   UNL     1     -36.315 -10.198   3.439 -0.22 +0.00    +0.130 C  
DOCKED: ATOM      3  C   UNL     1     -36.382  -9.231   2.292 -0.28 +0.00    +0.004 A  
DOCKED: ATOM      4  C   UNL     1     -35.131  -8.666   2.084 -0.15 +0.00    +0.006 A  
DOCKED: ATOM      5  C   UNL     1     -34.162  -9.220   3.055 -0.12 +0.00    +0.169 C  
DOCKED: ATOM      6  C   UNL     1     -37.460  -8.888   1.490 -0.30 -0.00    -0.001 A  
DOCKED: ATOM      7  C   UNL     1     -34.917  -7.742   1.076 -0.20 +0.00    +0.008 A  
DOCKED: ATOM      8  C   UNL     1     -37.262  -7.954   0.472 -0.42 +0.00    +0.010 A  
DOCKED: ATOM      9  C   UNL     1     -35.996  -7.384   0.266 -0.30 +0.00    +0.068 A  
DOCKED: ATOM     10  N   UNL     1     -35.661  -5.656  -1.635 -0.82 -0.00    -0.191 NA 
DOCKED: ATOM     11  C   UNL     1     -35.811  -6.430  -0.782 -0.35 +0.00    +0.101 C  
DOCKED: ENDROOT
DOCKED: BRANCH   2  12
DOCKED: ATOM     12  C   UNL     1     -36.522 -11.645   3.009 -0.19 +0.00    +0.038 C  
DOCKED: BRANCH  12  13
DOCKED: ATOM     13  C   UNL     1     -35.771 -11.954   1.715 -0.17 +0.00    +0.038 C  
DOCKED: BRANCH  13  14
DOCKED: ATOM     14  C   UNL     1     -34.352 -12.438   2.005 -0.12 +0.00    +0.251 C  
DOCKED: BRANCH  14  15
DOCKED: ATOM     15  N   UNL     1     -34.336 -13.885   2.186 -0.19 +0.00    +0.141 N  
DOCKED: ATOM     16  C   UNL     1     -33.053 -14.444   1.760 -0.11 +0.00    +0.285 C  
DOCKED: ATOM     17  C   UNL     1     -34.603 -14.232   3.583 -0.16 +0.00    +0.285 C  
DOCKED: ENDBRANCH  14  15
DOCKED: ENDBRANCH  13  14
DOCKED: ENDBRANCH  12  13
DOCKED: ENDBRANCH   2  12
DOCKED: BRANCH   2  18
DOCKED: ATOM     18  C   UNL     1     -37.229  -9.833   4.561 -0.27 +0.00    +0.006 A  
DOCKED: ATOM     19  C   UNL     1     -36.826  -8.898   5.512 -0.21 +0.00    +0.001 A  
DOCKED: ATOM     20  C   UNL     1     -37.682  -8.558   6.561 -0.22 +0.00    +0.029 A  
DOCKED: ATOM     21  C   UNL     1     -38.939  -9.154   6.656 -0.15 +0.00    +0.140 A  
DOCKED: ATOM     22  C   UNL     1     -39.342 -10.090   5.703 -0.26 +0.00    +0.029 A  
DOCKED: ATOM     23  F   UNL     1     -39.761  -8.827   7.661 -0.00 -0.00    -0.204 F  
DOCKED: ATOM     24  C   UNL     1     -38.486 -10.430   4.654 -0.27 +0.00    +0.001 A  
DOCKED: ENDBRANCH   2  18
DOCKED: TORSDOF 5
DOCKED: TER
DOCKED: ENDMDL
________________________________________________________________________________


    FINAL DOCKED STATE:
    ________________________


Run:   205 / 512
Time taken for this run:   0.002s

DOCKED: MODEL        205
DOCKED: USER    Run = 205
DOCKED: USER
DOCKED: USER    Estimated Free Energy of Binding    =  -5.14 kcal/mol  [=(1)+(2)+(3)-(4)]
DOCKED: USER
DOCKED: USER    (1) Final Intermolecular Energy     =  -6.63 kcal/mol
DOCKED: USER        vdW + Hbond + desolv Energy     =  -6.63 kcal/mol
DOCKED: USER        Electrostatic Energy            =  +0.00 kcal/mol
DOCKED: USER        Moving Ligand-Fixed Receptor    =  -6.63 kcal/mol
DOCKED: USER        Moving Ligand-Moving Receptor   =  +0.00 kcal/mol
DOCKED: USER    (2) Final Total Internal Energy     =  -0.84 kcal/mol
DOCKED: USER    (3) Torsional Free Energy           =  +1.49 kcal/mol
DOCKED: USER    (4) Unbound System's Energy         =  -0.84 kcal/mol
DOCKED: USER
DOCKED: USER
DOCKED: REMARK  5 active torsions:
DOCKED: REMARK  status: ('A' for Active; 'I' for Inactive)
DOCKED: REMARK    1  A    between atoms: C_2  and  C_19 
DOCKED: REMARK    2  A    between atoms: C_2  and  C_11 
DOCKED: REMARK    3  A    between atoms: C_19  and  C_20 
DOCKED: REMARK    4  A    between atoms: C_20  and  C_21 
DOCKED: REMARK    5  A    between atoms: C_21  and  N_22 
DOCKED: USER                              x       y       z     vdW  Elec       q    Type
DOCKED: USER                           _______ _______ _______ _____ _____    ______ ____
DOCKED: ROOT
DOCKED: ATOM      1  O   UNL     1     -38.920 -19.156  11.619 -0.19 -0.00    -0.346 OA 
DOCKED: ATOM      2  C   UNL     1     -40.160 -18.380  11.580 -0.17 +0.00    +0.130 C  
DOCKED: ATOM      3  C   UNL     1     -40.537 -18.376  10.127 -0.27 +0.00    +0.004 A  
DOCKED: ATOM      4  C   UNL     1     -39.652 -19.172   9.413 -0.39 +0.00    +0.006 A  
DOCKED: ATOM      5  C   UNL     1     -38.651 -19.759  10.332 -0.25 +0.00    +0.169 C  
DOCKED: ATOM      6  C   UNL     1     -41.585 -17.729   9.489 -0.27 -0.00    -0.001 A  
DOCKED: ATOM      7  C   UNL     1     -39.781 -19.345   8.046 -0.48 +0.00    +0.008 A  
DOCKED: ATOM      8  C   UNL     1     -41.726 -17.890   8.110 +0.03 +0.00    +0.010 A  
DOCKED: ATOM      9  C   UNL     1     -40.828 -18.694   7.392 -0.41 +0.00    +0.068 A  
DOCKED: ATOM     10  N   UNL     1     -41.120 -18.976   4.833 -3.05 -0.00    -0.191 NA 
DOCKED: ATOM     11  C   UNL     1     -40.989 -18.849   5.981 -0.28 +0.00    +0.101 C  
DOCKED: ENDROOT
DOCKED: BRANCH   2  12
DOCKED: ATOM     12  C   UNL     1     -41.193 -19.076  12.459 -0.21 +0.00    +0.038 C  
DOCKED: BRANCH  12  13
DOCKED: ATOM     13  C   UNL     1     -42.024 -18.066  13.248 -0.10 +0.00    +0.038 C  
DOCKED: BRANCH  13  14
DOCKED: ATOM     14  C   UNL     1     -43.122 -18.764  14.049 -0.04 +0.00    +0.251 C  
DOCKED: BRANCH  14  15
DOCKED: ATOM     15  N   UNL     1     -42.562 -19.380  15.246 -0.09 +0.00    +0.141 N  
DOCKED: ATOM     16  C   UNL     1     -42.537 -20.837  15.113 +0.00 +0.00    +0.285 C  
DOCKED: ATOM     17  C   UNL     1     -41.214 -18.871  15.506 -0.05 +0.00    +0.285 C  
DOCKED: ENDBRANCH  14  15
DOCKED: ENDBRANCH  13  14
DOCKED: ENDBRANCH  12  13
DOCKED: ENDBRANCH   2  12
DOCKED: BRANCH   2  18
DOCKED: ATOM     18  C   UNL     1     -39.840 -17.019  12.102 -0.10 +0.00    +0.006 A  
DOCKED: ATOM     19  C   UNL     1     -40.445 -15.896  11.537 -0.11 +0.00    +0.001 A  
DOCKED: ATOM     20  C   UNL     1     -40.144 -14.624  12.025 -0.06 +0.00    +0.029 A  
DOCKED: ATOM     21  C   UNL     1     -39.239 -14.476  13.076 -0.01 +0.00    +0.140 A  
DOCKED: ATOM     22  C   UNL     1     -38.635 -15.599  13.640 -0.03 +0.00    +0.029 A  
DOCKED: ATOM     23  F   UNL     1     -38.952 -13.255  13.546 +0.00 -0.00    -0.204 F  
DOCKED: ATOM     24  C   UNL     1     -38.935 -16.872  13.152 -0.08 +0.00    +0.001 A  
DOCKED: ENDBRANCH   2  18
DOCKED: TORSDOF 5
DOCKED: TER
DOCKED: ENDMDL
________________________________________________________________________________


    FINAL DOCKED STATE:
    ________________________


Run:   206 / 512
Time taken for this run:   0.002s

DOCKED: MODEL        206
DOCKED: USER    Run = 206
DOCKED: USER
DOCKED: USER    Estimated Free Energy of Binding    =  -5.50 kcal/mol  [=(1)+(2)+(3)-(4)]
DOCKED: USER
DOCKED: USER    (1) Final Intermolecular Energy     =  -6.99 kcal/mol
DOCKED: USER        vdW + Hbond + desolv Energy     =  -6.99 kcal/mol
DOCKED: USER        Electrostatic Energy            =  +0.00 kcal/mol
DOCKED: USER        Moving Ligand-Fixed Receptor    =  -6.99 kcal/mol
DOCKED: USER        Moving Ligand-Moving Receptor   =  +0.00 kcal/mol
DOCKED: USER    (2) Final Total Internal Energy     =  -1.00 kcal/mol
DOCKED: USER    (3) Torsional Free Energy           =  +1.49 kcal/mol
DOCKED: USER    (4) Unbound System's Energy         =  -1.00 kcal/mol
DOCKED: USER
DOCKED: USER
DOCKED: REMARK  5 active torsions:
DOCKED: REMARK  status: ('A' for Active; 'I' for Inactive)
DOCKED: REMARK    1  A    between atoms: C_2  and  C_19 
DOCKED: REMARK    2  A    between atoms: C_2  and  C_11 
DOCKED: REMARK    3  A    between atoms: C_19  and  C_20 
DOCKED: REMARK    4  A    between atoms: C_20  and  C_21 
DOCKED: REMARK    5  A    between atoms: C_21  and  N_22 
DOCKED: USER                              x       y       z     vdW  Elec       q    Type
DOCKED: USER                           _______ _______ _______ _____ _____    ______ ____
DOCKED: ROOT
DOCKED: ATOM      1  O   UNL     1     -39.154 -16.246  11.376 -0.04 -0.00    -0.346 OA 
DOCKED: ATOM      2  C   UNL     1     -38.515 -17.561  11.323 -0.21 +0.00    +0.130 C  
DOCKED: ATOM      3  C   UNL     1     -39.019 -18.153  10.038 -0.34 +0.00    +0.004 A  
DOCKED: ATOM      4  C   UNL     1     -39.789 -17.217   9.362 -0.34 +0.00    +0.006 A  
DOCKED: ATOM      5  C   UNL     1     -39.837 -15.955  10.135 -0.22 +0.00    +0.169 C  
DOCKED: ATOM      6  C   UNL     1     -38.803 -19.415   9.504 -0.43 -0.00    -0.001 A  
DOCKED: ATOM      7  C   UNL     1     -40.370 -17.508   8.140 -0.19 +0.00    +0.008 A  
DOCKED: ATOM      8  C   UNL     1     -39.386 -19.726   8.274 -0.37 +0.00    +0.010 A  
DOCKED: ATOM      9  C   UNL     1     -40.165 -18.777   7.596 -0.43 +0.00    +0.068 A  
DOCKED: ATOM     10  N   UNL     1     -41.229 -19.384   5.313 -2.42 -0.00    -0.191 NA 
DOCKED: ATOM     11  C   UNL     1     -40.752 -19.112   6.337 -0.44 +0.00    +0.101 C  
DOCKED: ENDROOT
DOCKED: BRANCH   2  12
DOCKED: ATOM     12  C   UNL     1     -37.004 -17.365  11.333 -0.21 +0.00    +0.038 C  
DOCKED: BRANCH  12  13
DOCKED: ATOM     13  C   UNL     1     -36.616 -16.069  12.043 -0.14 +0.00    +0.038 C  
DOCKED: BRANCH  13  14
DOCKED: ATOM     14  C   UNL     1     -35.484 -16.307  13.041 -0.06 +0.00    +0.251 C  
DOCKED: BRANCH  14  15
DOCKED: ATOM     15  N   UNL     1     -34.241 -15.728  12.546 -0.05 +0.00    +0.141 N  
DOCKED: ATOM     16  C   UNL     1     -33.117 -16.632  12.792 -0.03 +0.00    +0.285 C  
DOCKED: ATOM     17  C   UNL     1     -34.346 -15.425  11.118 -0.07 +0.00    +0.285 C  
DOCKED: ENDBRANCH  14  15
DOCKED: ENDBRANCH  13  14
DOCKED: ENDBRANCH  12  13
DOCKED: ENDBRANCH   2  12
DOCKED: BRANCH   2  18
DOCKED: ATOM     18  C   UNL     1     -38.969 -18.316  12.527 -0.18 +0.00    +0.006 A  
DOCKED: ATOM     19  C   UNL     1     -38.063 -18.612  13.546 -0.13 +0.00    +0.001 A  
DOCKED: ATOM     20  C   UNL     1     -38.489 -19.318  14.672 -0.20 +0.00    +0.029 A  
DOCKED: ATOM     21  C   UNL     1     -39.818 -19.726  14.778 -0.12 +0.00    +0.140 A  
DOCKED: ATOM     22  C   UNL     1     -40.723 -19.429  13.759 -0.13 +0.00    +0.029 A  
DOCKED: ATOM     23  F   UNL     1     -40.226 -20.402  15.860 -0.04 -0.00    -0.204 F  
DOCKED: ATOM     24  C   UNL     1     -40.298 -18.724  12.632 -0.18 +0.00    +0.001 A  
DOCKED: ENDBRANCH   2  18
DOCKED: TORSDOF 5
DOCKED: TER
DOCKED: ENDMDL
________________________________________________________________________________


    FINAL DOCKED STATE:
    ________________________


Run:   207 / 512
Time taken for this run:   0.002s

DOCKED: MODEL        207
DOCKED: USER    Run = 207
DOCKED: USER
DOCKED: USER    Estimated Free Energy of Binding    =  -4.41 kcal/mol  [=(1)+(2)+(3)-(4)]
DOCKED: USER
DOCKED: USER    (1) Final Intermolecular Energy     =  -5.90 kcal/mol
DOCKED: USER        vdW + Hbond + desolv Energy     =  -5.90 kcal/mol
DOCKED: USER        Electrostatic Energy            =  +0.00 kcal/mol
DOCKED: USER        Moving Ligand-Fixed Receptor    =  -5.90 kcal/mol
DOCKED: USER        Moving Ligand-Moving Receptor   =  +0.00 kcal/mol
DOCKED: USER    (2) Final Total Internal Energy     =  -1.11 kcal/mol
DOCKED: USER    (3) Torsional Free Energy           =  +1.49 kcal/mol
DOCKED: USER    (4) Unbound System's Energy         =  -1.11 kcal/mol
DOCKED: USER
DOCKED: USER
DOCKED: REMARK  5 active torsions:
DOCKED: REMARK  status: ('A' for Active; 'I' for Inactive)
DOCKED: REMARK    1  A    between atoms: C_2  and  C_19 
DOCKED: REMARK    2  A    between atoms: C_2  and  C_11 
DOCKED: REMARK    3  A    between atoms: C_19  and  C_20 
DOCKED: REMARK    4  A    between atoms: C_20  and  C_21 
DOCKED: REMARK    5  A    between atoms: C_21  and  N_22 
DOCKED: USER                              x       y       z     vdW  Elec       q    Type
DOCKED: USER                           _______ _______ _______ _____ _____    ______ ____
DOCKED: ROOT
DOCKED: ATOM      1  O   UNL     1     -39.153 -15.842  11.952 -0.02 -0.00    -0.346 OA 
DOCKED: ATOM      2  C   UNL     1     -39.011 -17.286  12.141 -0.12 +0.00    +0.130 C  
DOCKED: ATOM      3  C   UNL     1     -39.365 -17.861  10.800 -0.25 +0.00    +0.004 A  
DOCKED: ATOM      4  C   UNL     1     -39.583 -16.833   9.894 -0.30 +0.00    +0.006 A  
DOCKED: ATOM      5  C   UNL     1     -39.379 -15.527  10.558 -0.19 +0.00    +0.169 C  
DOCKED: ATOM      6  C   UNL     1     -39.475 -19.188  10.411 -0.30 -0.00    -0.001 A  
DOCKED: ATOM      7  C   UNL     1     -39.920 -17.093   8.577 -0.26 +0.00    +0.008 A  
DOCKED: ATOM      8  C   UNL     1     -39.818 -19.467   9.087 -0.37 +0.00    +0.010 A  
DOCKED: ATOM      9  C   UNL     1     -40.040 -18.425   8.175 -0.39 +0.00    +0.068 A  
DOCKED: ATOM     10  N   UNL     1     -40.671 -18.977   5.723 -1.99 -0.00    -0.191 NA 
DOCKED: ATOM     11  C   UNL     1     -40.388 -18.729   6.823 -0.52 +0.00    +0.101 C  
DOCKED: ENDROOT
DOCKED: BRANCH   2  12
DOCKED: ATOM     12  C   UNL     1     -37.572 -17.580  12.551 -0.18 +0.00    +0.038 C  
DOCKED: BRANCH  12  13
DOCKED: ATOM     13  C   UNL     1     -36.630 -17.535  11.349 -0.15 +0.00    +0.038 C  
DOCKED: BRANCH  13  14
DOCKED: ATOM     14  C   UNL     1     -35.170 -17.572  11.794 -0.11 +0.00    +0.251 C  
DOCKED: BRANCH  14  15
DOCKED: ATOM     15  N   UNL     1     -34.620 -16.223  11.846 -0.10 +0.00    +0.141 N  
DOCKED: ATOM     16  C   UNL     1     -33.314 -16.172  11.186 -0.07 +0.00    +0.285 C  
DOCKED: ATOM     17  C   UNL     1     -35.540 -15.268  11.225 -0.07 +0.00    +0.285 C  
DOCKED: ENDBRANCH  14  15
DOCKED: ENDBRANCH  13  14
DOCKED: ENDBRANCH  12  13
DOCKED: ENDBRANCH   2  12
DOCKED: BRANCH   2  18
DOCKED: ATOM     18  C   UNL     1     -39.968 -17.682  13.215 -0.09 +0.00    +0.006 A  
DOCKED: ATOM     19  C   UNL     1     -41.129 -16.939  13.422 -0.05 +0.00    +0.001 A  
DOCKED: ATOM     20  C   UNL     1     -42.023 -17.310  14.427 -0.04 +0.00    +0.029 A  
DOCKED: ATOM     21  C   UNL     1     -41.755 -18.423  15.223 -0.04 +0.00    +0.140 A  
DOCKED: ATOM     22  C   UNL     1     -40.594 -19.166  15.015 -0.13 +0.00    +0.029 A  
DOCKED: ATOM     23  F   UNL     1     -42.615 -18.780  16.186 +0.01 -0.00    -0.204 F  
DOCKED: ATOM     24  C   UNL     1     -39.699 -18.796  14.010 -0.16 +0.00    +0.001 A  
DOCKED: ENDBRANCH   2  18
DOCKED: TORSDOF 5
DOCKED: TER
DOCKED: ENDMDL
________________________________________________________________________________


    FINAL DOCKED STATE:
    ________________________


Run:   208 / 512
Time taken for this run:   0.002s

DOCKED: MODEL        208
DOCKED: USER    Run = 208
DOCKED: USER
DOCKED: USER    Estimated Free Energy of Binding    =  -4.06 kcal/mol  [=(1)+(2)+(3)-(4)]
DOCKED: USER
DOCKED: USER    (1) Final Intermolecular Energy     =  -5.56 kcal/mol
DOCKED: USER        vdW + Hbond + desolv Energy     =  -5.56 kcal/mol
DOCKED: USER        Electrostatic Energy            =  +0.00 kcal/mol
DOCKED: USER        Moving Ligand-Fixed Receptor    =  -5.56 kcal/mol
DOCKED: USER        Moving Ligand-Moving Receptor   =  +0.00 kcal/mol
DOCKED: USER    (2) Final Total Internal Energy     =  -1.39 kcal/mol
DOCKED: USER    (3) Torsional Free Energy           =  +1.49 kcal/mol
DOCKED: USER    (4) Unbound System's Energy         =  -1.39 kcal/mol
DOCKED: USER
DOCKED: USER
DOCKED: REMARK  5 active torsions:
DOCKED: REMARK  status: ('A' for Active; 'I' for Inactive)
DOCKED: REMARK    1  A    between atoms: C_2  and  C_19 
DOCKED: REMARK    2  A    between atoms: C_2  and  C_11 
DOCKED: REMARK    3  A    between atoms: C_19  and  C_20 
DOCKED: REMARK    4  A    between atoms: C_20  and  C_21 
DOCKED: REMARK    5  A    between atoms: C_21  and  N_22 
DOCKED: USER                              x       y       z     vdW  Elec       q    Type
DOCKED: USER                           _______ _______ _______ _____ _____    ______ ____
DOCKED: ROOT
DOCKED: ATOM      1  O   UNL     1     -37.378 -15.213  12.155 -0.03 -0.00    -0.346 OA 
DOCKED: ATOM      2  C   UNL     1     -38.335 -14.604  11.230 -0.11 +0.00    +0.130 C  
DOCKED: ATOM      3  C   UNL     1     -38.959 -15.778  10.533 -0.23 +0.00    +0.004 A  
DOCKED: ATOM      4  C   UNL     1     -38.482 -16.957  11.087 -0.22 +0.00    +0.006 A  
DOCKED: ATOM      5  C   UNL     1     -37.534 -16.651  12.181 -0.13 +0.00    +0.169 C  
DOCKED: ATOM      6  C   UNL     1     -39.883 -15.800   9.499 -0.21 -0.00    -0.001 A  
DOCKED: ATOM      7  C   UNL     1     -38.906 -18.193  10.628 -0.31 +0.00    +0.008 A  
DOCKED: ATOM      8  C   UNL     1     -40.317 -17.038   9.021 -0.26 +0.00    +0.010 A  
DOCKED: ATOM      9  C   UNL     1     -39.831 -18.228   9.583 -0.30 +0.00    +0.068 A  
DOCKED: ATOM     10  N   UNL     1     -40.662 -20.508   8.677 -2.59 -0.00    -0.191 NA 
DOCKED: ATOM     11  C   UNL     1     -40.289 -19.486   9.083 -0.33 +0.00    +0.101 C  
DOCKED: ENDROOT
DOCKED: BRANCH   2  12
DOCKED: ATOM     12  C   UNL     1     -39.338 -13.792  12.040 -0.06 +0.00    +0.038 C  
DOCKED: BRANCH  12  13
DOCKED: ATOM     13  C   UNL     1     -40.390 -14.692  12.687 -0.05 +0.00    +0.038 C  
DOCKED: BRANCH  13  14
DOCKED: ATOM     14  C   UNL     1     -39.943 -15.149  14.075 -0.00 +0.00    +0.251 C  
DOCKED: BRANCH  14  15
DOCKED: ATOM     15  N   UNL     1     -40.691 -16.331  14.485 -0.01 +0.00    +0.141 N  
DOCKED: ATOM     16  C   UNL     1     -41.900 -16.484  13.674 -0.00 +0.00    +0.285 C  
DOCKED: ATOM     17  C   UNL     1     -39.857 -17.530  14.383 -0.03 +0.00    +0.285 C  
DOCKED: ENDBRANCH  14  15
DOCKED: ENDBRANCH  13  14
DOCKED: ENDBRANCH  12  13
DOCKED: ENDBRANCH   2  12
DOCKED: BRANCH   2  18
DOCKED: ATOM     18  C   UNL     1     -37.553 -13.728  10.308 -0.15 +0.00    +0.006 A  
DOCKED: ATOM     19  C   UNL     1     -38.143 -12.588   9.764 -0.12 +0.00    +0.001 A  
DOCKED: ATOM     20  C   UNL     1     -37.412 -11.770   8.902 -0.09 +0.00    +0.029 A  
DOCKED: ATOM     21  C   UNL     1     -36.093 -12.093   8.586 -0.07 +0.00    +0.140 A  
DOCKED: ATOM     22  C   UNL     1     -35.503 -13.233   9.131 -0.11 +0.00    +0.029 A  
DOCKED: ATOM     23  F   UNL     1     -35.390 -11.307   7.760 -0.00 -0.00    -0.204 F  
DOCKED: ATOM     24  C   UNL     1     -36.234 -14.052   9.993 -0.14 +0.00    +0.001 A  
DOCKED: ENDBRANCH   2  18
DOCKED: TORSDOF 5
DOCKED: TER
DOCKED: ENDMDL
________________________________________________________________________________


    FINAL DOCKED STATE:
    ________________________


Run:   209 / 512
Time taken for this run:   0.002s

DOCKED: MODEL        209
DOCKED: USER    Run = 209
DOCKED: USER
DOCKED: USER    Estimated Free Energy of Binding    =  -4.07 kcal/mol  [=(1)+(2)+(3)-(4)]
DOCKED: USER
DOCKED: USER    (1) Final Intermolecular Energy     =  -5.56 kcal/mol
DOCKED: USER        vdW + Hbond + desolv Energy     =  -5.56 kcal/mol
DOCKED: USER        Electrostatic Energy            =  +0.00 kcal/mol
DOCKED: USER        Moving Ligand-Fixed Receptor    =  -5.56 kcal/mol
DOCKED: USER        Moving Ligand-Moving Receptor   =  +0.00 kcal/mol
DOCKED: USER    (2) Final Total Internal Energy     =  -1.02 kcal/mol
DOCKED: USER    (3) Torsional Free Energy           =  +1.49 kcal/mol
DOCKED: USER    (4) Unbound System's Energy         =  -1.02 kcal/mol
DOCKED: USER
DOCKED: USER
DOCKED: REMARK  5 active torsions:
DOCKED: REMARK  status: ('A' for Active; 'I' for Inactive)
DOCKED: REMARK    1  A    between atoms: C_2  and  C_19 
DOCKED: REMARK    2  A    between atoms: C_2  and  C_11 
DOCKED: REMARK    3  A    between atoms: C_19  and  C_20 
DOCKED: REMARK    4  A    between atoms: C_20  and  C_21 
DOCKED: REMARK    5  A    between atoms: C_21  and  N_22 
DOCKED: USER                              x       y       z     vdW  Elec       q    Type
DOCKED: USER                           _______ _______ _______ _____ _____    ______ ____
DOCKED: ROOT
DOCKED: ATOM      1  O   UNL     1     -32.489 -14.063   6.304 -0.01 -0.00    -0.346 OA 
DOCKED: ATOM      2  C   UNL     1     -33.465 -14.513   5.312 -0.10 +0.00    +0.130 C  
DOCKED: ATOM      3  C   UNL     1     -33.577 -15.989   5.561 -0.22 +0.00    +0.004 A  
DOCKED: ATOM      4  C   UNL     1     -32.817 -16.335   6.669 -0.17 +0.00    +0.006 A  
DOCKED: ATOM      5  C   UNL     1     -32.169 -15.128   7.230 -0.07 +0.00    +0.169 C  
DOCKED: ATOM      6  C   UNL     1     -34.303 -16.948   4.869 -0.31 -0.00    -0.001 A  
DOCKED: ATOM      7  C   UNL     1     -32.752 -17.642   7.120 -0.22 +0.00    +0.008 A  
DOCKED: ATOM      8  C   UNL     1     -34.245 -18.272   5.308 -0.21 +0.00    +0.010 A  
DOCKED: ATOM      9  C   UNL     1     -33.474 -18.617   6.428 -0.21 +0.00    +0.068 A  
DOCKED: ATOM     10  N   UNL     1     -33.391 -21.083   7.220 -2.36 -0.00    -0.191 NA 
DOCKED: ATOM     11  C   UNL     1     -33.427 -19.977   6.865 -0.27 +0.00    +0.101 C  
DOCKED: ENDROOT
DOCKED: BRANCH   2  12
DOCKED: ATOM     12  C   UNL     1     -34.774 -13.770   5.551 -0.17 +0.00    +0.038 C  
DOCKED: BRANCH  12  13
DOCKED: ATOM     13  C   UNL     1     -35.638 -13.744   4.291 -0.26 +0.00    +0.038 C  
DOCKED: BRANCH  13  14
DOCKED: ATOM     14  C   UNL     1     -36.917 -12.941   4.519 -0.13 +0.00    +0.251 C  
DOCKED: BRANCH  14  15
DOCKED: ATOM     15  N   UNL     1     -36.956 -11.787   3.629 -0.21 +0.00    +0.141 N  
DOCKED: ATOM     16  C   UNL     1     -37.015 -10.543   4.398 -0.17 +0.00    +0.285 C  
DOCKED: ATOM     17  C   UNL     1     -35.792 -11.780   2.742 -0.15 +0.00    +0.285 C  
DOCKED: ENDBRANCH  14  15
DOCKED: ENDBRANCH  13  14
DOCKED: ENDBRANCH  12  13
DOCKED: ENDBRANCH   2  12
DOCKED: BRANCH   2  18
DOCKED: ATOM     18  C   UNL     1     -32.901 -14.192   3.968 -0.07 +0.00    +0.006 A  
DOCKED: ATOM     19  C   UNL     1     -32.401 -12.916   3.710 -0.02 +0.00    +0.001 A  
DOCKED: ATOM     20  C   UNL     1     -31.874 -12.617   2.453 -0.01 +0.00    +0.029 A  
DOCKED: ATOM     21  C   UNL     1     -31.848 -13.592   1.457 -0.02 +0.00    +0.140 A  
DOCKED: ATOM     22  C   UNL     1     -32.349 -14.868   1.716 -0.10 +0.00    +0.029 A  
DOCKED: ATOM     23  F   UNL     1     -31.341 -13.305   0.251 +0.00 -0.00    -0.204 F  
DOCKED: ATOM     24  C   UNL     1     -32.876 -15.168   2.973 -0.13 +0.00    +0.001 A  
DOCKED: ENDBRANCH   2  18
DOCKED: TORSDOF 5
DOCKED: TER
DOCKED: ENDMDL
________________________________________________________________________________


    FINAL DOCKED STATE:
    ________________________


Run:   210 / 512
Time taken for this run:   0.002s

DOCKED: MODEL        210
DOCKED: USER    Run = 210
DOCKED: USER
DOCKED: USER    Estimated Free Energy of Binding    =  -4.55 kcal/mol  [=(1)+(2)+(3)-(4)]
DOCKED: USER
DOCKED: USER    (1) Final Intermolecular Energy     =  -6.04 kcal/mol
DOCKED: USER        vdW + Hbond + desolv Energy     =  -6.04 kcal/mol
DOCKED: USER        Electrostatic Energy            =  +0.00 kcal/mol
DOCKED: USER        Moving Ligand-Fixed Receptor    =  -6.04 kcal/mol
DOCKED: USER        Moving Ligand-Moving Receptor   =  +0.00 kcal/mol
DOCKED: USER    (2) Final Total Internal Energy     =  -1.35 kcal/mol
DOCKED: USER    (3) Torsional Free Energy           =  +1.49 kcal/mol
DOCKED: USER    (4) Unbound System's Energy         =  -1.35 kcal/mol
DOCKED: USER
DOCKED: USER
DOCKED: REMARK  5 active torsions:
DOCKED: REMARK  status: ('A' for Active; 'I' for Inactive)
DOCKED: REMARK    1  A    between atoms: C_2  and  C_19 
DOCKED: REMARK    2  A    between atoms: C_2  and  C_11 
DOCKED: REMARK    3  A    between atoms: C_19  and  C_20 
DOCKED: REMARK    4  A    between atoms: C_20  and  C_21 
DOCKED: REMARK    5  A    between atoms: C_21  and  N_22 
DOCKED: USER                              x       y       z     vdW  Elec       q    Type
DOCKED: USER                           _______ _______ _______ _____ _____    ______ ____
DOCKED: ROOT
DOCKED: ATOM      1  O   UNL     1     -38.448 -13.675  10.060 -0.08 -0.00    -0.346 OA 
DOCKED: ATOM      2  C   UNL     1     -39.803 -13.731  10.612 -0.16 +0.00    +0.130 C  
DOCKED: ATOM      3  C   UNL     1     -40.273 -15.115  10.269 -0.23 +0.00    +0.004 A  
DOCKED: ATOM      4  C   UNL     1     -39.241 -15.825   9.674 -0.26 +0.00    +0.006 A  
DOCKED: ATOM      5  C   UNL     1     -38.029 -14.979   9.593 -0.12 +0.00    +0.169 C  
DOCKED: ATOM      6  C   UNL     1     -41.513 -15.702  10.479 -0.21 -0.00    -0.001 A  
DOCKED: ATOM      7  C   UNL     1     -39.410 -17.137   9.265 -0.33 +0.00    +0.008 A  
DOCKED: ATOM      8  C   UNL     1     -41.701 -17.023  10.068 -0.22 +0.00    +0.010 A  
DOCKED: ATOM      9  C   UNL     1     -40.655 -17.737   9.465 -0.26 +0.00    +0.068 A  
DOCKED: ATOM     10  N   UNL     1     -41.037 -20.189   8.720 -2.56 -0.00    -0.191 NA 
DOCKED: ATOM     11  C   UNL     1     -40.865 -19.089   9.053 -0.36 +0.00    +0.101 C  
DOCKED: ENDROOT
DOCKED: BRANCH   2  12
DOCKED: ATOM     12  C   UNL     1     -39.723 -13.486  12.114 -0.05 +0.00    +0.038 C  
DOCKED: BRANCH  12  13
DOCKED: ATOM     13  C   UNL     1     -39.638 -14.799  12.889 -0.04 +0.00    +0.038 C  
DOCKED: BRANCH  13  14
DOCKED: ATOM     14  C   UNL     1     -38.375 -14.851  13.746 -0.01 +0.00    +0.251 C  
DOCKED: BRANCH  14  15
DOCKED: ATOM     15  N   UNL     1     -37.558 -16.000  13.376 -0.04 +0.00    +0.141 N  
DOCKED: ATOM     16  C   UNL     1     -38.378 -17.035  12.743 -0.06 +0.00    +0.285 C  
DOCKED: ATOM     17  C   UNL     1     -36.473 -15.594  12.480 -0.06 +0.00    +0.285 C  
DOCKED: ENDBRANCH  14  15
DOCKED: ENDBRANCH  13  14
DOCKED: ENDBRANCH  12  13
DOCKED: ENDBRANCH   2  12
DOCKED: BRANCH   2  18
DOCKED: ATOM     18  C   UNL     1     -40.594 -12.663   9.933 -0.20 +0.00    +0.006 A  
DOCKED: ATOM     19  C   UNL     1     -41.969 -12.575  10.144 -0.21 +0.00    +0.001 A  
DOCKED: ATOM     20  C   UNL     1     -42.708 -11.576   9.509 -0.17 +0.00    +0.029 A  
DOCKED: ATOM     21  C   UNL     1     -42.071 -10.668   8.664 -0.10 +0.00    +0.140 A  
DOCKED: ATOM     22  C   UNL     1     -40.695 -10.757   8.454 -0.16 +0.00    +0.029 A  
DOCKED: ATOM     23  F   UNL     1     -42.780  -9.708   8.056 -0.02 -0.00    -0.204 F  
DOCKED: ATOM     24  C   UNL     1     -39.956 -11.756   9.089 -0.15 +0.00    +0.001 A  
DOCKED: ENDBRANCH   2  18
DOCKED: TORSDOF 5
DOCKED: TER
DOCKED: ENDMDL
________________________________________________________________________________


    FINAL DOCKED STATE:
    ________________________


Run:   211 / 512
Time taken for this run:   0.002s

DOCKED: MODEL        211
DOCKED: USER    Run = 211
DOCKED: USER
DOCKED: USER    Estimated Free Energy of Binding    =  -5.68 kcal/mol  [=(1)+(2)+(3)-(4)]
DOCKED: USER
DOCKED: USER    (1) Final Intermolecular Energy     =  -7.17 kcal/mol
DOCKED: USER        vdW + Hbond + desolv Energy     =  -7.17 kcal/mol
DOCKED: USER        Electrostatic Energy            =  +0.00 kcal/mol
DOCKED: USER        Moving Ligand-Fixed Receptor    =  -7.17 kcal/mol
DOCKED: USER        Moving Ligand-Moving Receptor   =  +0.00 kcal/mol
DOCKED: USER    (2) Final Total Internal Energy     =  -1.10 kcal/mol
DOCKED: USER    (3) Torsional Free Energy           =  +1.49 kcal/mol
DOCKED: USER    (4) Unbound System's Energy         =  -1.10 kcal/mol
DOCKED: USER
DOCKED: USER
DOCKED: REMARK  5 active torsions:
DOCKED: REMARK  status: ('A' for Active; 'I' for Inactive)
DOCKED: REMARK    1  A    between atoms: C_2  and  C_19 
DOCKED: REMARK    2  A    between atoms: C_2  and  C_11 
DOCKED: REMARK    3  A    between atoms: C_19  and  C_20 
DOCKED: REMARK    4  A    between atoms: C_20  and  C_21 
DOCKED: REMARK    5  A    between atoms: C_21  and  N_22 
DOCKED: USER                              x       y       z     vdW  Elec       q    Type
DOCKED: USER                           _______ _______ _______ _____ _____    ______ ____
DOCKED: ROOT
DOCKED: ATOM      1  O   UNL     1     -38.316 -18.770  11.393 -0.13 -0.00    -0.346 OA 
DOCKED: ATOM      2  C   UNL     1     -39.671 -18.222  11.471 -0.18 +0.00    +0.130 C  
DOCKED: ATOM      3  C   UNL     1     -40.205 -18.383  10.077 -0.29 +0.00    +0.004 A  
DOCKED: ATOM      4  C   UNL     1     -39.279 -19.064   9.299 -0.42 +0.00    +0.006 A  
DOCKED: ATOM      5  C   UNL     1     -38.092 -19.407  10.114 -0.28 +0.00    +0.169 C  
DOCKED: ATOM      6  C   UNL     1     -41.417 -17.971   9.544 -0.28 -0.00    -0.001 A  
DOCKED: ATOM      7  C   UNL     1     -39.530 -19.351   7.968 -0.42 +0.00    +0.008 A  
DOCKED: ATOM      8  C   UNL     1     -41.682 -18.249   8.202 -0.31 +0.00    +0.010 A  
DOCKED: ATOM      9  C   UNL     1     -40.744 -18.936   7.418 -0.43 +0.00    +0.068 A  
DOCKED: ATOM     10  N   UNL     1     -41.270 -19.440   4.932 -2.71 -0.00    -0.191 NA 
DOCKED: ATOM     11  C   UNL     1     -41.034 -19.213   6.047 -0.33 +0.00    +0.101 C  
DOCKED: ENDROOT
DOCKED: BRANCH   2  12
DOCKED: ATOM     12  C   UNL     1     -40.456 -19.021  12.504 -0.23 +0.00    +0.038 C  
DOCKED: BRANCH  12  13
DOCKED: ATOM     13  C   UNL     1     -39.526 -19.712  13.499 -0.23 +0.00    +0.038 C  
DOCKED: BRANCH  13  14
DOCKED: ATOM     14  C   UNL     1     -39.340 -18.864  14.757 -0.10 +0.00    +0.251 C  
DOCKED: BRANCH  14  15
DOCKED: ATOM     15  N   UNL     1     -39.418 -19.701  15.948 -0.13 +0.00    +0.141 N  
DOCKED: ATOM     16  C   UNL     1     -40.719 -20.366  16.027 -0.08 +0.00    +0.285 C  
DOCKED: ATOM     17  C   UNL     1     -38.340 -20.692  15.954 -0.16 +0.00    +0.285 C  
DOCKED: ENDBRANCH  14  15
DOCKED: ENDBRANCH  13  14
DOCKED: ENDBRANCH  12  13
DOCKED: ENDBRANCH   2  12
DOCKED: BRANCH   2  18
DOCKED: ATOM     18  C   UNL     1     -39.540 -16.793  11.882 -0.11 +0.00    +0.006 A  
DOCKED: ATOM     19  C   UNL     1     -38.617 -15.966  11.242 -0.17 +0.00    +0.001 A  
DOCKED: ATOM     20  C   UNL     1     -38.496 -14.630  11.627 -0.09 +0.00    +0.029 A  
DOCKED: ATOM     21  C   UNL     1     -39.296 -14.124  12.650 -0.02 +0.00    +0.140 A  
DOCKED: ATOM     22  C   UNL     1     -40.218 -14.952  13.290 -0.02 +0.00    +0.029 A  
DOCKED: ATOM     23  F   UNL     1     -39.180 -12.841  13.019 +0.00 -0.00    -0.204 F  
DOCKED: ATOM     24  C   UNL     1     -40.341 -16.288  12.905 -0.05 +0.00    +0.001 A  
DOCKED: ENDBRANCH   2  18
DOCKED: TORSDOF 5
DOCKED: TER
DOCKED: ENDMDL
________________________________________________________________________________


    FINAL DOCKED STATE:
    ________________________


Run:   212 / 512
Time taken for this run:   0.002s

DOCKED: MODEL        212
DOCKED: USER    Run = 212
DOCKED: USER
DOCKED: USER    Estimated Free Energy of Binding    =  -3.48 kcal/mol  [=(1)+(2)+(3)-(4)]
DOCKED: USER
DOCKED: USER    (1) Final Intermolecular Energy     =  -4.97 kcal/mol
DOCKED: USER        vdW + Hbond + desolv Energy     =  -4.97 kcal/mol
DOCKED: USER        Electrostatic Energy            =  +0.00 kcal/mol
DOCKED: USER        Moving Ligand-Fixed Receptor    =  -4.97 kcal/mol
DOCKED: USER        Moving Ligand-Moving Receptor   =  +0.00 kcal/mol
DOCKED: USER    (2) Final Total Internal Energy     =  -1.31 kcal/mol
DOCKED: USER    (3) Torsional Free Energy           =  +1.49 kcal/mol
DOCKED: USER    (4) Unbound System's Energy         =  -1.31 kcal/mol
DOCKED: USER
DOCKED: USER
DOCKED: REMARK  5 active torsions:
DOCKED: REMARK  status: ('A' for Active; 'I' for Inactive)
DOCKED: REMARK    1  A    between atoms: C_2  and  C_19 
DOCKED: REMARK    2  A    between atoms: C_2  and  C_11 
DOCKED: REMARK    3  A    between atoms: C_19  and  C_20 
DOCKED: REMARK    4  A    between atoms: C_20  and  C_21 
DOCKED: REMARK    5  A    between atoms: C_21  and  N_22 
DOCKED: USER                              x       y       z     vdW  Elec       q    Type
DOCKED: USER                           _______ _______ _______ _____ _____    ______ ____
DOCKED: ROOT
DOCKED: ATOM      1  O   UNL     1     -39.260 -14.518  12.521 -0.00 -0.00    -0.346 OA 
DOCKED: ATOM      2  C   UNL     1     -39.076 -14.244  11.096 -0.12 +0.00    +0.130 C  
DOCKED: ATOM      3  C   UNL     1     -39.403 -15.551  10.434 -0.23 +0.00    +0.004 A  
DOCKED: ATOM      4  C   UNL     1     -39.842 -16.460  11.386 -0.13 +0.00    +0.006 A  
DOCKED: ATOM      5  C   UNL     1     -39.849 -15.824  12.722 -0.04 +0.00    +0.169 C  
DOCKED: ATOM      6  C   UNL     1     -39.329 -15.904   9.094 +0.03 -0.00    -0.001 A  
DOCKED: ATOM      7  C   UNL     1     -40.216 -17.746  11.036 -0.18 +0.00    +0.008 A  
DOCKED: ATOM      8  C   UNL     1     -39.698 -17.199   8.726 -0.33 +0.00    +0.010 A  
DOCKED: ATOM      9  C   UNL     1     -40.140 -18.115   9.692 -0.28 +0.00    +0.068 A  
DOCKED: ATOM     10  N   UNL     1     -40.823 -20.509   8.975 -2.50 -0.00    -0.191 NA 
DOCKED: ATOM     11  C   UNL     1     -40.516 -19.436   9.297 -0.29 +0.00    +0.101 C  
DOCKED: ENDROOT
DOCKED: BRANCH   2  12
DOCKED: ATOM     12  C   UNL     1     -40.025 -13.121  10.693 -0.16 +0.00    +0.038 C  
DOCKED: BRANCH  12  13
DOCKED: ATOM     13  C   UNL     1     -41.484 -13.528  10.890 -0.18 +0.00    +0.038 C  
DOCKED: BRANCH  13  14
DOCKED: ATOM     14  C   UNL     1     -41.994 -13.096  12.264 -0.02 +0.00    +0.251 C  
DOCKED: BRANCH  14  15
DOCKED: ATOM     15  N   UNL     1     -42.619 -14.222  12.949 -0.02 +0.00    +0.141 N  
DOCKED: ATOM     16  C   UNL     1     -42.930 -13.872  14.336 +0.00 +0.00    +0.285 C  
DOCKED: ATOM     17  C   UNL     1     -43.832 -14.644  12.247 -0.02 +0.00    +0.285 C  
DOCKED: ENDBRANCH  14  15
DOCKED: ENDBRANCH  13  14
DOCKED: ENDBRANCH  12  13
DOCKED: ENDBRANCH   2  12
DOCKED: BRANCH   2  18
DOCKED: ATOM     18  C   UNL     1     -37.652 -13.838  10.909 -0.11 +0.00    +0.006 A  
DOCKED: ATOM     19  C   UNL     1     -37.328 -12.493  10.737 -0.07 +0.00    +0.001 A  
DOCKED: ATOM     20  C   UNL     1     -35.996 -12.115  10.563 -0.04 +0.00    +0.029 A  
DOCKED: ATOM     21  C   UNL     1     -34.991 -13.081  10.562 -0.04 +0.00    +0.140 A  
DOCKED: ATOM     22  C   UNL     1     -35.316 -14.426  10.734 -0.10 +0.00    +0.029 A  
DOCKED: ATOM     23  F   UNL     1     -33.713 -12.718  10.396 -0.00 -0.00    -0.204 F  
DOCKED: ATOM     24  C   UNL     1     -36.648 -14.806  10.908 -0.13 +0.00    +0.001 A  
DOCKED: ENDBRANCH   2  18
DOCKED: TORSDOF 5
DOCKED: TER
DOCKED: ENDMDL
________________________________________________________________________________


    FINAL DOCKED STATE:
    ________________________


Run:   213 / 512
Time taken for this run:   0.002s

DOCKED: MODEL        213
DOCKED: USER    Run = 213
DOCKED: USER
DOCKED: USER    Estimated Free Energy of Binding    =  -3.85 kcal/mol  [=(1)+(2)+(3)-(4)]
DOCKED: USER
DOCKED: USER    (1) Final Intermolecular Energy     =  -5.34 kcal/mol
DOCKED: USER        vdW + Hbond + desolv Energy     =  -5.34 kcal/mol
DOCKED: USER        Electrostatic Energy            =  +0.00 kcal/mol
DOCKED: USER        Moving Ligand-Fixed Receptor    =  -5.34 kcal/mol
DOCKED: USER        Moving Ligand-Moving Receptor   =  +0.00 kcal/mol
DOCKED: USER    (2) Final Total Internal Energy     =  -1.36 kcal/mol
DOCKED: USER    (3) Torsional Free Energy           =  +1.49 kcal/mol
DOCKED: USER    (4) Unbound System's Energy         =  -1.36 kcal/mol
DOCKED: USER
DOCKED: USER
DOCKED: REMARK  5 active torsions:
DOCKED: REMARK  status: ('A' for Active; 'I' for Inactive)
DOCKED: REMARK    1  A    between atoms: C_2  and  C_19 
DOCKED: REMARK    2  A    between atoms: C_2  and  C_11 
DOCKED: REMARK    3  A    between atoms: C_19  and  C_20 
DOCKED: REMARK    4  A    between atoms: C_20  and  C_21 
DOCKED: REMARK    5  A    between atoms: C_21  and  N_22 
DOCKED: USER                              x       y       z     vdW  Elec       q    Type
DOCKED: USER                           _______ _______ _______ _____ _____    ______ ____
DOCKED: ROOT
DOCKED: ATOM      1  O   UNL     1     -31.143 -14.817   4.300 +0.01 -0.00    -0.346 OA 
DOCKED: ATOM      2  C   UNL     1     -32.603 -14.814   4.200 -0.07 +0.00    +0.130 C  
DOCKED: ATOM      3  C   UNL     1     -33.009 -16.123   4.813 -0.17 +0.00    +0.004 A  
DOCKED: ATOM      4  C   UNL     1     -31.889 -16.768   5.319 -0.10 +0.00    +0.006 A  
DOCKED: ATOM      5  C   UNL     1     -30.685 -15.938   5.092 -0.02 +0.00    +0.169 C  
DOCKED: ATOM      6  C   UNL     1     -34.269 -16.692   4.924 -0.32 -0.00    -0.001 A  
DOCKED: ATOM      7  C   UNL     1     -31.989 -17.998   5.946 -0.17 +0.00    +0.008 A  
DOCKED: ATOM      8  C   UNL     1     -34.385 -17.934   5.550 -0.13 +0.00    +0.010 A  
DOCKED: ATOM      9  C   UNL     1     -33.251 -18.584   6.059 -0.29 +0.00    +0.068 A  
DOCKED: ATOM     10  N   UNL     1     -33.502 -20.887   7.219 -2.52 -0.00    -0.191 NA 
DOCKED: ATOM     11  C   UNL     1     -33.389 -19.854   6.698 -0.32 +0.00    +0.101 C  
DOCKED: ENDROOT
DOCKED: BRANCH   2  12
DOCKED: ATOM     12  C   UNL     1     -33.137 -13.609   4.966 -0.05 +0.00    +0.038 C  
DOCKED: BRANCH  12  13
DOCKED: ATOM     13  C   UNL     1     -33.054 -13.827   6.475 -0.07 +0.00    +0.038 C  
DOCKED: BRANCH  13  14
DOCKED: ATOM     14  C   UNL     1     -31.813 -13.155   7.060 -0.01 +0.00    +0.251 C  
DOCKED: BRANCH  14  15
DOCKED: ATOM     15  N   UNL     1     -31.162 -14.038   8.019 -0.02 +0.00    +0.141 N  
DOCKED: ATOM     16  C   UNL     1     -30.554 -13.265   9.103 -0.00 +0.00    +0.285 C  
DOCKED: ATOM     17  C   UNL     1     -32.118 -15.006   8.561 -0.05 +0.00    +0.285 C  
DOCKED: ENDBRANCH  14  15
DOCKED: ENDBRANCH  13  14
DOCKED: ENDBRANCH  12  13
DOCKED: ENDBRANCH   2  12
DOCKED: BRANCH   2  18
DOCKED: ATOM     18  C   UNL     1     -32.941 -14.722   2.749 -0.13 +0.00    +0.006 A  
DOCKED: ATOM     19  C   UNL     1     -33.644 -13.619   2.266 -0.14 +0.00    +0.001 A  
DOCKED: ATOM     20  C   UNL     1     -33.959 -13.535   0.909 -0.20 +0.00    +0.029 A  
DOCKED: ATOM     21  C   UNL     1     -33.571 -14.552   0.038 -0.20 +0.00    +0.140 A  
DOCKED: ATOM     22  C   UNL     1     -32.867 -15.654   0.522 -0.17 +0.00    +0.029 A  
DOCKED: ATOM     23  F   UNL     1     -33.872 -14.469  -1.264 -0.08 -0.00    -0.204 F  
DOCKED: ATOM     24  C   UNL     1     -32.551 -15.740   1.879 -0.12 +0.00    +0.001 A  
DOCKED: ENDBRANCH   2  18
DOCKED: TORSDOF 5
DOCKED: TER
DOCKED: ENDMDL
________________________________________________________________________________


    FINAL DOCKED STATE:
    ________________________


Run:   214 / 512
Time taken for this run:   0.002s

DOCKED: MODEL        214
DOCKED: USER    Run = 214
DOCKED: USER
DOCKED: USER    Estimated Free Energy of Binding    =  -4.30 kcal/mol  [=(1)+(2)+(3)-(4)]
DOCKED: USER
DOCKED: USER    (1) Final Intermolecular Energy     =  -5.79 kcal/mol
DOCKED: USER        vdW + Hbond + desolv Energy     =  -5.79 kcal/mol
DOCKED: USER        Electrostatic Energy            =  +0.00 kcal/mol
DOCKED: USER        Moving Ligand-Fixed Receptor    =  -5.79 kcal/mol
DOCKED: USER        Moving Ligand-Moving Receptor   =  +0.00 kcal/mol
DOCKED: USER    (2) Final Total Internal Energy     =  -1.46 kcal/mol
DOCKED: USER    (3) Torsional Free Energy           =  +1.49 kcal/mol
DOCKED: USER    (4) Unbound System's Energy         =  -1.46 kcal/mol
DOCKED: USER
DOCKED: USER
DOCKED: REMARK  5 active torsions:
DOCKED: REMARK  status: ('A' for Active; 'I' for Inactive)
DOCKED: REMARK    1  A    between atoms: C_2  and  C_19 
DOCKED: REMARK    2  A    between atoms: C_2  and  C_11 
DOCKED: REMARK    3  A    between atoms: C_19  and  C_20 
DOCKED: REMARK    4  A    between atoms: C_20  and  C_21 
DOCKED: REMARK    5  A    between atoms: C_21  and  N_22 
DOCKED: USER                              x       y       z     vdW  Elec       q    Type
DOCKED: USER                           _______ _______ _______ _____ _____    ______ ____
DOCKED: ROOT
DOCKED: ATOM      1  O   UNL     1     -36.306 -15.903  11.767 -0.07 -0.00    -0.346 OA 
DOCKED: ATOM      2  C   UNL     1     -37.296 -15.108  11.039 -0.14 +0.00    +0.130 C  
DOCKED: ATOM      3  C   UNL     1     -38.197 -16.137  10.418 -0.22 +0.00    +0.004 A  
DOCKED: ATOM      4  C   UNL     1     -37.822 -17.403  10.844 -0.22 +0.00    +0.006 A  
DOCKED: ATOM      5  C   UNL     1     -36.674 -17.302  11.772 -0.17 +0.00    +0.169 C  
DOCKED: ATOM      6  C   UNL     1     -39.269 -15.964   9.555 -0.27 -0.00    -0.001 A  
DOCKED: ATOM      7  C   UNL     1     -38.499 -18.535  10.422 -0.34 +0.00    +0.008 A  
DOCKED: ATOM      8  C   UNL     1     -39.958 -17.096   9.116 -0.33 +0.00    +0.010 A  
DOCKED: ATOM      9  C   UNL     1     -39.575 -18.374   9.548 -0.32 +0.00    +0.068 A  
DOCKED: ATOM     10  N   UNL     1     -40.880 -20.454   8.719 -2.57 -0.00    -0.191 NA 
DOCKED: ATOM     11  C   UNL     1     -40.294 -19.521   9.091 -0.31 +0.00    +0.101 C  
DOCKED: ENDROOT
DOCKED: BRANCH   2  12
DOCKED: ATOM     12  C   UNL     1     -38.020 -14.208  12.034 -0.06 +0.00    +0.038 C  
DOCKED: BRANCH  12  13
DOCKED: ATOM     13  C   UNL     1     -38.587 -15.013  13.202 -0.04 +0.00    +0.038 C  
DOCKED: BRANCH  13  14
DOCKED: ATOM     14  C   UNL     1     -40.114 -15.046  13.155 -0.01 +0.00    +0.251 C  
DOCKED: BRANCH  14  15
DOCKED: ATOM     15  N   UNL     1     -40.602 -16.376  13.500 -0.02 +0.00    +0.141 N  
DOCKED: ATOM     16  C   UNL     1     -41.188 -17.030  12.328 -0.02 +0.00    +0.285 C  
DOCKED: ATOM     17  C   UNL     1     -39.522 -17.196  14.050 -0.02 +0.00    +0.285 C  
DOCKED: ENDBRANCH  14  15
DOCKED: ENDBRANCH  13  14
DOCKED: ENDBRANCH  12  13
DOCKED: ENDBRANCH   2  12
DOCKED: BRANCH   2  18
DOCKED: ATOM     18  C   UNL     1     -36.550 -14.302  10.028 -0.14 +0.00    +0.006 A  
DOCKED: ATOM     19  C   UNL     1     -37.221 -13.347   9.266 -0.14 +0.00    +0.001 A  
DOCKED: ATOM     20  C   UNL     1     -36.522 -12.594   8.321 -0.12 +0.00    +0.029 A  
DOCKED: ATOM     21  C   UNL     1     -35.155 -12.798   8.140 -0.08 +0.00    +0.140 A  
DOCKED: ATOM     22  C   UNL     1     -34.485 -13.754   8.903 -0.10 +0.00    +0.029 A  
DOCKED: ATOM     23  F   UNL     1     -34.485 -12.074   7.234 -0.00 -0.00    -0.204 F  
DOCKED: ATOM     24  C   UNL     1     -35.183 -14.507   9.848 -0.07 +0.00    +0.001 A  
DOCKED: ENDBRANCH   2  18
DOCKED: TORSDOF 5
DOCKED: TER
DOCKED: ENDMDL
________________________________________________________________________________


    FINAL DOCKED STATE:
    ________________________


Run:   215 / 512
Time taken for this run:   0.002s

DOCKED: MODEL        215
DOCKED: USER    Run = 215
DOCKED: USER
DOCKED: USER    Estimated Free Energy of Binding    =  -4.61 kcal/mol  [=(1)+(2)+(3)-(4)]
DOCKED: USER
DOCKED: USER    (1) Final Intermolecular Energy     =  -6.10 kcal/mol
DOCKED: USER        vdW + Hbond + desolv Energy     =  -6.10 kcal/mol
DOCKED: USER        Electrostatic Energy            =  +0.00 kcal/mol
DOCKED: USER        Moving Ligand-Fixed Receptor    =  -6.10 kcal/mol
DOCKED: USER        Moving Ligand-Moving Receptor   =  +0.00 kcal/mol
DOCKED: USER    (2) Final Total Internal Energy     =  -1.38 kcal/mol
DOCKED: USER    (3) Torsional Free Energy           =  +1.49 kcal/mol
DOCKED: USER    (4) Unbound System's Energy         =  -1.38 kcal/mol
DOCKED: USER
DOCKED: USER
DOCKED: REMARK  5 active torsions:
DOCKED: REMARK  status: ('A' for Active; 'I' for Inactive)
DOCKED: REMARK    1  A    between atoms: C_2  and  C_19 
DOCKED: REMARK    2  A    between atoms: C_2  and  C_11 
DOCKED: REMARK    3  A    between atoms: C_19  and  C_20 
DOCKED: REMARK    4  A    between atoms: C_20  and  C_21 
DOCKED: REMARK    5  A    between atoms: C_21  and  N_22 
DOCKED: USER                              x       y       z     vdW  Elec       q    Type
DOCKED: USER                           _______ _______ _______ _____ _____    ______ ____
DOCKED: ROOT
DOCKED: ATOM      1  O   UNL     1     -38.461 -13.672  10.081 -0.07 -0.00    -0.346 OA 
DOCKED: ATOM      2  C   UNL     1     -39.826 -13.723  10.605 -0.16 +0.00    +0.130 C  
DOCKED: ATOM      3  C   UNL     1     -40.292 -15.108  10.260 -0.23 +0.00    +0.004 A  
DOCKED: ATOM      4  C   UNL     1     -39.249 -15.823   9.689 -0.26 +0.00    +0.006 A  
DOCKED: ATOM      5  C   UNL     1     -38.035 -14.979   9.629 -0.13 +0.00    +0.169 C  
DOCKED: ATOM      6  C   UNL     1     -41.536 -15.693  10.448 -0.22 -0.00    -0.001 A  
DOCKED: ATOM      7  C   UNL     1     -39.412 -17.137   9.284 -0.33 +0.00    +0.008 A  
DOCKED: ATOM      8  C   UNL     1     -41.719 -17.015  10.040 -0.22 +0.00    +0.010 A  
DOCKED: ATOM      9  C   UNL     1     -40.661 -17.734   9.462 -0.26 +0.00    +0.068 A  
DOCKED: ATOM     10  N   UNL     1     -41.032 -20.189   8.721 -2.56 -0.00    -0.191 NA 
DOCKED: ATOM     11  C   UNL     1     -40.866 -19.087   9.053 -0.36 +0.00    +0.101 C  
DOCKED: ENDROOT
DOCKED: BRANCH   2  12
DOCKED: ATOM     12  C   UNL     1     -39.777 -13.471  12.107 -0.05 +0.00    +0.038 C  
DOCKED: BRANCH  12  13
DOCKED: ATOM     13  C   UNL     1     -38.582 -14.171  12.751 -0.04 +0.00    +0.038 C  
DOCKED: BRANCH  13  14
DOCKED: ATOM     14  C   UNL     1     -38.963 -15.563  13.249 -0.02 +0.00    +0.251 C  
DOCKED: BRANCH  14  15
DOCKED: ATOM     15  N   UNL     1     -38.126 -16.576  12.618 -0.07 +0.00    +0.141 N  
DOCKED: ATOM     16  C   UNL     1     -36.740 -16.113  12.523 -0.07 +0.00    +0.285 C  
DOCKED: ATOM     17  C   UNL     1     -38.190 -17.835  13.360 -0.07 +0.00    +0.285 C  
DOCKED: ENDBRANCH  14  15
DOCKED: ENDBRANCH  13  14
DOCKED: ENDBRANCH  12  13
DOCKED: ENDBRANCH   2  12
DOCKED: BRANCH   2  18
DOCKED: ATOM     18  C   UNL     1     -40.602 -12.658   9.905 -0.20 +0.00    +0.006 A  
DOCKED: ATOM     19  C   UNL     1     -41.986 -12.586  10.062 -0.21 +0.00    +0.001 A  
DOCKED: ATOM     20  C   UNL     1     -42.710 -11.590   9.407 -0.14 +0.00    +0.029 A  
DOCKED: ATOM     21  C   UNL     1     -42.051 -10.667   8.597 -0.09 +0.00    +0.140 A  
DOCKED: ATOM     22  C   UNL     1     -40.667 -10.739   8.440 -0.16 +0.00    +0.029 A  
DOCKED: ATOM     23  F   UNL     1     -42.746  -9.709   7.969 -0.02 -0.00    -0.204 F  
DOCKED: ATOM     24  C   UNL     1     -39.941 -11.736   9.095 -0.15 +0.00    +0.001 A  
DOCKED: ENDBRANCH   2  18
DOCKED: TORSDOF 5
DOCKED: TER
DOCKED: ENDMDL
________________________________________________________________________________


    FINAL DOCKED STATE:
    ________________________


Run:   216 / 512
Time taken for this run:   0.002s

DOCKED: MODEL        216
DOCKED: USER    Run = 216
DOCKED: USER
DOCKED: USER    Estimated Free Energy of Binding    =  -3.25 kcal/mol  [=(1)+(2)+(3)-(4)]
DOCKED: USER
DOCKED: USER    (1) Final Intermolecular Energy     =  -4.74 kcal/mol
DOCKED: USER        vdW + Hbond + desolv Energy     =  -4.74 kcal/mol
DOCKED: USER        Electrostatic Energy            =  +0.00 kcal/mol
DOCKED: USER        Moving Ligand-Fixed Receptor    =  -4.74 kcal/mol
DOCKED: USER        Moving Ligand-Moving Receptor   =  +0.00 kcal/mol
DOCKED: USER    (2) Final Total Internal Energy     =  -1.17 kcal/mol
DOCKED: USER    (3) Torsional Free Energy           =  +1.49 kcal/mol
DOCKED: USER    (4) Unbound System's Energy         =  -1.17 kcal/mol
DOCKED: USER
DOCKED: USER
DOCKED: REMARK  5 active torsions:
DOCKED: REMARK  status: ('A' for Active; 'I' for Inactive)
DOCKED: REMARK    1  A    between atoms: C_2  and  C_19 
DOCKED: REMARK    2  A    between atoms: C_2  and  C_11 
DOCKED: REMARK    3  A    between atoms: C_19  and  C_20 
DOCKED: REMARK    4  A    between atoms: C_20  and  C_21 
DOCKED: REMARK    5  A    between atoms: C_21  and  N_22 
DOCKED: USER                              x       y       z     vdW  Elec       q    Type
DOCKED: USER                           _______ _______ _______ _____ _____    ______ ____
DOCKED: ROOT
DOCKED: ATOM      1  O   UNL     1     -40.170 -13.187  11.847 -0.01 -0.00    -0.346 OA 
DOCKED: ATOM      2  C   UNL     1     -39.433 -13.481  10.618 -0.14 +0.00    +0.130 C  
DOCKED: ATOM      3  C   UNL     1     -39.652 -14.953  10.411 -0.21 +0.00    +0.004 A  
DOCKED: ATOM      4  C   UNL     1     -40.526 -15.435  11.375 -0.12 +0.00    +0.006 A  
DOCKED: ATOM      5  C   UNL     1     -40.951 -14.331  12.265 -0.04 +0.00    +0.169 C  
DOCKED: ATOM      6  C   UNL     1     -39.127 -15.794   9.442 -0.21 -0.00    -0.001 A  
DOCKED: ATOM      7  C   UNL     1     -40.901 -16.767  11.406 -0.12 +0.00    +0.008 A  
DOCKED: ATOM      8  C   UNL     1     -39.492 -17.142   9.462 -0.34 +0.00    +0.010 A  
DOCKED: ATOM      9  C   UNL     1     -40.375 -17.625  10.439 -0.19 +0.00    +0.068 A  
DOCKED: ATOM     10  N   UNL     1     -41.036 -20.130  10.445 -1.98 -0.00    -0.191 NA 
DOCKED: ATOM     11  C   UNL     1     -40.739 -19.007  10.443 -0.25 +0.00    +0.101 C  
DOCKED: ENDROOT
DOCKED: BRANCH   2  12
DOCKED: ATOM     12  C   UNL     1     -40.013 -12.632   9.493 -0.17 +0.00    +0.038 C  
DOCKED: BRANCH  12  13
DOCKED: ATOM     13  C   UNL     1     -40.394 -11.238   9.987 -0.13 +0.00    +0.038 C  
DOCKED: BRANCH  13  14
DOCKED: ATOM     14  C   UNL     1     -40.294 -10.210   8.861 -0.09 +0.00    +0.251 C  
DOCKED: BRANCH  14  15
DOCKED: ATOM     15  N   UNL     1     -39.545 -10.759   7.737 -0.15 +0.00    +0.141 N  
DOCKED: ATOM     16  C   UNL     1     -40.101 -10.288   6.468 -0.15 +0.00    +0.285 C  
DOCKED: ATOM     17  C   UNL     1     -38.130 -10.401   7.836 -0.07 +0.00    +0.285 C  
DOCKED: ENDBRANCH  14  15
DOCKED: ENDBRANCH  13  14
DOCKED: ENDBRANCH  12  13
DOCKED: ENDBRANCH   2  12
DOCKED: BRANCH   2  18
DOCKED: ATOM     18  C   UNL     1     -38.004 -13.135  10.872 -0.09 +0.00    +0.006 A  
DOCKED: ATOM     19  C   UNL     1     -37.104 -13.069   9.809 -0.13 +0.00    +0.001 A  
DOCKED: ATOM     20  C   UNL     1     -35.768 -12.746  10.049 -0.07 +0.00    +0.029 A  
DOCKED: ATOM     21  C   UNL     1     -35.334 -12.489  11.348 -0.02 +0.00    +0.140 A  
DOCKED: ATOM     22  C   UNL     1     -36.236 -12.555  12.410 -0.01 +0.00    +0.029 A  
DOCKED: ATOM     23  F   UNL     1     -34.052 -12.177  11.577 +0.00 -0.00    -0.204 F  
DOCKED: ATOM     24  C   UNL     1     -37.572 -12.879  12.172 -0.03 +0.00    +0.001 A  
DOCKED: ENDBRANCH   2  18
DOCKED: TORSDOF 5
DOCKED: TER
DOCKED: ENDMDL
________________________________________________________________________________


    FINAL DOCKED STATE:
    ________________________


Run:   217 / 512
Time taken for this run:   0.002s

DOCKED: MODEL        217
DOCKED: USER    Run = 217
DOCKED: USER
DOCKED: USER    Estimated Free Energy of Binding    =  -5.56 kcal/mol  [=(1)+(2)+(3)-(4)]
DOCKED: USER
DOCKED: USER    (1) Final Intermolecular Energy     =  -7.05 kcal/mol
DOCKED: USER        vdW + Hbond + desolv Energy     =  -7.05 kcal/mol
DOCKED: USER        Electrostatic Energy            =  +0.00 kcal/mol
DOCKED: USER        Moving Ligand-Fixed Receptor    =  -7.05 kcal/mol
DOCKED: USER        Moving Ligand-Moving Receptor   =  +0.00 kcal/mol
DOCKED: USER    (2) Final Total Internal Energy     =  -1.11 kcal/mol
DOCKED: USER    (3) Torsional Free Energy           =  +1.49 kcal/mol
DOCKED: USER    (4) Unbound System's Energy         =  -1.11 kcal/mol
DOCKED: USER
DOCKED: USER
DOCKED: REMARK  5 active torsions:
DOCKED: REMARK  status: ('A' for Active; 'I' for Inactive)
DOCKED: REMARK    1  A    between atoms: C_2  and  C_19 
DOCKED: REMARK    2  A    between atoms: C_2  and  C_11 
DOCKED: REMARK    3  A    between atoms: C_19  and  C_20 
DOCKED: REMARK    4  A    between atoms: C_20  and  C_21 
DOCKED: REMARK    5  A    between atoms: C_21  and  N_22 
DOCKED: USER                              x       y       z     vdW  Elec       q    Type
DOCKED: USER                           _______ _______ _______ _____ _____    ______ ____
DOCKED: ROOT
DOCKED: ATOM      1  O   UNL     1     -38.875 -16.770  11.484 -0.05 -0.00    -0.346 OA 
DOCKED: ATOM      2  C   UNL     1     -39.739 -17.942  11.630 -0.15 +0.00    +0.130 C  
DOCKED: ATOM      3  C   UNL     1     -40.162 -18.254  10.224 -0.27 +0.00    +0.004 A  
DOCKED: ATOM      4  C   UNL     1     -39.511 -17.405   9.341 -0.35 +0.00    +0.006 A  
DOCKED: ATOM      5  C   UNL     1     -38.615 -16.494  10.088 -0.22 +0.00    +0.169 C  
DOCKED: ATOM      6  C   UNL     1     -41.045 -19.220   9.762 -0.29 -0.00    -0.001 A  
DOCKED: ATOM      7  C   UNL     1     -39.720 -17.487   7.975 -0.18 +0.00    +0.008 A  
DOCKED: ATOM      8  C   UNL     1     -41.270 -19.313   8.388 -0.41 +0.00    +0.010 A  
DOCKED: ATOM      9  C   UNL     1     -40.610 -18.451   7.499 -0.40 +0.00    +0.068 A  
DOCKED: ATOM     10  N   UNL     1     -41.047 -18.653   4.953 -3.17 -0.00    -0.191 NA 
DOCKED: ATOM     11  C   UNL     1     -40.852 -18.562   6.095 -0.35 +0.00    +0.101 C  
DOCKED: ENDROOT
DOCKED: BRANCH   2  12
DOCKED: ATOM     12  C   UNL     1     -38.927 -19.063  12.268 -0.27 +0.00    +0.038 C  
DOCKED: BRANCH  12  13
DOCKED: ATOM     13  C   UNL     1     -38.399 -18.656  13.642 -0.19 +0.00    +0.038 C  
DOCKED: BRANCH  13  14
DOCKED: ATOM     14  C   UNL     1     -38.047 -19.883  14.481 +0.04 +0.00    +0.251 C  
DOCKED: BRANCH  14  15
DOCKED: ATOM     15  N   UNL     1     -39.219 -20.350  15.213 -0.20 +0.00    +0.141 N  
DOCKED: ATOM     16  C   UNL     1     -38.826 -20.940  16.494 -0.17 +0.00    +0.285 C  
DOCKED: ATOM     17  C   UNL     1     -40.163 -19.253  15.428 -0.08 +0.00    +0.285 C  
DOCKED: ENDBRANCH  14  15
DOCKED: ENDBRANCH  13  14
DOCKED: ENDBRANCH  12  13
DOCKED: ENDBRANCH   2  12
DOCKED: BRANCH   2  18
DOCKED: ATOM     18  C   UNL     1     -40.879 -17.538  12.504 -0.09 +0.00    +0.006 A  
DOCKED: ATOM     19  C   UNL     1     -40.986 -16.219  12.944 -0.05 +0.00    +0.001 A  
DOCKED: ATOM     20  C   UNL     1     -42.052 -15.843  13.762 -0.02 +0.00    +0.029 A  
DOCKED: ATOM     21  C   UNL     1     -43.009 -16.784  14.138 -0.01 +0.00    +0.140 A  
DOCKED: ATOM     22  C   UNL     1     -42.901 -18.103  13.698 -0.07 +0.00    +0.029 A  
DOCKED: ATOM     23  F   UNL     1     -44.033 -16.422  14.922 +0.01 -0.00    -0.204 F  
DOCKED: ATOM     24  C   UNL     1     -41.835 -18.481  12.880 -0.13 +0.00    +0.001 A  
DOCKED: ENDBRANCH   2  18
DOCKED: TORSDOF 5
DOCKED: TER
DOCKED: ENDMDL
________________________________________________________________________________


    FINAL DOCKED STATE:
    ________________________


Run:   218 / 512
Time taken for this run:   0.002s

DOCKED: MODEL        218
DOCKED: USER    Run = 218
DOCKED: USER
DOCKED: USER    Estimated Free Energy of Binding    =  -5.71 kcal/mol  [=(1)+(2)+(3)-(4)]
DOCKED: USER
DOCKED: USER    (1) Final Intermolecular Energy     =  -7.20 kcal/mol
DOCKED: USER        vdW + Hbond + desolv Energy     =  -7.20 kcal/mol
DOCKED: USER        Electrostatic Energy            =  +0.00 kcal/mol
DOCKED: USER        Moving Ligand-Fixed Receptor    =  -7.20 kcal/mol
DOCKED: USER        Moving Ligand-Moving Receptor   =  +0.00 kcal/mol
DOCKED: USER    (2) Final Total Internal Energy     =  -1.31 kcal/mol
DOCKED: USER    (3) Torsional Free Energy           =  +1.49 kcal/mol
DOCKED: USER    (4) Unbound System's Energy         =  -1.31 kcal/mol
DOCKED: USER
DOCKED: USER
DOCKED: REMARK  5 active torsions:
DOCKED: REMARK  status: ('A' for Active; 'I' for Inactive)
DOCKED: REMARK    1  A    between atoms: C_2  and  C_19 
DOCKED: REMARK    2  A    between atoms: C_2  and  C_11 
DOCKED: REMARK    3  A    between atoms: C_19  and  C_20 
DOCKED: REMARK    4  A    between atoms: C_20  and  C_21 
DOCKED: REMARK    5  A    between atoms: C_21  and  N_22 
DOCKED: USER                              x       y       z     vdW  Elec       q    Type
DOCKED: USER                           _______ _______ _______ _____ _____    ______ ____
DOCKED: ROOT
DOCKED: ATOM      1  O   UNL     1     -38.630 -16.206  11.073 -0.07 -0.00    -0.346 OA 
DOCKED: ATOM      2  C   UNL     1     -38.618 -17.664  11.194 -0.22 +0.00    +0.130 C  
DOCKED: ATOM      3  C   UNL     1     -39.185 -18.138   9.888 -0.34 +0.00    +0.004 A  
DOCKED: ATOM      4  C   UNL     1     -39.399 -17.053   9.050 -0.31 +0.00    +0.006 A  
DOCKED: ATOM      5  C   UNL     1     -38.983 -15.805   9.728 -0.22 +0.00    +0.169 C  
DOCKED: ATOM      6  C   UNL     1     -39.478 -19.428   9.470 -0.32 -0.00    -0.001 A  
DOCKED: ATOM      7  C   UNL     1     -39.914 -17.217   7.775 +0.06 +0.00    +0.008 A  
DOCKED: ATOM      8  C   UNL     1     -40.002 -19.609   8.188 -0.50 +0.00    +0.010 A  
DOCKED: ATOM      9  C   UNL     1     -40.218 -18.509   7.345 -0.42 +0.00    +0.068 A  
DOCKED: ATOM     10  N   UNL     1     -41.186 -18.881   4.971 -3.05 -0.00    -0.191 NA 
DOCKED: ATOM     11  C   UNL     1     -40.752 -18.714   6.036 -0.38 +0.00    +0.101 C  
DOCKED: ENDROOT
DOCKED: BRANCH   2  12
DOCKED: ATOM     12  C   UNL     1     -37.181 -18.118  11.417 -0.21 +0.00    +0.038 C  
DOCKED: BRANCH  12  13
DOCKED: ATOM     13  C   UNL     1     -36.463 -17.223  12.425 -0.19 +0.00    +0.038 C  
DOCKED: BRANCH  13  14
DOCKED: ATOM     14  C   UNL     1     -35.386 -16.382  11.742 -0.10 +0.00    +0.251 C  
DOCKED: BRANCH  14  15
DOCKED: ATOM     15  N   UNL     1     -35.872 -15.028  11.507 -0.09 +0.00    +0.141 N  
DOCKED: ATOM     16  C   UNL     1     -36.776 -14.610  12.579 -0.03 +0.00    +0.285 C  
DOCKED: ATOM     17  C   UNL     1     -34.754 -14.090  11.391 -0.04 +0.00    +0.285 C  
DOCKED: ENDBRANCH  14  15
DOCKED: ENDBRANCH  13  14
DOCKED: ENDBRANCH  12  13
DOCKED: ENDBRANCH   2  12
DOCKED: BRANCH   2  18
DOCKED: ATOM     18  C   UNL     1     -39.480 -18.012  12.363 -0.15 +0.00    +0.006 A  
DOCKED: ATOM     19  C   UNL     1     -40.677 -17.329  12.573 -0.09 +0.00    +0.001 A  
DOCKED: ATOM     20  C   UNL     1     -41.481 -17.654  13.666 -0.06 +0.00    +0.029 A  
DOCKED: ATOM     21  C   UNL     1     -41.088 -18.662  14.545 -0.07 +0.00    +0.140 A  
DOCKED: ATOM     22  C   UNL     1     -39.890 -19.344  14.334 -0.18 +0.00    +0.029 A  
DOCKED: ATOM     23  F   UNL     1     -41.861 -18.975  15.593 -0.00 -0.00    -0.204 F  
DOCKED: ATOM     24  C   UNL     1     -39.084 -19.019  13.242 -0.21 +0.00    +0.001 A  
DOCKED: ENDBRANCH   2  18
DOCKED: TORSDOF 5
DOCKED: TER
DOCKED: ENDMDL
________________________________________________________________________________


    FINAL DOCKED STATE:
    ________________________


Run:   219 / 512
Time taken for this run:   0.002s

DOCKED: MODEL        219
DOCKED: USER    Run = 219
DOCKED: USER
DOCKED: USER    Estimated Free Energy of Binding    =  -5.29 kcal/mol  [=(1)+(2)+(3)-(4)]
DOCKED: USER
DOCKED: USER    (1) Final Intermolecular Energy     =  -6.78 kcal/mol
DOCKED: USER        vdW + Hbond + desolv Energy     =  -6.78 kcal/mol
DOCKED: USER        Electrostatic Energy            =  +0.00 kcal/mol
DOCKED: USER        Moving Ligand-Fixed Receptor    =  -6.78 kcal/mol
DOCKED: USER        Moving Ligand-Moving Receptor   =  +0.00 kcal/mol
DOCKED: USER    (2) Final Total Internal Energy     =  -1.28 kcal/mol
DOCKED: USER    (3) Torsional Free Energy           =  +1.49 kcal/mol
DOCKED: USER    (4) Unbound System's Energy         =  -1.28 kcal/mol
DOCKED: USER
DOCKED: USER
DOCKED: REMARK  5 active torsions:
DOCKED: REMARK  status: ('A' for Active; 'I' for Inactive)
DOCKED: REMARK    1  A    between atoms: C_2  and  C_19 
DOCKED: REMARK    2  A    between atoms: C_2  and  C_11 
DOCKED: REMARK    3  A    between atoms: C_19  and  C_20 
DOCKED: REMARK    4  A    between atoms: C_20  and  C_21 
DOCKED: REMARK    5  A    between atoms: C_21  and  N_22 
DOCKED: USER                              x       y       z     vdW  Elec       q    Type
DOCKED: USER                           _______ _______ _______ _____ _____    ______ ____
DOCKED: ROOT
DOCKED: ATOM      1  O   UNL     1     -38.162 -19.030  11.918 -0.10 -0.00    -0.346 OA 
DOCKED: ATOM      2  C   UNL     1     -38.386 -17.643  11.510 -0.21 +0.00    +0.130 C  
DOCKED: ATOM      3  C   UNL     1     -38.976 -17.764  10.134 -0.31 +0.00    +0.004 A  
DOCKED: ATOM      4  C   UNL     1     -39.175 -19.103   9.828 -0.39 +0.00    +0.006 A  
DOCKED: ATOM      5  C   UNL     1     -38.749 -19.947  10.966 -0.12 +0.00    +0.169 C  
DOCKED: ATOM      6  C   UNL     1     -39.320 -16.768   9.231 -0.31 -0.00    -0.001 A  
DOCKED: ATOM      7  C   UNL     1     -39.716 -19.491   8.614 -0.47 +0.00    +0.008 A  
DOCKED: ATOM      8  C   UNL     1     -39.863 -17.144   8.001 -0.04 +0.00    +0.010 A  
DOCKED: ATOM      9  C   UNL     1     -40.060 -18.499   7.695 -0.40 +0.00    +0.068 A  
DOCKED: ATOM     10  N   UNL     1     -41.075 -19.163   5.405 -2.41 -0.00    -0.191 NA 
DOCKED: ATOM     11  C   UNL     1     -40.619 -18.865   6.432 -0.50 +0.00    +0.101 C  
DOCKED: ENDROOT
DOCKED: BRANCH   2  12
DOCKED: ATOM     12  C   UNL     1     -39.337 -16.993  12.508 -0.11 +0.00    +0.038 C  
DOCKED: BRANCH  12  13
DOCKED: ATOM     13  C   UNL     1     -39.691 -17.950  13.644 -0.12 +0.00    +0.038 C  
DOCKED: BRANCH  13  14
DOCKED: ATOM     14  C   UNL     1     -38.539 -18.071  14.640 -0.07 +0.00    +0.251 C  
DOCKED: BRANCH  14  15
DOCKED: ATOM     15  N   UNL     1     -38.440 -19.437  15.138 -0.17 +0.00    +0.141 N  
DOCKED: ATOM     16  C   UNL     1     -37.163 -19.647  15.821 -0.12 +0.00    +0.285 C  
DOCKED: ATOM     17  C   UNL     1     -39.553 -19.739  16.040 -0.10 +0.00    +0.285 C  
DOCKED: ENDBRANCH  14  15
DOCKED: ENDBRANCH  13  14
DOCKED: ENDBRANCH  12  13
DOCKED: ENDBRANCH   2  12
DOCKED: BRANCH   2  18
DOCKED: ATOM     18  C   UNL     1     -37.056 -16.966  11.515 -0.19 +0.00    +0.006 A  
DOCKED: ATOM     19  C   UNL     1     -36.975 -15.588  11.319 -0.15 +0.00    +0.001 A  
DOCKED: ATOM     20  C   UNL     1     -35.730 -14.957  11.323 -0.11 +0.00    +0.029 A  
DOCKED: ATOM     21  C   UNL     1     -34.570 -15.703  11.524 -0.09 +0.00    +0.140 A  
DOCKED: ATOM     22  C   UNL     1     -34.653 -17.082  11.720 -0.16 +0.00    +0.029 A  
DOCKED: ATOM     23  F   UNL     1     -33.376 -15.097  11.530 -0.01 -0.00    -0.204 F  
DOCKED: ATOM     24  C   UNL     1     -35.897 -17.714  11.715 -0.14 +0.00    +0.001 A  
DOCKED: ENDBRANCH   2  18
DOCKED: TORSDOF 5
DOCKED: TER
DOCKED: ENDMDL
________________________________________________________________________________


    FINAL DOCKED STATE:
    ________________________


Run:   220 / 512
Time taken for this run:   0.002s

DOCKED: MODEL        220
DOCKED: USER    Run = 220
DOCKED: USER
DOCKED: USER    Estimated Free Energy of Binding    =  -3.20 kcal/mol  [=(1)+(2)+(3)-(4)]
DOCKED: USER
DOCKED: USER    (1) Final Intermolecular Energy     =  -4.70 kcal/mol
DOCKED: USER        vdW + Hbond + desolv Energy     =  -4.70 kcal/mol
DOCKED: USER        Electrostatic Energy            =  +0.00 kcal/mol
DOCKED: USER        Moving Ligand-Fixed Receptor    =  -4.70 kcal/mol
DOCKED: USER        Moving Ligand-Moving Receptor   =  +0.00 kcal/mol
DOCKED: USER    (2) Final Total Internal Energy     =  -1.04 kcal/mol
DOCKED: USER    (3) Torsional Free Energy           =  +1.49 kcal/mol
DOCKED: USER    (4) Unbound System's Energy         =  -1.04 kcal/mol
DOCKED: USER
DOCKED: USER
DOCKED: REMARK  5 active torsions:
DOCKED: REMARK  status: ('A' for Active; 'I' for Inactive)
DOCKED: REMARK    1  A    between atoms: C_2  and  C_19 
DOCKED: REMARK    2  A    between atoms: C_2  and  C_11 
DOCKED: REMARK    3  A    between atoms: C_19  and  C_20 
DOCKED: REMARK    4  A    between atoms: C_20  and  C_21 
DOCKED: REMARK    5  A    between atoms: C_21  and  N_22 
DOCKED: USER                              x       y       z     vdW  Elec       q    Type
DOCKED: USER                           _______ _______ _______ _____ _____    ______ ____
DOCKED: ROOT
DOCKED: ATOM      1  O   UNL     1     -38.661 -16.422  10.158 -0.14 -0.00    -0.346 OA 
DOCKED: ATOM      2  C   UNL     1     -39.965 -16.957  10.550 -0.20 +0.00    +0.130 C  
DOCKED: ATOM      3  C   UNL     1     -39.669 -17.753  11.788 -0.16 +0.00    +0.004 A  
DOCKED: ATOM      4  C   UNL     1     -38.335 -17.596  12.136 -0.18 +0.00    +0.006 A  
DOCKED: ATOM      5  C   UNL     1     -37.668 -16.689  11.176 -0.17 +0.00    +0.169 C  
DOCKED: ATOM      6  C   UNL     1     -40.516 -18.544  12.551 -0.16 -0.00    -0.001 A  
DOCKED: ATOM      7  C   UNL     1     -37.803 -18.223  13.250 -0.12 +0.00    +0.008 A  
DOCKED: ATOM      8  C   UNL     1     -39.993 -19.186  13.675 -0.19 +0.00    +0.010 A  
DOCKED: ATOM      9  C   UNL     1     -38.643 -19.026  14.023 -0.17 +0.00    +0.068 A  
DOCKED: ATOM     10  N   UNL     1     -37.706 -20.228  16.118 -0.14 -0.00    -0.191 NA 
DOCKED: ATOM     11  C   UNL     1     -38.126 -19.689  15.178 -0.22 +0.00    +0.101 C  
DOCKED: ENDROOT
DOCKED: BRANCH   2  12
DOCKED: ATOM     12  C   UNL     1     -40.909 -15.789  10.807 -0.20 +0.00    +0.038 C  
DOCKED: BRANCH  12  13
DOCKED: ATOM     13  C   UNL     1     -40.585 -14.601   9.903 -0.22 +0.00    +0.038 C  
DOCKED: BRANCH  13  14
DOCKED: ATOM     14  C   UNL     1     -40.091 -13.409  10.719 -0.12 +0.00    +0.251 C  
DOCKED: BRANCH  14  15
DOCKED: ATOM     15  N   UNL     1     -40.622 -12.165  10.173 -0.13 +0.00    +0.141 N  
DOCKED: ATOM     16  C   UNL     1     -42.044 -12.307   9.856 -0.15 +0.00    +0.285 C  
DOCKED: ATOM     17  C   UNL     1     -40.419 -11.061  11.112 -0.03 +0.00    +0.285 C  
DOCKED: ENDBRANCH  14  15
DOCKED: ENDBRANCH  13  14
DOCKED: ENDBRANCH  12  13
DOCKED: ENDBRANCH   2  12
DOCKED: BRANCH   2  18
DOCKED: ATOM     18  C   UNL     1     -40.448 -17.801   9.418 -0.32 +0.00    +0.006 A  
DOCKED: ATOM     19  C   UNL     1     -41.814 -18.028   9.251 -0.29 +0.00    +0.001 A  
DOCKED: ATOM     20  C   UNL     1     -42.264 -18.818   8.192 -0.29 +0.00    +0.029 A  
DOCKED: ATOM     21  C   UNL     1     -41.349 -19.378   7.302 -0.25 +0.00    +0.140 A  
DOCKED: ATOM     22  C   UNL     1     -39.983 -19.151   7.469 -0.49 +0.00    +0.029 A  
DOCKED: ATOM     23  F   UNL     1     -41.782 -20.134   6.285 +0.02 -0.00    -0.204 F  
DOCKED: ATOM     24  C   UNL     1     -39.532 -18.362   8.528 -0.38 +0.00    +0.001 A  
DOCKED: ENDBRANCH   2  18
DOCKED: TORSDOF 5
DOCKED: TER
DOCKED: ENDMDL
________________________________________________________________________________


    FINAL DOCKED STATE:
    ________________________


Run:   221 / 512
Time taken for this run:   0.002s

DOCKED: MODEL        221
DOCKED: USER    Run = 221
DOCKED: USER
DOCKED: USER    Estimated Free Energy of Binding    =  -5.46 kcal/mol  [=(1)+(2)+(3)-(4)]
DOCKED: USER
DOCKED: USER    (1) Final Intermolecular Energy     =  -6.95 kcal/mol
DOCKED: USER        vdW + Hbond + desolv Energy     =  -6.95 kcal/mol
DOCKED: USER        Electrostatic Energy            =  +0.00 kcal/mol
DOCKED: USER        Moving Ligand-Fixed Receptor    =  -6.95 kcal/mol
DOCKED: USER        Moving Ligand-Moving Receptor   =  +0.00 kcal/mol
DOCKED: USER    (2) Final Total Internal Energy     =  -1.15 kcal/mol
DOCKED: USER    (3) Torsional Free Energy           =  +1.49 kcal/mol
DOCKED: USER    (4) Unbound System's Energy         =  -1.15 kcal/mol
DOCKED: USER
DOCKED: USER
DOCKED: REMARK  5 active torsions:
DOCKED: REMARK  status: ('A' for Active; 'I' for Inactive)
DOCKED: REMARK    1  A    between atoms: C_2  and  C_19 
DOCKED: REMARK    2  A    between atoms: C_2  and  C_11 
DOCKED: REMARK    3  A    between atoms: C_19  and  C_20 
DOCKED: REMARK    4  A    between atoms: C_20  and  C_21 
DOCKED: REMARK    5  A    between atoms: C_21  and  N_22 
DOCKED: USER                              x       y       z     vdW  Elec       q    Type
DOCKED: USER                           _______ _______ _______ _____ _____    ______ ____
DOCKED: ROOT
DOCKED: ATOM      1  O   UNL     1     -38.663 -16.145  11.330 -0.05 -0.00    -0.346 OA 
DOCKED: ATOM      2  C   UNL     1     -38.586 -17.604  11.418 -0.21 +0.00    +0.130 C  
DOCKED: ATOM      3  C   UNL     1     -39.123 -18.072  10.096 -0.33 +0.00    +0.004 A  
DOCKED: ATOM      4  C   UNL     1     -39.382 -16.978   9.283 -0.32 +0.00    +0.006 A  
DOCKED: ATOM      5  C   UNL     1     -39.026 -15.729   9.993 -0.23 +0.00    +0.169 C  
DOCKED: ATOM      6  C   UNL     1     -39.354 -19.364   9.646 -0.37 -0.00    -0.001 A  
DOCKED: ATOM      7  C   UNL     1     -39.881 -17.135   8.001 -0.04 +0.00    +0.008 A  
DOCKED: ATOM      8  C   UNL     1     -39.862 -19.538   8.358 -0.49 +0.00    +0.010 A  
DOCKED: ATOM      9  C   UNL     1     -40.123 -18.429   7.539 -0.40 +0.00    +0.068 A  
DOCKED: ATOM     10  N   UNL     1     -41.060 -18.789   5.151 -2.83 -0.00    -0.191 NA 
DOCKED: ATOM     11  C   UNL     1     -40.641 -18.627   6.222 -0.46 +0.00    +0.101 C  
DOCKED: ENDROOT
DOCKED: BRANCH   2  12
DOCKED: ATOM     12  C   UNL     1     -37.130 -17.997  11.639 -0.20 +0.00    +0.038 C  
DOCKED: BRANCH  12  13
DOCKED: ATOM     13  C   UNL     1     -36.331 -16.852  12.258 -0.18 +0.00    +0.038 C  
DOCKED: BRANCH  13  14
DOCKED: ATOM     14  C   UNL     1     -35.205 -16.402  11.330 +0.01 +0.00    +0.251 C  
DOCKED: BRANCH  14  15
DOCKED: ATOM     15  N   UNL     1     -35.156 -14.946  11.260 -0.08 +0.00    +0.141 N  
DOCKED: ATOM     16  C   UNL     1     -34.401 -14.401  12.389 -0.02 +0.00    +0.285 C  
DOCKED: ATOM     17  C   UNL     1     -34.563 -14.510   9.995 -0.06 +0.00    +0.285 C  
DOCKED: ENDBRANCH  14  15
DOCKED: ENDBRANCH  13  14
DOCKED: ENDBRANCH  12  13
DOCKED: ENDBRANCH   2  12
DOCKED: BRANCH   2  18
DOCKED: ATOM     18  C   UNL     1     -39.437 -18.017  12.572 -0.14 +0.00    +0.006 A  
DOCKED: ATOM     19  C   UNL     1     -40.385 -17.136  13.089 -0.07 +0.00    +0.001 A  
DOCKED: ATOM     20  C   UNL     1     -41.180 -17.524  14.168 -0.05 +0.00    +0.029 A  
DOCKED: ATOM     21  C   UNL     1     -41.026 -18.792  14.728 -0.07 +0.00    +0.140 A  
DOCKED: ATOM     22  C   UNL     1     -40.077 -19.673  14.210 -0.10 +0.00    +0.029 A  
DOCKED: ATOM     23  F   UNL     1     -41.790 -19.165  15.762 -0.00 -0.00    -0.204 F  
DOCKED: ATOM     24  C   UNL     1     -39.281 -19.285  13.130 -0.24 +0.00    +0.001 A  
DOCKED: ENDBRANCH   2  18
DOCKED: TORSDOF 5
DOCKED: TER
DOCKED: ENDMDL
________________________________________________________________________________


    FINAL DOCKED STATE:
    ________________________


Run:   222 / 512
Time taken for this run:   0.002s

DOCKED: MODEL        222
DOCKED: USER    Run = 222
DOCKED: USER
DOCKED: USER    Estimated Free Energy of Binding    =  -4.11 kcal/mol  [=(1)+(2)+(3)-(4)]
DOCKED: USER
DOCKED: USER    (1) Final Intermolecular Energy     =  -5.60 kcal/mol
DOCKED: USER        vdW + Hbond + desolv Energy     =  -5.60 kcal/mol
DOCKED: USER        Electrostatic Energy            =  +0.00 kcal/mol
DOCKED: USER        Moving Ligand-Fixed Receptor    =  -5.60 kcal/mol
DOCKED: USER        Moving Ligand-Moving Receptor   =  +0.00 kcal/mol
DOCKED: USER    (2) Final Total Internal Energy     =  -1.26 kcal/mol
DOCKED: USER    (3) Torsional Free Energy           =  +1.49 kcal/mol
DOCKED: USER    (4) Unbound System's Energy         =  -1.26 kcal/mol
DOCKED: USER
DOCKED: USER
DOCKED: REMARK  5 active torsions:
DOCKED: REMARK  status: ('A' for Active; 'I' for Inactive)
DOCKED: REMARK    1  A    between atoms: C_2  and  C_19 
DOCKED: REMARK    2  A    between atoms: C_2  and  C_11 
DOCKED: REMARK    3  A    between atoms: C_19  and  C_20 
DOCKED: REMARK    4  A    between atoms: C_20  and  C_21 
DOCKED: REMARK    5  A    between atoms: C_21  and  N_22 
DOCKED: USER                              x       y       z     vdW  Elec       q    Type
DOCKED: USER                           _______ _______ _______ _____ _____    ______ ____
DOCKED: ROOT
DOCKED: ATOM      1  O   UNL     1     -30.970 -18.611   1.363 -0.01 -0.00    -0.346 OA 
DOCKED: ATOM      2  C   UNL     1     -31.106 -17.443   2.233 -0.09 +0.00    +0.130 C  
DOCKED: ATOM      3  C   UNL     1     -31.672 -18.006   3.505 -0.12 +0.00    +0.004 A  
DOCKED: ATOM      4  C   UNL     1     -31.750 -19.388   3.410 -0.16 +0.00    +0.006 A  
DOCKED: ATOM      5  C   UNL     1     -31.236 -19.831   2.094 -0.09 +0.00    +0.169 C  
DOCKED: ATOM      6  C   UNL     1     -32.076 -17.348   4.657 -0.13 -0.00    -0.001 A  
DOCKED: ATOM      7  C   UNL     1     -32.234 -20.156   4.454 -0.28 +0.00    +0.008 A  
DOCKED: ATOM      8  C   UNL     1     -32.571 -18.109   5.718 -0.24 +0.00    +0.010 A  
DOCKED: ATOM      9  C   UNL     1     -32.649 -19.506   5.617 -0.30 +0.00    +0.068 A  
DOCKED: ATOM     10  N   UNL     1     -33.568 -20.887   7.607 -2.65 -0.00    -0.191 NA 
DOCKED: ATOM     11  C   UNL     1     -33.157 -20.268   6.714 -0.41 +0.00    +0.101 C  
DOCKED: ENDROOT
DOCKED: BRANCH   2  12
DOCKED: ATOM     12  C   UNL     1     -29.728 -16.819   2.423 -0.02 +0.00    +0.038 C  
DOCKED: BRANCH  12  13
DOCKED: ATOM     13  C   UNL     1     -29.109 -16.420   1.085 -0.01 +0.00    +0.038 C  
DOCKED: BRANCH  13  14
DOCKED: ATOM     14  C   UNL     1     -28.099 -17.463   0.613 +0.00 +0.00    +0.251 C  
DOCKED: BRANCH  14  15
DOCKED: ATOM     15  N   UNL     1     -28.167 -17.617  -0.836 -0.00 +0.00    +0.141 N  
DOCKED: ATOM     16  C   UNL     1     -27.078 -18.469  -1.316 -0.00 +0.00    +0.285 C  
DOCKED: ATOM     17  C   UNL     1     -29.461 -18.175  -1.234 -0.01 +0.00    +0.285 C  
DOCKED: ENDBRANCH  14  15
DOCKED: ENDBRANCH  13  14
DOCKED: ENDBRANCH  12  13
DOCKED: ENDBRANCH   2  12
DOCKED: BRANCH   2  18
DOCKED: ATOM     18  C   UNL     1     -32.036 -16.496   1.551 -0.12 +0.00    +0.006 A  
DOCKED: ATOM     19  C   UNL     1     -32.325 -16.658   0.197 -0.13 +0.00    +0.001 A  
DOCKED: ATOM     20  C   UNL     1     -33.195 -15.772  -0.440 -0.20 +0.00    +0.029 A  
DOCKED: ATOM     21  C   UNL     1     -33.774 -14.727   0.278 -0.19 +0.00    +0.140 A  
DOCKED: ATOM     22  C   UNL     1     -33.485 -14.566   1.633 -0.18 +0.00    +0.029 A  
DOCKED: ATOM     23  F   UNL     1     -34.610 -13.877  -0.333 -0.13 -0.00    -0.204 F  
DOCKED: ATOM     24  C   UNL     1     -32.614 -15.451   2.271 -0.13 +0.00    +0.001 A  
DOCKED: ENDBRANCH   2  18
DOCKED: TORSDOF 5
DOCKED: TER
DOCKED: ENDMDL
________________________________________________________________________________


    FINAL DOCKED STATE:
    ________________________


Run:   223 / 512
Time taken for this run:   0.002s

DOCKED: MODEL        223
DOCKED: USER    Run = 223
DOCKED: USER
DOCKED: USER    Estimated Free Energy of Binding    =  -3.71 kcal/mol  [=(1)+(2)+(3)-(4)]
DOCKED: USER
DOCKED: USER    (1) Final Intermolecular Energy     =  -5.20 kcal/mol
DOCKED: USER        vdW + Hbond + desolv Energy     =  -5.20 kcal/mol
DOCKED: USER        Electrostatic Energy            =  +0.00 kcal/mol
DOCKED: USER        Moving Ligand-Fixed Receptor    =  -5.20 kcal/mol
DOCKED: USER        Moving Ligand-Moving Receptor   =  +0.00 kcal/mol
DOCKED: USER    (2) Final Total Internal Energy     =  -1.45 kcal/mol
DOCKED: USER    (3) Torsional Free Energy           =  +1.49 kcal/mol
DOCKED: USER    (4) Unbound System's Energy         =  -1.45 kcal/mol
DOCKED: USER
DOCKED: USER
DOCKED: REMARK  5 active torsions:
DOCKED: REMARK  status: ('A' for Active; 'I' for Inactive)
DOCKED: REMARK    1  A    between atoms: C_2  and  C_19 
DOCKED: REMARK    2  A    between atoms: C_2  and  C_11 
DOCKED: REMARK    3  A    between atoms: C_19  and  C_20 
DOCKED: REMARK    4  A    between atoms: C_20  and  C_21 
DOCKED: REMARK    5  A    between atoms: C_21  and  N_22 
DOCKED: USER                              x       y       z     vdW  Elec       q    Type
DOCKED: USER                           _______ _______ _______ _____ _____    ______ ____
DOCKED: ROOT
DOCKED: ATOM      1  O   UNL     1     -34.403 -10.306   3.485 -0.02 -0.00    -0.346 OA 
DOCKED: ATOM      2  C   UNL     1     -35.794 -10.273   3.032 -0.20 +0.00    +0.130 C  
DOCKED: ATOM      3  C   UNL     1     -35.794  -9.234   1.948 -0.25 +0.00    +0.004 A  
DOCKED: ATOM      4  C   UNL     1     -34.498  -8.791   1.725 -0.16 +0.00    +0.006 A  
DOCKED: ATOM      5  C   UNL     1     -33.562  -9.504   2.623 -0.07 +0.00    +0.169 C  
DOCKED: ATOM      6  C   UNL     1     -36.855  -8.730   1.211 -0.34 -0.00    -0.001 A  
DOCKED: ATOM      7  C   UNL     1     -34.219  -7.832   0.767 -0.15 +0.00    +0.008 A  
DOCKED: ATOM      8  C   UNL     1     -36.591  -7.758   0.244 -0.39 +0.00    +0.010 A  
DOCKED: ATOM      9  C   UNL     1     -35.280  -7.312   0.023 -0.24 +0.00    +0.068 A  
DOCKED: ATOM     10  N   UNL     1     -34.823  -5.512  -1.784 -0.93 -0.00    -0.191 NA 
DOCKED: ATOM     11  C   UNL     1     -35.028  -6.319  -0.973 -0.21 +0.00    +0.101 C  
DOCKED: ENDROOT
DOCKED: BRANCH   2  12
DOCKED: ATOM     12  C   UNL     1     -36.168 -11.660   2.524 -0.17 +0.00    +0.038 C  
DOCKED: BRANCH  12  13
DOCKED: ATOM     13  C   UNL     1     -34.985 -12.622   2.607 -0.20 +0.00    +0.038 C  
DOCKED: BRANCH  13  14
DOCKED: ATOM     14  C   UNL     1     -34.737 -13.066   4.048 -0.10 +0.00    +0.251 C  
DOCKED: BRANCH  14  15
DOCKED: ATOM     15  N   UNL     1     -36.000 -13.187   4.766 -0.17 +0.00    +0.141 N  
DOCKED: ATOM     16  C   UNL     1     -36.526 -14.549   4.659 -0.19 +0.00    +0.285 C  
DOCKED: ATOM     17  C   UNL     1     -35.831 -12.817   6.172 -0.09 +0.00    +0.285 C  
DOCKED: ENDBRANCH  14  15
DOCKED: ENDBRANCH  13  14
DOCKED: ENDBRANCH  12  13
DOCKED: ENDBRANCH   2  12
DOCKED: BRANCH   2  18
DOCKED: ATOM     18  C   UNL     1     -36.627  -9.887   4.208 -0.24 +0.00    +0.006 A  
DOCKED: ATOM     19  C   UNL     1     -36.076  -9.112   5.228 -0.15 +0.00    +0.001 A  
DOCKED: ATOM     20  C   UNL     1     -36.857  -8.752   6.327 -0.20 +0.00    +0.029 A  
DOCKED: ATOM     21  C   UNL     1     -38.185  -9.167   6.405 -0.17 +0.00    +0.140 A  
DOCKED: ATOM     22  C   UNL     1     -38.735  -9.942   5.385 -0.27 +0.00    +0.029 A  
DOCKED: ATOM     23  F   UNL     1     -38.934  -8.819   7.460 -0.01 -0.00    -0.204 F  
DOCKED: ATOM     24  C   UNL     1     -37.956 -10.303   4.285 -0.29 +0.00    +0.001 A  
DOCKED: ENDBRANCH   2  18
DOCKED: TORSDOF 5
DOCKED: TER
DOCKED: ENDMDL
________________________________________________________________________________


    FINAL DOCKED STATE:
    ________________________


Run:   224 / 512
Time taken for this run:   0.002s

DOCKED: MODEL        224
DOCKED: USER    Run = 224
DOCKED: USER
DOCKED: USER    Estimated Free Energy of Binding    =  -5.73 kcal/mol  [=(1)+(2)+(3)-(4)]
DOCKED: USER
DOCKED: USER    (1) Final Intermolecular Energy     =  -7.22 kcal/mol
DOCKED: USER        vdW + Hbond + desolv Energy     =  -7.22 kcal/mol
DOCKED: USER        Electrostatic Energy            =  +0.00 kcal/mol
DOCKED: USER        Moving Ligand-Fixed Receptor    =  -7.22 kcal/mol
DOCKED: USER        Moving Ligand-Moving Receptor   =  +0.00 kcal/mol
DOCKED: USER    (2) Final Total Internal Energy     =  -1.22 kcal/mol
DOCKED: USER    (3) Torsional Free Energy           =  +1.49 kcal/mol
DOCKED: USER    (4) Unbound System's Energy         =  -1.22 kcal/mol
DOCKED: USER
DOCKED: USER
DOCKED: REMARK  5 active torsions:
DOCKED: REMARK  status: ('A' for Active; 'I' for Inactive)
DOCKED: REMARK    1  A    between atoms: C_2  and  C_19 
DOCKED: REMARK    2  A    between atoms: C_2  and  C_11 
DOCKED: REMARK    3  A    between atoms: C_19  and  C_20 
DOCKED: REMARK    4  A    between atoms: C_20  and  C_21 
DOCKED: REMARK    5  A    between atoms: C_21  and  N_22 
DOCKED: USER                              x       y       z     vdW  Elec       q    Type
DOCKED: USER                           _______ _______ _______ _____ _____    ______ ____
DOCKED: ROOT
DOCKED: ATOM      1  O   UNL     1     -38.885 -16.267  11.308 -0.05 -0.00    -0.346 OA 
DOCKED: ATOM      2  C   UNL     1     -38.602 -17.703  11.269 -0.22 +0.00    +0.130 C  
DOCKED: ATOM      3  C   UNL     1     -39.111 -18.133   9.924 -0.34 +0.00    +0.004 A  
DOCKED: ATOM      4  C   UNL     1     -39.544 -17.023   9.212 -0.34 +0.00    +0.006 A  
DOCKED: ATOM      5  C   UNL     1     -39.344 -15.799  10.019 -0.23 +0.00    +0.169 C  
DOCKED: ATOM      6  C   UNL     1     -39.175 -19.403   9.370 -0.42 -0.00    -0.001 A  
DOCKED: ATOM      7  C   UNL     1     -40.057 -17.144   7.932 +0.18 +0.00    +0.008 A  
DOCKED: ATOM      8  C   UNL     1     -39.693 -19.542   8.081 -0.47 +0.00    +0.010 A  
DOCKED: ATOM      9  C   UNL     1     -40.132 -18.417   7.366 -0.40 +0.00    +0.068 A  
DOCKED: ATOM     10  N   UNL     1     -41.084 -18.709   4.974 -3.13 -0.00    -0.191 NA 
DOCKED: ATOM     11  C   UNL     1     -40.658 -18.578   6.047 -0.43 +0.00    +0.101 C  
DOCKED: ENDROOT
DOCKED: BRANCH   2  12
DOCKED: ATOM     12  C   UNL     1     -37.100 -17.904  11.428 -0.24 +0.00    +0.038 C  
DOCKED: BRANCH  12  13
DOCKED: ATOM     13  C   UNL     1     -36.367 -16.567  11.525 -0.15 +0.00    +0.038 C  
DOCKED: BRANCH  13  14
DOCKED: ATOM     14  C   UNL     1     -35.261 -16.623  12.577 -0.09 +0.00    +0.251 C  
DOCKED: BRANCH  14  15
DOCKED: ATOM     15  N   UNL     1     -35.698 -15.976  13.808 -0.03 +0.00    +0.141 N  
DOCKED: ATOM     16  C   UNL     1     -36.819 -15.072  13.546 -0.01 +0.00    +0.285 C  
DOCKED: ATOM     17  C   UNL     1     -36.076 -16.975  14.810 -0.04 +0.00    +0.285 C  
DOCKED: ENDBRANCH  14  15
DOCKED: ENDBRANCH  13  14
DOCKED: ENDBRANCH  12  13
DOCKED: ENDBRANCH   2  12
DOCKED: BRANCH   2  18
DOCKED: ATOM     18  C   UNL     1     -39.351 -18.325  12.400 -0.18 +0.00    +0.006 A  
DOCKED: ATOM     19  C   UNL     1     -38.949 -18.091  13.715 -0.13 +0.00    +0.001 A  
DOCKED: ATOM     20  C   UNL     1     -39.650 -18.674  14.771 -0.12 +0.00    +0.029 A  
DOCKED: ATOM     21  C   UNL     1     -40.750 -19.490  14.512 -0.08 +0.00    +0.140 A  
DOCKED: ATOM     22  C   UNL     1     -41.152 -19.723  13.197 -0.07 +0.00    +0.029 A  
DOCKED: ATOM     23  F   UNL     1     -41.424 -20.048  15.527 -0.03 -0.00    -0.204 F  
DOCKED: ATOM     24  C   UNL     1     -40.451 -19.141  12.140 -0.22 +0.00    +0.001 A  
DOCKED: ENDBRANCH   2  18
DOCKED: TORSDOF 5
DOCKED: TER
DOCKED: ENDMDL
________________________________________________________________________________


    FINAL DOCKED STATE:
    ________________________


Run:   225 / 512
Time taken for this run:   0.002s

DOCKED: MODEL        225
DOCKED: USER    Run = 225
DOCKED: USER
DOCKED: USER    Estimated Free Energy of Binding    =  -2.66 kcal/mol  [=(1)+(2)+(3)-(4)]
DOCKED: USER
DOCKED: USER    (1) Final Intermolecular Energy     =  -4.15 kcal/mol
DOCKED: USER        vdW + Hbond + desolv Energy     =  -4.15 kcal/mol
DOCKED: USER        Electrostatic Energy            =  +0.00 kcal/mol
DOCKED: USER        Moving Ligand-Fixed Receptor    =  -4.15 kcal/mol
DOCKED: USER        Moving Ligand-Moving Receptor   =  +0.00 kcal/mol
DOCKED: USER    (2) Final Total Internal Energy     =  -1.55 kcal/mol
DOCKED: USER    (3) Torsional Free Energy           =  +1.49 kcal/mol
DOCKED: USER    (4) Unbound System's Energy         =  -1.55 kcal/mol
DOCKED: USER
DOCKED: USER
DOCKED: REMARK  5 active torsions:
DOCKED: REMARK  status: ('A' for Active; 'I' for Inactive)
DOCKED: REMARK    1  A    between atoms: C_2  and  C_19 
DOCKED: REMARK    2  A    between atoms: C_2  and  C_11 
DOCKED: REMARK    3  A    between atoms: C_19  and  C_20 
DOCKED: REMARK    4  A    between atoms: C_20  and  C_21 
DOCKED: REMARK    5  A    between atoms: C_21  and  N_22 
DOCKED: USER                              x       y       z     vdW  Elec       q    Type
DOCKED: USER                           _______ _______ _______ _____ _____    ______ ____
DOCKED: ROOT
DOCKED: ATOM      1  O   UNL     1     -35.363  -8.626   0.074 -0.04 -0.00    -0.346 OA 
DOCKED: ATOM      2  C   UNL     1     -33.946  -8.663  -0.289 -0.10 +0.00    +0.130 C  
DOCKED: ATOM      3  C   UNL     1     -33.900  -7.991  -1.631 -0.13 +0.00    +0.004 A  
DOCKED: ATOM      4  C   UNL     1     -35.161  -7.512  -1.956 -0.28 +0.00    +0.006 A  
DOCKED: ATOM      5  C   UNL     1     -36.112  -7.818  -0.864 -0.29 +0.00    +0.169 C  
DOCKED: ATOM      6  C   UNL     1     -32.826  -7.808  -2.489 -0.07 -0.00    -0.001 A  
DOCKED: ATOM      7  C   UNL     1     -35.393  -6.842  -3.145 -0.28 +0.00    +0.008 A  
DOCKED: ATOM      8  C   UNL     1     -33.044  -7.137  -3.694 -0.11 +0.00    +0.010 A  
DOCKED: ATOM      9  C   UNL     1     -34.321  -6.656  -4.020 -0.18 +0.00    +0.068 A  
DOCKED: ATOM     10  N   UNL     1     -34.691  -5.412  -6.262 -1.41 -0.00    -0.191 NA 
DOCKED: ATOM     11  C   UNL     1     -34.525  -5.970  -5.257 -0.10 +0.00    +0.101 C  
DOCKED: ENDROOT
DOCKED: BRANCH   2  12
DOCKED: ATOM     12  C   UNL     1     -33.154  -7.915   0.777 -0.09 +0.00    +0.038 C  
DOCKED: BRANCH  12  13
DOCKED: ATOM     13  C   UNL     1     -33.995  -7.677   2.030 -0.15 +0.00    +0.038 C  
DOCKED: BRANCH  13  14
DOCKED: ATOM     14  C   UNL     1     -34.026  -8.920   2.916 -0.10 +0.00    +0.251 C  
DOCKED: BRANCH  14  15
DOCKED: ATOM     15  N   UNL     1     -35.009  -9.874   2.417 -0.13 +0.00    +0.141 N  
DOCKED: ATOM     16  C   UNL     1     -34.663 -11.235   2.830 -0.07 +0.00    +0.285 C  
DOCKED: ATOM     17  C   UNL     1     -36.350  -9.526   2.889 -0.17 +0.00    +0.285 C  
DOCKED: ENDBRANCH  14  15
DOCKED: ENDBRANCH  13  14
DOCKED: ENDBRANCH  12  13
DOCKED: ENDBRANCH   2  12
DOCKED: BRANCH   2  18
DOCKED: ATOM     18  C   UNL     1     -33.548 -10.101  -0.345 -0.10 +0.00    +0.006 A  
DOCKED: ATOM     19  C   UNL     1     -32.443 -10.546   0.378 -0.03 +0.00    +0.001 A  
DOCKED: ATOM     20  C   UNL     1     -32.072 -11.891   0.324 -0.02 +0.00    +0.029 A  
DOCKED: ATOM     21  C   UNL     1     -32.806 -12.786  -0.451 -0.05 +0.00    +0.140 A  
DOCKED: ATOM     22  C   UNL     1     -33.912 -12.340  -1.174 -0.14 +0.00    +0.029 A  
DOCKED: ATOM     23  F   UNL     1     -32.451 -14.077  -0.501 -0.01 -0.00    -0.204 F  
DOCKED: ATOM     24  C   UNL     1     -34.284 -10.995  -1.122 -0.12 +0.00    +0.001 A  
DOCKED: ENDBRANCH   2  18
DOCKED: TORSDOF 5
DOCKED: TER
DOCKED: ENDMDL
________________________________________________________________________________


    FINAL DOCKED STATE:
    ________________________


Run:   226 / 512
Time taken for this run:   0.002s

DOCKED: MODEL        226
DOCKED: USER    Run = 226
DOCKED: USER
DOCKED: USER    Estimated Free Energy of Binding    =  -3.69 kcal/mol  [=(1)+(2)+(3)-(4)]
DOCKED: USER
DOCKED: USER    (1) Final Intermolecular Energy     =  -5.18 kcal/mol
DOCKED: USER        vdW + Hbond + desolv Energy     =  -5.18 kcal/mol
DOCKED: USER        Electrostatic Energy            =  +0.00 kcal/mol
DOCKED: USER        Moving Ligand-Fixed Receptor    =  -5.18 kcal/mol
DOCKED: USER        Moving Ligand-Moving Receptor   =  +0.00 kcal/mol
DOCKED: USER    (2) Final Total Internal Energy     =  -1.36 kcal/mol
DOCKED: USER    (3) Torsional Free Energy           =  +1.49 kcal/mol
DOCKED: USER    (4) Unbound System's Energy         =  -1.36 kcal/mol
DOCKED: USER
DOCKED: USER
DOCKED: REMARK  5 active torsions:
DOCKED: REMARK  status: ('A' for Active; 'I' for Inactive)
DOCKED: REMARK    1  A    between atoms: C_2  and  C_19 
DOCKED: REMARK    2  A    between atoms: C_2  and  C_11 
DOCKED: REMARK    3  A    between atoms: C_19  and  C_20 
DOCKED: REMARK    4  A    between atoms: C_20  and  C_21 
DOCKED: REMARK    5  A    between atoms: C_21  and  N_22 
DOCKED: USER                              x       y       z     vdW  Elec       q    Type
DOCKED: USER                           _______ _______ _______ _____ _____    ______ ____
DOCKED: ROOT
DOCKED: ATOM      1  O   UNL     1     -32.466 -13.706   4.122 +0.01 -0.00    -0.346 OA 
DOCKED: ATOM      2  C   UNL     1     -33.577 -14.583   3.749 -0.14 +0.00    +0.130 C  
DOCKED: ATOM      3  C   UNL     1     -33.443 -15.750   4.685 -0.19 +0.00    +0.004 A  
DOCKED: ATOM      4  C   UNL     1     -32.415 -15.510   5.586 -0.09 +0.00    +0.006 A  
DOCKED: ATOM      5  C   UNL     1     -31.814 -14.184   5.322 -0.02 +0.00    +0.169 C  
DOCKED: ATOM      6  C   UNL     1     -34.180 -16.924   4.742 -0.29 -0.00    -0.001 A  
DOCKED: ATOM      7  C   UNL     1     -32.087 -16.432   6.566 -0.12 +0.00    +0.008 A  
DOCKED: ATOM      8  C   UNL     1     -33.858 -17.865   5.721 -0.32 +0.00    +0.010 A  
DOCKED: ATOM      9  C   UNL     1     -32.817 -17.619   6.629 -0.20 +0.00    +0.068 A  
DOCKED: ATOM     10  N   UNL     1     -32.249 -19.385   8.438 -1.97 -0.00    -0.191 NA 
DOCKED: ATOM     11  C   UNL     1     -32.503 -18.593   7.626 -0.23 +0.00    +0.101 C  
DOCKED: ENDROOT
DOCKED: BRANCH   2  12
DOCKED: ATOM     12  C   UNL     1     -34.881 -13.817   3.938 -0.22 +0.00    +0.038 C  
DOCKED: BRANCH  12  13
DOCKED: ATOM     13  C   UNL     1     -35.311 -13.803   5.404 -0.21 +0.00    +0.038 C  
DOCKED: BRANCH  13  14
DOCKED: ATOM     14  C   UNL     1     -34.814 -12.544   6.111 -0.06 +0.00    +0.251 C  
DOCKED: BRANCH  14  15
DOCKED: ATOM     15  N   UNL     1     -34.973 -12.675   7.554 -0.07 +0.00    +0.141 N  
DOCKED: ATOM     16  C   UNL     1     -35.260 -14.064   7.917 -0.00 +0.00    +0.285 C  
DOCKED: ATOM     17  C   UNL     1     -33.775 -12.206   8.250 -0.02 +0.00    +0.285 C  
DOCKED: ENDBRANCH  14  15
DOCKED: ENDBRANCH  13  14
DOCKED: ENDBRANCH  12  13
DOCKED: ENDBRANCH   2  12
DOCKED: BRANCH   2  18
DOCKED: ATOM     18  C   UNL     1     -33.375 -14.959   2.319 -0.16 +0.00    +0.006 A  
DOCKED: ATOM     19  C   UNL     1     -33.991 -14.219   1.311 -0.21 +0.00    +0.001 A  
DOCKED: ATOM     20  C   UNL     1     -33.803 -14.571  -0.026 -0.23 +0.00    +0.029 A  
DOCKED: ATOM     21  C   UNL     1     -32.998 -15.662  -0.352 -0.17 +0.00    +0.140 A  
DOCKED: ATOM     22  C   UNL     1     -32.382 -16.401   0.657 -0.13 +0.00    +0.029 A  
DOCKED: ATOM     23  F   UNL     1     -32.815 -15.999  -1.636 -0.06 -0.00    -0.204 F  
DOCKED: ATOM     24  C   UNL     1     -32.570 -16.050   1.994 -0.07 +0.00    +0.001 A  
DOCKED: ENDBRANCH   2  18
DOCKED: TORSDOF 5
DOCKED: TER
DOCKED: ENDMDL
________________________________________________________________________________


    FINAL DOCKED STATE:
    ________________________


Run:   227 / 512
Time taken for this run:   0.002s

DOCKED: MODEL        227
DOCKED: USER    Run = 227
DOCKED: USER
DOCKED: USER    Estimated Free Energy of Binding    =  -3.47 kcal/mol  [=(1)+(2)+(3)-(4)]
DOCKED: USER
DOCKED: USER    (1) Final Intermolecular Energy     =  -4.96 kcal/mol
DOCKED: USER        vdW + Hbond + desolv Energy     =  -4.96 kcal/mol
DOCKED: USER        Electrostatic Energy            =  +0.00 kcal/mol
DOCKED: USER        Moving Ligand-Fixed Receptor    =  -4.96 kcal/mol
DOCKED: USER        Moving Ligand-Moving Receptor   =  +0.00 kcal/mol
DOCKED: USER    (2) Final Total Internal Energy     =  -1.41 kcal/mol
DOCKED: USER    (3) Torsional Free Energy           =  +1.49 kcal/mol
DOCKED: USER    (4) Unbound System's Energy         =  -1.41 kcal/mol
DOCKED: USER
DOCKED: USER
DOCKED: REMARK  5 active torsions:
DOCKED: REMARK  status: ('A' for Active; 'I' for Inactive)
DOCKED: REMARK    1  A    between atoms: C_2  and  C_19 
DOCKED: REMARK    2  A    between atoms: C_2  and  C_11 
DOCKED: REMARK    3  A    between atoms: C_19  and  C_20 
DOCKED: REMARK    4  A    between atoms: C_20  and  C_21 
DOCKED: REMARK    5  A    between atoms: C_21  and  N_22 
DOCKED: USER                              x       y       z     vdW  Elec       q    Type
DOCKED: USER                           _______ _______ _______ _____ _____    ______ ____
DOCKED: ROOT
DOCKED: ATOM      1  O   UNL     1     -41.114 -20.122  11.184 -1.50 -0.00    -0.346 OA 
DOCKED: ATOM      2  C   UNL     1     -40.314 -19.059  10.574 -0.22 +0.00    +0.130 C  
DOCKED: ATOM      3  C   UNL     1     -40.870 -17.800  11.174 -0.16 +0.00    +0.004 A  
DOCKED: ATOM      4  C   UNL     1     -41.827 -18.120  12.126 -0.13 +0.00    +0.006 A  
DOCKED: ATOM      5  C   UNL     1     -41.961 -19.591  12.230 -0.16 +0.00    +0.169 C  
DOCKED: ATOM      6  C   UNL     1     -40.545 -16.478  10.907 -0.17 -0.00    -0.001 A  
DOCKED: ATOM      7  C   UNL     1     -42.493 -17.136  12.837 -0.06 +0.00    +0.008 A  
DOCKED: ATOM      8  C   UNL     1     -41.211 -15.475  11.613 -0.11 +0.00    +0.010 A  
DOCKED: ATOM      9  C   UNL     1     -42.180 -15.802  12.573 -0.04 +0.00    +0.068 A  
DOCKED: ATOM     10  N   UNL     1     -43.394 -13.915  13.868 -0.00 -0.00    -0.191 NA 
DOCKED: ATOM     11  C   UNL     1     -42.850 -14.761  13.287 -0.03 +0.00    +0.101 C  
DOCKED: ENDROOT
DOCKED: BRANCH   2  12
DOCKED: ATOM     12  C   UNL     1     -38.851 -19.292  10.931 -0.39 +0.00    +0.038 C  
DOCKED: BRANCH  12  13
DOCKED: ATOM     13  C   UNL     1     -38.482 -18.603  12.244 -0.24 +0.00    +0.038 C  
DOCKED: BRANCH  13  14
DOCKED: ATOM     14  C   UNL     1     -38.784 -19.504  13.440 -0.14 +0.00    +0.251 C  
DOCKED: BRANCH  14  15
DOCKED: ATOM     15  N   UNL     1     -39.823 -18.910  14.273 -0.12 +0.00    +0.141 N  
DOCKED: ATOM     16  C   UNL     1     -40.201 -19.821  15.354 -0.08 +0.00    +0.285 C  
DOCKED: ATOM     17  C   UNL     1     -39.374 -17.630  14.822 -0.03 +0.00    +0.285 C  
DOCKED: ENDBRANCH  14  15
DOCKED: ENDBRANCH  13  14
DOCKED: ENDBRANCH  12  13
DOCKED: ENDBRANCH   2  12
DOCKED: BRANCH   2  18
DOCKED: ATOM     18  C   UNL     1     -40.528 -19.144   9.099 -0.39 +0.00    +0.006 A  
DOCKED: ATOM     19  C   UNL     1     -39.558 -18.654   8.225 -0.38 +0.00    +0.001 A  
DOCKED: ATOM     20  C   UNL     1     -39.760 -18.734   6.847 -0.20 +0.00    +0.029 A  
DOCKED: ATOM     21  C   UNL     1     -40.929 -19.304   6.345 -0.26 +0.00    +0.140 A  
DOCKED: ATOM     22  C   UNL     1     -41.898 -19.793   7.220 +0.10 +0.00    +0.029 A  
DOCKED: ATOM     23  F   UNL     1     -41.121 -19.382   5.022 -0.09 -0.00    -0.204 F  
DOCKED: ATOM     24  C   UNL     1     -41.698 -19.714   8.599 -0.17 +0.00    +0.001 A  
DOCKED: ENDBRANCH   2  18
DOCKED: TORSDOF 5
DOCKED: TER
DOCKED: ENDMDL
________________________________________________________________________________


    FINAL DOCKED STATE:
    ________________________


Run:   228 / 512
Time taken for this run:   0.002s

DOCKED: MODEL        228
DOCKED: USER    Run = 228
DOCKED: USER
DOCKED: USER    Estimated Free Energy of Binding    =  -5.46 kcal/mol  [=(1)+(2)+(3)-(4)]
DOCKED: USER
DOCKED: USER    (1) Final Intermolecular Energy     =  -6.95 kcal/mol
DOCKED: USER        vdW + Hbond + desolv Energy     =  -6.95 kcal/mol
DOCKED: USER        Electrostatic Energy            =  +0.00 kcal/mol
DOCKED: USER        Moving Ligand-Fixed Receptor    =  -6.95 kcal/mol
DOCKED: USER        Moving Ligand-Moving Receptor   =  +0.00 kcal/mol
DOCKED: USER    (2) Final Total Internal Energy     =  -1.06 kcal/mol
DOCKED: USER    (3) Torsional Free Energy           =  +1.49 kcal/mol
DOCKED: USER    (4) Unbound System's Energy         =  -1.06 kcal/mol
DOCKED: USER
DOCKED: USER
DOCKED: REMARK  5 active torsions:
DOCKED: REMARK  status: ('A' for Active; 'I' for Inactive)
DOCKED: REMARK    1  A    between atoms: C_2  and  C_19 
DOCKED: REMARK    2  A    between atoms: C_2  and  C_11 
DOCKED: REMARK    3  A    between atoms: C_19  and  C_20 
DOCKED: REMARK    4  A    between atoms: C_20  and  C_21 
DOCKED: REMARK    5  A    between atoms: C_21  and  N_22 
DOCKED: USER                              x       y       z     vdW  Elec       q    Type
DOCKED: USER                           _______ _______ _______ _____ _____    ______ ____
DOCKED: ROOT
DOCKED: ATOM      1  O   UNL     1     -38.847 -17.267  11.245 -0.07 -0.00    -0.346 OA 
DOCKED: ATOM      2  C   UNL     1     -39.973 -18.187  11.405 -0.17 +0.00    +0.130 C  
DOCKED: ATOM      3  C   UNL     1     -40.416 -18.463   9.996 -0.29 +0.00    +0.004 A  
DOCKED: ATOM      4  C   UNL     1     -39.550 -17.843   9.106 -0.38 +0.00    +0.006 A  
DOCKED: ATOM      5  C   UNL     1     -38.484 -17.137   9.850 -0.16 +0.00    +0.169 C  
DOCKED: ATOM      6  C   UNL     1     -41.491 -19.211   9.540 -0.23 -0.00    -0.001 A  
DOCKED: ATOM      7  C   UNL     1     -39.730 -17.945   7.737 -0.16 +0.00    +0.008 A  
DOCKED: ATOM      8  C   UNL     1     -41.689 -19.320   8.163 -0.40 +0.00    +0.010 A  
DOCKED: ATOM      9  C   UNL     1     -40.813 -18.690   7.266 -0.42 +0.00    +0.068 A  
DOCKED: ATOM     10  N   UNL     1     -41.206 -18.917   4.715 -3.13 -0.00    -0.191 NA 
DOCKED: ATOM     11  C   UNL     1     -41.030 -18.815   5.859 -0.28 +0.00    +0.101 C  
DOCKED: ENDROOT
DOCKED: BRANCH   2  12
DOCKED: ATOM     12  C   UNL     1     -39.478 -19.436  12.126 -0.31 +0.00    +0.038 C  
DOCKED: BRANCH  12  13
DOCKED: ATOM     13  C   UNL     1     -39.005 -19.110  13.541 -0.23 +0.00    +0.038 C  
DOCKED: BRANCH  13  14
DOCKED: ATOM     14  C   UNL     1     -38.832 -20.382  14.369 -0.02 +0.00    +0.251 C  
DOCKED: BRANCH  14  15
DOCKED: ATOM     15  N   UNL     1     -38.369 -20.055  15.712 -0.20 +0.00    +0.141 N  
DOCKED: ATOM     16  C   UNL     1     -36.953 -19.682  15.693 -0.10 +0.00    +0.285 C  
DOCKED: ATOM     17  C   UNL     1     -39.171 -18.972  16.284 -0.05 +0.00    +0.285 C  
DOCKED: ENDBRANCH  14  15
DOCKED: ENDBRANCH  13  14
DOCKED: ENDBRANCH  12  13
DOCKED: ENDBRANCH   2  12
DOCKED: BRANCH   2  18
DOCKED: ATOM     18  C   UNL     1     -41.008 -17.475  12.210 -0.10 +0.00    +0.006 A  
DOCKED: ATOM     19  C   UNL     1     -40.889 -16.105  12.441 -0.06 +0.00    +0.001 A  
DOCKED: ATOM     20  C   UNL     1     -41.857 -15.440  13.195 -0.03 +0.00    +0.029 A  
DOCKED: ATOM     21  C   UNL     1     -42.941 -16.145  13.716 -0.01 +0.00    +0.140 A  
DOCKED: ATOM     22  C   UNL     1     -43.059 -17.515  13.484 -0.06 +0.00    +0.029 A  
DOCKED: ATOM     23  F   UNL     1     -43.871 -15.506  14.438 +0.01 -0.00    -0.204 F  
DOCKED: ATOM     24  C   UNL     1     -42.091 -18.181  12.731 -0.11 +0.00    +0.001 A  
DOCKED: ENDBRANCH   2  18
DOCKED: TORSDOF 5
DOCKED: TER
DOCKED: ENDMDL
________________________________________________________________________________


    FINAL DOCKED STATE:
    ________________________


Run:   229 / 512
Time taken for this run:   0.002s

DOCKED: MODEL        229
DOCKED: USER    Run = 229
DOCKED: USER
DOCKED: USER    Estimated Free Energy of Binding    =  -3.64 kcal/mol  [=(1)+(2)+(3)-(4)]
DOCKED: USER
DOCKED: USER    (1) Final Intermolecular Energy     =  -5.13 kcal/mol
DOCKED: USER        vdW + Hbond + desolv Energy     =  -5.13 kcal/mol
DOCKED: USER        Electrostatic Energy            =  +0.00 kcal/mol
DOCKED: USER        Moving Ligand-Fixed Receptor    =  -5.13 kcal/mol
DOCKED: USER        Moving Ligand-Moving Receptor   =  +0.00 kcal/mol
DOCKED: USER    (2) Final Total Internal Energy     =  -1.26 kcal/mol
DOCKED: USER    (3) Torsional Free Energy           =  +1.49 kcal/mol
DOCKED: USER    (4) Unbound System's Energy         =  -1.26 kcal/mol
DOCKED: USER
DOCKED: USER
DOCKED: REMARK  5 active torsions:
DOCKED: REMARK  status: ('A' for Active; 'I' for Inactive)
DOCKED: REMARK    1  A    between atoms: C_2  and  C_19 
DOCKED: REMARK    2  A    between atoms: C_2  and  C_11 
DOCKED: REMARK    3  A    between atoms: C_19  and  C_20 
DOCKED: REMARK    4  A    between atoms: C_20  and  C_21 
DOCKED: REMARK    5  A    between atoms: C_21  and  N_22 
DOCKED: USER                              x       y       z     vdW  Elec       q    Type
DOCKED: USER                           _______ _______ _______ _____ _____    ______ ____
DOCKED: ROOT
DOCKED: ATOM      1  O   UNL     1     -32.985  -5.433   2.633 -0.09 -0.00    -0.346 OA 
DOCKED: ATOM      2  C   UNL     1     -32.549  -6.616   1.889 -0.10 +0.00    +0.130 C  
DOCKED: ATOM      3  C   UNL     1     -33.685  -6.885   0.945 -0.15 +0.00    +0.004 A  
DOCKED: ATOM      4  C   UNL     1     -34.636  -5.883   1.061 -0.25 +0.00    +0.006 A  
DOCKED: ATOM      5  C   UNL     1     -34.198  -4.887   2.065 -0.20 +0.00    +0.169 C  
DOCKED: ATOM      6  C   UNL     1     -33.856  -7.929   0.047 -0.11 -0.00    -0.001 A  
DOCKED: ATOM      7  C   UNL     1     -35.788  -5.889   0.292 -0.14 +0.00    +0.008 A  
DOCKED: ATOM      8  C   UNL     1     -35.014  -7.952  -0.733 -0.22 +0.00    +0.010 A  
DOCKED: ATOM      9  C   UNL     1     -35.974  -6.937  -0.611 -0.35 +0.00    +0.068 A  
DOCKED: ATOM     10  N   UNL     1     -38.109  -7.008  -2.077 -2.54 -0.00    -0.191 NA 
DOCKED: ATOM     11  C   UNL     1     -37.152  -6.977  -1.419 -0.43 +0.00    +0.101 C  
DOCKED: ENDROOT
DOCKED: BRANCH   2  12
DOCKED: ATOM     12  C   UNL     1     -31.247  -6.281   1.171 -0.04 +0.00    +0.038 C  
DOCKED: BRANCH  12  13
DOCKED: ATOM     13  C   UNL     1     -31.127  -4.781   0.905 -0.05 +0.00    +0.038 C  
DOCKED: BRANCH  13  14
DOCKED: ATOM     14  C   UNL     1     -30.085  -4.142   1.821 -0.00 +0.00    +0.251 C  
DOCKED: BRANCH  14  15
DOCKED: ATOM     15  N   UNL     1     -30.687  -3.070   2.604 -0.02 +0.00    +0.141 N  
DOCKED: ATOM     16  C   UNL     1     -29.681  -2.074   2.975 +0.00 +0.00    +0.285 C  
DOCKED: ATOM     17  C   UNL     1     -31.777  -2.436   1.859 -0.02 +0.00    +0.285 C  
DOCKED: ENDBRANCH  14  15
DOCKED: ENDBRANCH  13  14
DOCKED: ENDBRANCH  12  13
DOCKED: ENDBRANCH   2  12
DOCKED: BRANCH   2  18
DOCKED: ATOM     18  C   UNL     1     -32.349  -7.709   2.885 -0.10 +0.00    +0.006 A  
DOCKED: ATOM     19  C   UNL     1     -31.079  -8.252   3.077 -0.03 +0.00    +0.001 A  
DOCKED: ATOM     20  C   UNL     1     -30.893  -9.275   4.008 -0.02 +0.00    +0.029 A  
DOCKED: ATOM     21  C   UNL     1     -31.976  -9.751   4.746 -0.03 +0.00    +0.140 A  
DOCKED: ATOM     22  C   UNL     1     -33.245  -9.207   4.554 -0.10 +0.00    +0.029 A  
DOCKED: ATOM     23  F   UNL     1     -31.797 -10.731   5.641 +0.00 -0.00    -0.204 F  
DOCKED: ATOM     24  C   UNL     1     -33.432  -8.184   3.622 -0.13 +0.00    +0.001 A  
DOCKED: ENDBRANCH   2  18
DOCKED: TORSDOF 5
DOCKED: TER
DOCKED: ENDMDL
________________________________________________________________________________


    FINAL DOCKED STATE:
    ________________________


Run:   230 / 512
Time taken for this run:   0.002s

DOCKED: MODEL        230
DOCKED: USER    Run = 230
DOCKED: USER
DOCKED: USER    Estimated Free Energy of Binding    =  -3.94 kcal/mol  [=(1)+(2)+(3)-(4)]
DOCKED: USER
DOCKED: USER    (1) Final Intermolecular Energy     =  -5.43 kcal/mol
DOCKED: USER        vdW + Hbond + desolv Energy     =  -5.43 kcal/mol
DOCKED: USER        Electrostatic Energy            =  +0.00 kcal/mol
DOCKED: USER        Moving Ligand-Fixed Receptor    =  -5.43 kcal/mol
DOCKED: USER        Moving Ligand-Moving Receptor   =  +0.00 kcal/mol
DOCKED: USER    (2) Final Total Internal Energy     =  -1.25 kcal/mol
DOCKED: USER    (3) Torsional Free Energy           =  +1.49 kcal/mol
DOCKED: USER    (4) Unbound System's Energy         =  -1.25 kcal/mol
DOCKED: USER
DOCKED: USER
DOCKED: REMARK  5 active torsions:
DOCKED: REMARK  status: ('A' for Active; 'I' for Inactive)
DOCKED: REMARK    1  A    between atoms: C_2  and  C_19 
DOCKED: REMARK    2  A    between atoms: C_2  and  C_11 
DOCKED: REMARK    3  A    between atoms: C_19  and  C_20 
DOCKED: REMARK    4  A    between atoms: C_20  and  C_21 
DOCKED: REMARK    5  A    between atoms: C_21  and  N_22 
DOCKED: USER                              x       y       z     vdW  Elec       q    Type
DOCKED: USER                           _______ _______ _______ _____ _____    ______ ____
DOCKED: ROOT
DOCKED: ATOM      1  O   UNL     1     -30.146 -16.623   2.894 +0.01 -0.00    -0.346 OA 
DOCKED: ATOM      2  C   UNL     1     -31.385 -15.949   3.285 -0.06 +0.00    +0.130 C  
DOCKED: ATOM      3  C   UNL     1     -32.037 -16.916   4.231 -0.11 +0.00    +0.004 A  
DOCKED: ATOM      4  C   UNL     1     -31.194 -17.997   4.448 -0.09 +0.00    +0.006 A  
DOCKED: ATOM      5  C   UNL     1     -29.940 -17.818   3.683 -0.02 +0.00    +0.169 C  
DOCKED: ATOM      6  C   UNL     1     -33.272 -16.839   4.858 -0.24 -0.00    -0.001 A  
DOCKED: ATOM      7  C   UNL     1     -31.556 -19.035   5.290 -0.17 +0.00    +0.008 A  
DOCKED: ATOM      8  C   UNL     1     -33.653 -17.880   5.707 -0.31 +0.00    +0.010 A  
DOCKED: ATOM      9  C   UNL     1     -32.798 -18.972   5.922 -0.29 +0.00    +0.068 A  
DOCKED: ATOM     10  N   UNL     1     -33.534 -20.884   7.508 -2.65 -0.00    -0.191 NA 
DOCKED: ATOM     11  C   UNL     1     -33.204 -20.027   6.796 -0.39 +0.00    +0.101 C  
DOCKED: ENDROOT
DOCKED: BRANCH   2  12
DOCKED: ATOM     12  C   UNL     1     -31.026 -14.624   3.946 -0.02 +0.00    +0.038 C  
DOCKED: BRANCH  12  13
DOCKED: ATOM     13  C   UNL     1     -29.833 -13.963   3.258 -0.00 +0.00    +0.038 C  
DOCKED: BRANCH  13  14
DOCKED: ATOM     14  C   UNL     1     -29.045 -13.095   4.237 +0.00 +0.00    +0.251 C  
DOCKED: BRANCH  14  15
DOCKED: ATOM     15  N   UNL     1     -27.882 -13.821   4.736 -0.00 +0.00    +0.141 N  
DOCKED: ATOM     16  C   UNL     1     -28.144 -14.358   6.072 -0.00 +0.00    +0.285 C  
DOCKED: ATOM     17  C   UNL     1     -27.515 -14.900   3.818 +0.00 +0.00    +0.285 C  
DOCKED: ENDBRANCH  14  15
DOCKED: ENDBRANCH  13  14
DOCKED: ENDBRANCH  12  13
DOCKED: ENDBRANCH   2  12
DOCKED: BRANCH   2  18
DOCKED: ATOM     18  C   UNL     1     -32.176 -15.732   2.039 -0.12 +0.00    +0.006 A  
DOCKED: ATOM     19  C   UNL     1     -33.174 -14.759   2.008 -0.16 +0.00    +0.001 A  
DOCKED: ATOM     20  C   UNL     1     -33.913 -14.557   0.841 -0.20 +0.00    +0.029 A  
DOCKED: ATOM     21  C   UNL     1     -33.653 -15.328  -0.291 -0.18 +0.00    +0.140 A  
DOCKED: ATOM     22  C   UNL     1     -32.654 -16.300  -0.259 -0.17 +0.00    +0.029 A  
DOCKED: ATOM     23  F   UNL     1     -34.362 -15.133  -1.411 -0.13 -0.00    -0.204 F  
DOCKED: ATOM     24  C   UNL     1     -31.915 -16.503   0.907 -0.13 +0.00    +0.001 A  
DOCKED: ENDBRANCH   2  18
DOCKED: TORSDOF 5
DOCKED: TER
DOCKED: ENDMDL
________________________________________________________________________________


    FINAL DOCKED STATE:
    ________________________


Run:   231 / 512
Time taken for this run:   0.002s

DOCKED: MODEL        231
DOCKED: USER    Run = 231
DOCKED: USER
DOCKED: USER    Estimated Free Energy of Binding    =  -4.43 kcal/mol  [=(1)+(2)+(3)-(4)]
DOCKED: USER
DOCKED: USER    (1) Final Intermolecular Energy     =  -5.92 kcal/mol
DOCKED: USER        vdW + Hbond + desolv Energy     =  -5.92 kcal/mol
DOCKED: USER        Electrostatic Energy            =  +0.00 kcal/mol
DOCKED: USER        Moving Ligand-Fixed Receptor    =  -5.92 kcal/mol
DOCKED: USER        Moving Ligand-Moving Receptor   =  +0.00 kcal/mol
DOCKED: USER    (2) Final Total Internal Energy     =  -1.06 kcal/mol
DOCKED: USER    (3) Torsional Free Energy           =  +1.49 kcal/mol
DOCKED: USER    (4) Unbound System's Energy         =  -1.06 kcal/mol
DOCKED: USER
DOCKED: USER
DOCKED: REMARK  5 active torsions:
DOCKED: REMARK  status: ('A' for Active; 'I' for Inactive)
DOCKED: REMARK    1  A    between atoms: C_2  and  C_19 
DOCKED: REMARK    2  A    between atoms: C_2  and  C_11 
DOCKED: REMARK    3  A    between atoms: C_19  and  C_20 
DOCKED: REMARK    4  A    between atoms: C_20  and  C_21 
DOCKED: REMARK    5  A    between atoms: C_21  and  N_22 
DOCKED: USER                              x       y       z     vdW  Elec       q    Type
DOCKED: USER                           _______ _______ _______ _____ _____    ______ ____
DOCKED: ROOT
DOCKED: ATOM      1  O   UNL     1     -40.271 -16.244  12.141 -0.00 -0.00    -0.346 OA 
DOCKED: ATOM      2  C   UNL     1     -39.063 -17.042  11.929 -0.12 +0.00    +0.130 C  
DOCKED: ATOM      3  C   UNL     1     -39.315 -17.737  10.622 -0.27 +0.00    +0.004 A  
DOCKED: ATOM      4  C   UNL     1     -40.512 -17.291  10.080 -0.25 +0.00    +0.006 A  
DOCKED: ATOM      5  C   UNL     1     -41.120 -16.276  10.970 -0.13 +0.00    +0.169 C  
DOCKED: ATOM      6  C   UNL     1     -38.542 -18.679   9.960 -0.36 -0.00    -0.001 A  
DOCKED: ATOM      7  C   UNL     1     -40.978 -17.771   8.868 -0.29 +0.00    +0.008 A  
DOCKED: ATOM      8  C   UNL     1     -39.000 -19.176   8.739 -0.21 +0.00    +0.010 A  
DOCKED: ATOM      9  C   UNL     1     -40.211 -18.724   8.196 -0.40 +0.00    +0.068 A  
DOCKED: ATOM     10  N   UNL     1     -41.029 -19.664   5.924 -1.70 -0.00    -0.191 NA 
DOCKED: ATOM     11  C   UNL     1     -40.663 -19.243   6.943 -0.52 +0.00    +0.101 C  
DOCKED: ENDROOT
DOCKED: BRANCH   2  12
DOCKED: ATOM     12  C   UNL     1     -37.865 -16.101  11.879 -0.15 +0.00    +0.038 C  
DOCKED: BRANCH  12  13
DOCKED: ATOM     13  C   UNL     1     -37.670 -15.522  10.479 -0.19 +0.00    +0.038 C  
DOCKED: BRANCH  13  14
DOCKED: ATOM     14  C   UNL     1     -37.540 -14.001  10.527 -0.11 +0.00    +0.251 C  
DOCKED: BRANCH  14  15
DOCKED: ATOM     15  N   UNL     1     -36.299 -13.577   9.890 -0.11 +0.00    +0.141 N  
DOCKED: ATOM     16  C   UNL     1     -35.192 -14.449  10.285 -0.07 +0.00    +0.285 C  
DOCKED: ATOM     17  C   UNL     1     -36.444 -13.570   8.433 -0.07 +0.00    +0.285 C  
DOCKED: ENDBRANCH  14  15
DOCKED: ENDBRANCH  13  14
DOCKED: ENDBRANCH  12  13
DOCKED: ENDBRANCH   2  12
DOCKED: BRANCH   2  18
DOCKED: ATOM     18  C   UNL     1     -38.957 -17.988  13.079 -0.14 +0.00    +0.006 A  
DOCKED: ATOM     19  C   UNL     1     -37.824 -17.973  13.891 -0.13 +0.00    +0.001 A  
DOCKED: ATOM     20  C   UNL     1     -37.726 -18.857  14.966 -0.15 +0.00    +0.029 A  
DOCKED: ATOM     21  C   UNL     1     -38.760 -19.755  15.227 -0.18 +0.00    +0.140 A  
DOCKED: ATOM     22  C   UNL     1     -39.894 -19.769  14.414 -0.12 +0.00    +0.029 A  
DOCKED: ATOM     23  F   UNL     1     -38.667 -20.602  16.260 -0.07 -0.00    -0.204 F  
DOCKED: ATOM     24  C   UNL     1     -39.992 -18.885  13.339 -0.19 +0.00    +0.001 A  
DOCKED: ENDBRANCH   2  18
DOCKED: TORSDOF 5
DOCKED: TER
DOCKED: ENDMDL
________________________________________________________________________________


    FINAL DOCKED STATE:
    ________________________


Run:   232 / 512
Time taken for this run:   0.002s

DOCKED: MODEL        232
DOCKED: USER    Run = 232
DOCKED: USER
DOCKED: USER    Estimated Free Energy of Binding    =  -4.01 kcal/mol  [=(1)+(2)+(3)-(4)]
DOCKED: USER
DOCKED: USER    (1) Final Intermolecular Energy     =  -5.50 kcal/mol
DOCKED: USER        vdW + Hbond + desolv Energy     =  -5.50 kcal/mol
DOCKED: USER        Electrostatic Energy            =  +0.00 kcal/mol
DOCKED: USER        Moving Ligand-Fixed Receptor    =  -5.50 kcal/mol
DOCKED: USER        Moving Ligand-Moving Receptor   =  +0.00 kcal/mol
DOCKED: USER    (2) Final Total Internal Energy     =  -1.36 kcal/mol
DOCKED: USER    (3) Torsional Free Energy           =  +1.49 kcal/mol
DOCKED: USER    (4) Unbound System's Energy         =  -1.36 kcal/mol
DOCKED: USER
DOCKED: USER
DOCKED: REMARK  5 active torsions:
DOCKED: REMARK  status: ('A' for Active; 'I' for Inactive)
DOCKED: REMARK    1  A    between atoms: C_2  and  C_19 
DOCKED: REMARK    2  A    between atoms: C_2  and  C_11 
DOCKED: REMARK    3  A    between atoms: C_19  and  C_20 
DOCKED: REMARK    4  A    between atoms: C_20  and  C_21 
DOCKED: REMARK    5  A    between atoms: C_21  and  N_22 
DOCKED: USER                              x       y       z     vdW  Elec       q    Type
DOCKED: USER                           _______ _______ _______ _____ _____    ______ ____
DOCKED: ROOT
DOCKED: ATOM      1  O   UNL     1     -38.130 -14.405  11.506 -0.02 -0.00    -0.346 OA 
DOCKED: ATOM      2  C   UNL     1     -39.524 -14.168  11.130 -0.12 +0.00    +0.130 C  
DOCKED: ATOM      3  C   UNL     1     -39.964 -15.477  10.540 -0.21 +0.00    +0.004 A  
DOCKED: ATOM      4  C   UNL     1     -38.948 -16.413  10.668 -0.23 +0.00    +0.006 A  
DOCKED: ATOM      5  C   UNL     1     -37.787 -15.802  11.353 -0.14 +0.00    +0.169 C  
DOCKED: ATOM      6  C   UNL     1     -41.172 -15.815   9.948 -0.19 -0.00    -0.001 A  
DOCKED: ATOM      7  C   UNL     1     -39.100 -17.710  10.209 -0.31 +0.00    +0.008 A  
DOCKED: ATOM      8  C   UNL     1     -41.340 -17.118   9.475 -0.22 +0.00    +0.010 A  
DOCKED: ATOM      9  C   UNL     1     -40.309 -18.060   9.605 -0.27 +0.00    +0.068 A  
DOCKED: ATOM     10  N   UNL     1     -40.654 -20.471   8.722 -2.59 -0.00    -0.191 NA 
DOCKED: ATOM     11  C   UNL     1     -40.499 -19.390   9.118 -0.37 +0.00    +0.101 C  
DOCKED: ENDROOT
DOCKED: BRANCH   2  12
DOCKED: ATOM     12  C   UNL     1     -40.304 -13.789  12.383 -0.05 +0.00    +0.038 C  
DOCKED: BRANCH  12  13
DOCKED: ATOM     13  C   UNL     1     -39.807 -12.470  12.970 -0.02 +0.00    +0.038 C  
DOCKED: BRANCH  13  14
DOCKED: ATOM     14  C   UNL     1     -38.846 -12.714  14.132 -0.00 +0.00    +0.251 C  
DOCKED: BRANCH  14  15
DOCKED: ATOM     15  N   UNL     1     -37.607 -11.971  13.930 -0.00 +0.00    +0.141 N  
DOCKED: ATOM     16  C   UNL     1     -37.593 -11.341  12.609 -0.00 +0.00    +0.285 C  
DOCKED: ATOM     17  C   UNL     1     -37.434 -10.962  14.976 +0.00 +0.00    +0.285 C  
DOCKED: ENDBRANCH  14  15
DOCKED: ENDBRANCH  13  14
DOCKED: ENDBRANCH  12  13
DOCKED: ENDBRANCH   2  12
DOCKED: BRANCH   2  18
DOCKED: ATOM     18  C   UNL     1     -39.525 -13.054  10.137 -0.16 +0.00    +0.006 A  
DOCKED: ATOM     19  C   UNL     1     -40.726 -12.446   9.773 -0.19 +0.00    +0.001 A  
DOCKED: ATOM     20  C   UNL     1     -40.725 -11.404   8.844 -0.10 +0.00    +0.029 A  
DOCKED: ATOM     21  C   UNL     1     -39.525 -10.971   8.283 -0.10 +0.00    +0.140 A  
DOCKED: ATOM     22  C   UNL     1     -38.324 -11.579   8.649 -0.06 +0.00    +0.029 A  
DOCKED: ATOM     23  F   UNL     1     -39.524  -9.970   7.393 -0.03 -0.00    -0.204 F  
DOCKED: ATOM     24  C   UNL     1     -38.323 -12.622   9.577 -0.12 +0.00    +0.001 A  
DOCKED: ENDBRANCH   2  18
DOCKED: TORSDOF 5
DOCKED: TER
DOCKED: ENDMDL
________________________________________________________________________________


    FINAL DOCKED STATE:
    ________________________


Run:   233 / 512
Time taken for this run:   0.002s

DOCKED: MODEL        233
DOCKED: USER    Run = 233
DOCKED: USER
DOCKED: USER    Estimated Free Energy of Binding    =  -5.62 kcal/mol  [=(1)+(2)+(3)-(4)]
DOCKED: USER
DOCKED: USER    (1) Final Intermolecular Energy     =  -7.11 kcal/mol
DOCKED: USER        vdW + Hbond + desolv Energy     =  -7.11 kcal/mol
DOCKED: USER        Electrostatic Energy            =  +0.00 kcal/mol
DOCKED: USER        Moving Ligand-Fixed Receptor    =  -7.11 kcal/mol
DOCKED: USER        Moving Ligand-Moving Receptor   =  +0.00 kcal/mol
DOCKED: USER    (2) Final Total Internal Energy     =  -1.06 kcal/mol
DOCKED: USER    (3) Torsional Free Energy           =  +1.49 kcal/mol
DOCKED: USER    (4) Unbound System's Energy         =  -1.06 kcal/mol
DOCKED: USER
DOCKED: USER
DOCKED: REMARK  5 active torsions:
DOCKED: REMARK  status: ('A' for Active; 'I' for Inactive)
DOCKED: REMARK    1  A    between atoms: C_2  and  C_19 
DOCKED: REMARK    2  A    between atoms: C_2  and  C_11 
DOCKED: REMARK    3  A    between atoms: C_19  and  C_20 
DOCKED: REMARK    4  A    between atoms: C_20  and  C_21 
DOCKED: REMARK    5  A    between atoms: C_21  and  N_22 
DOCKED: USER                              x       y       z     vdW  Elec       q    Type
DOCKED: USER                           _______ _______ _______ _____ _____    ______ ____
DOCKED: ROOT
DOCKED: ATOM      1  O   UNL     1     -38.058 -18.984  11.253 -0.16 -0.00    -0.346 OA 
DOCKED: ATOM      2  C   UNL     1     -39.207 -18.078  11.290 -0.21 +0.00    +0.130 C  
DOCKED: ATOM      3  C   UNL     1     -39.828 -18.229   9.932 -0.32 +0.00    +0.004 A  
DOCKED: ATOM      4  C   UNL     1     -39.160 -19.215   9.220 -0.43 +0.00    +0.006 A  
DOCKED: ATOM      5  C   UNL     1     -38.076 -19.786  10.049 -0.30 +0.00    +0.169 C  
DOCKED: ATOM      6  C   UNL     1     -40.905 -17.555   9.375 -0.29 -0.00    -0.001 A  
DOCKED: ATOM      7  C   UNL     1     -39.540 -19.558   7.933 -0.42 +0.00    +0.008 A  
DOCKED: ATOM      8  C   UNL     1     -41.298 -17.886   8.077 -0.09 +0.00    +0.010 A  
DOCKED: ATOM      9  C   UNL     1     -40.619 -18.883   7.360 -0.44 +0.00    +0.068 A  
DOCKED: ATOM     10  N   UNL     1     -41.377 -19.476   4.955 -2.74 -0.00    -0.191 NA 
DOCKED: ATOM     11  C   UNL     1     -41.036 -19.210   6.033 -0.32 +0.00    +0.101 C  
DOCKED: ENDROOT
DOCKED: BRANCH   2  12
DOCKED: ATOM     12  C   UNL     1     -40.132 -18.518  12.418 -0.19 +0.00    +0.038 C  
DOCKED: BRANCH  12  13
DOCKED: ATOM     13  C   UNL     1     -40.749 -19.885  12.131 -0.24 +0.00    +0.038 C  
DOCKED: BRANCH  13  14
DOCKED: ATOM     14  C   UNL     1     -42.201 -19.748  11.678 -0.11 +0.00    +0.251 C  
DOCKED: BRANCH  14  15
DOCKED: ATOM     15  N   UNL     1     -43.084 -19.630  12.832 -0.13 +0.00    +0.141 N  
DOCKED: ATOM     16  C   UNL     1     -42.336 -19.820  14.075 -0.05 +0.00    +0.285 C  
DOCKED: ATOM     17  C   UNL     1     -43.756 -18.329  12.837 -0.03 +0.00    +0.285 C  
DOCKED: ENDBRANCH  14  15
DOCKED: ENDBRANCH  13  14
DOCKED: ENDBRANCH  12  13
DOCKED: ENDBRANCH   2  12
DOCKED: BRANCH   2  18
DOCKED: ATOM     18  C   UNL     1     -38.672 -16.706  11.536 -0.17 +0.00    +0.006 A  
DOCKED: ATOM     19  C   UNL     1     -37.324 -16.433  11.311 -0.18 +0.00    +0.001 A  
DOCKED: ATOM     20  C   UNL     1     -36.825 -15.150  11.542 -0.11 +0.00    +0.029 A  
DOCKED: ATOM     21  C   UNL     1     -37.676 -14.143  11.996 -0.04 +0.00    +0.140 A  
DOCKED: ATOM     22  C   UNL     1     -39.025 -14.417  12.220 -0.05 +0.00    +0.029 A  
DOCKED: ATOM     23  F   UNL     1     -37.197 -12.912  12.215 -0.00 -0.00    -0.204 F  
DOCKED: ATOM     24  C   UNL     1     -39.524 -15.700  11.990 -0.08 +0.00    +0.001 A  
DOCKED: ENDBRANCH   2  18
DOCKED: TORSDOF 5
DOCKED: TER
DOCKED: ENDMDL
________________________________________________________________________________


    FINAL DOCKED STATE:
    ________________________


Run:   234 / 512
Time taken for this run:   0.002s

DOCKED: MODEL        234
DOCKED: USER    Run = 234
DOCKED: USER
DOCKED: USER    Estimated Free Energy of Binding    =  -4.06 kcal/mol  [=(1)+(2)+(3)-(4)]
DOCKED: USER
DOCKED: USER    (1) Final Intermolecular Energy     =  -5.55 kcal/mol
DOCKED: USER        vdW + Hbond + desolv Energy     =  -5.55 kcal/mol
DOCKED: USER        Electrostatic Energy            =  +0.00 kcal/mol
DOCKED: USER        Moving Ligand-Fixed Receptor    =  -5.55 kcal/mol
DOCKED: USER        Moving Ligand-Moving Receptor   =  +0.00 kcal/mol
DOCKED: USER    (2) Final Total Internal Energy     =  -1.46 kcal/mol
DOCKED: USER    (3) Torsional Free Energy           =  +1.49 kcal/mol
DOCKED: USER    (4) Unbound System's Energy         =  -1.46 kcal/mol
DOCKED: USER
DOCKED: USER
DOCKED: REMARK  5 active torsions:
DOCKED: REMARK  status: ('A' for Active; 'I' for Inactive)
DOCKED: REMARK    1  A    between atoms: C_2  and  C_19 
DOCKED: REMARK    2  A    between atoms: C_2  and  C_11 
DOCKED: REMARK    3  A    between atoms: C_19  and  C_20 
DOCKED: REMARK    4  A    between atoms: C_20  and  C_21 
DOCKED: REMARK    5  A    between atoms: C_21  and  N_22 
DOCKED: USER                              x       y       z     vdW  Elec       q    Type
DOCKED: USER                           _______ _______ _______ _____ _____    ______ ____
DOCKED: ROOT
DOCKED: ATOM      1  O   UNL     1     -30.405 -16.588   2.453 +0.01 -0.00    -0.346 OA 
DOCKED: ATOM      2  C   UNL     1     -31.544 -15.863   3.018 -0.06 +0.00    +0.130 C  
DOCKED: ATOM      3  C   UNL     1     -32.148 -16.840   3.985 -0.12 +0.00    +0.004 A  
DOCKED: ATOM      4  C   UNL     1     -31.361 -17.981   4.049 -0.10 +0.00    +0.006 A  
DOCKED: ATOM      5  C   UNL     1     -30.192 -17.836   3.153 -0.03 +0.00    +0.169 C  
DOCKED: ATOM      6  C   UNL     1     -33.297 -16.723   4.754 -0.23 -0.00    -0.001 A  
DOCKED: ATOM      7  C   UNL     1     -31.694 -19.040   4.876 -0.17 +0.00    +0.008 A  
DOCKED: ATOM      8  C   UNL     1     -33.648 -17.785   5.590 -0.31 +0.00    +0.010 A  
DOCKED: ATOM      9  C   UNL     1     -32.850 -18.937   5.651 -0.28 +0.00    +0.068 A  
DOCKED: ATOM     10  N   UNL     1     -33.528 -20.887   7.217 -2.54 -0.00    -0.191 NA 
DOCKED: ATOM     11  C   UNL     1     -33.225 -20.012   6.514 -0.42 +0.00    +0.101 C  
DOCKED: ENDROOT
DOCKED: BRANCH   2  12
DOCKED: ATOM     12  C   UNL     1     -31.024 -14.601   3.696 -0.02 +0.00    +0.038 C  
DOCKED: BRANCH  12  13
DOCKED: ATOM     13  C   UNL     1     -30.218 -14.935   4.950 -0.02 +0.00    +0.038 C  
DOCKED: BRANCH  13  14
DOCKED: ATOM     14  C   UNL     1     -31.032 -14.666   6.214 -0.01 +0.00    +0.251 C  
DOCKED: BRANCH  14  15
DOCKED: ATOM     15  N   UNL     1     -30.606 -15.553   7.290 -0.02 +0.00    +0.141 N  
DOCKED: ATOM     16  C   UNL     1     -31.765 -16.123   7.978 -0.06 +0.00    +0.285 C  
DOCKED: ATOM     17  C   UNL     1     -29.749 -16.620   6.770 -0.00 +0.00    +0.285 C  
DOCKED: ENDBRANCH  14  15
DOCKED: ENDBRANCH  13  14
DOCKED: ENDBRANCH  12  13
DOCKED: ENDBRANCH   2  12
DOCKED: BRANCH   2  18
DOCKED: ATOM     18  C   UNL     1     -32.454 -15.529   1.884 -0.13 +0.00    +0.006 A  
DOCKED: ATOM     19  C   UNL     1     -33.432 -14.547   2.041 -0.17 +0.00    +0.001 A  
DOCKED: ATOM     20  C   UNL     1     -34.283 -14.236   0.980 -0.20 +0.00    +0.029 A  
DOCKED: ATOM     21  C   UNL     1     -34.155 -14.905  -0.236 -0.18 +0.00    +0.140 A  
DOCKED: ATOM     22  C   UNL     1     -33.177 -15.887  -0.393 -0.19 +0.00    +0.029 A  
DOCKED: ATOM     23  F   UNL     1     -34.971 -14.605  -1.255 -0.14 -0.00    -0.204 F  
DOCKED: ATOM     24  C   UNL     1     -32.325 -16.200   0.668 -0.14 +0.00    +0.001 A  
DOCKED: ENDBRANCH   2  18
DOCKED: TORSDOF 5
DOCKED: TER
DOCKED: ENDMDL
________________________________________________________________________________


    FINAL DOCKED STATE:
    ________________________


Run:   235 / 512
Time taken for this run:   0.002s

DOCKED: MODEL        235
DOCKED: USER    Run = 235
DOCKED: USER
DOCKED: USER    Estimated Free Energy of Binding    =  -4.18 kcal/mol  [=(1)+(2)+(3)-(4)]
DOCKED: USER
DOCKED: USER    (1) Final Intermolecular Energy     =  -5.67 kcal/mol
DOCKED: USER        vdW + Hbond + desolv Energy     =  -5.67 kcal/mol
DOCKED: USER        Electrostatic Energy            =  +0.00 kcal/mol
DOCKED: USER        Moving Ligand-Fixed Receptor    =  -5.67 kcal/mol
DOCKED: USER        Moving Ligand-Moving Receptor   =  +0.00 kcal/mol
DOCKED: USER    (2) Final Total Internal Energy     =  -1.23 kcal/mol
DOCKED: USER    (3) Torsional Free Energy           =  +1.49 kcal/mol
DOCKED: USER    (4) Unbound System's Energy         =  -1.23 kcal/mol
DOCKED: USER
DOCKED: USER
DOCKED: REMARK  5 active torsions:
DOCKED: REMARK  status: ('A' for Active; 'I' for Inactive)
DOCKED: REMARK    1  A    between atoms: C_2  and  C_19 
DOCKED: REMARK    2  A    between atoms: C_2  and  C_11 
DOCKED: REMARK    3  A    between atoms: C_19  and  C_20 
DOCKED: REMARK    4  A    between atoms: C_20  and  C_21 
DOCKED: REMARK    5  A    between atoms: C_21  and  N_22 
DOCKED: USER                              x       y       z     vdW  Elec       q    Type
DOCKED: USER                           _______ _______ _______ _____ _____    ______ ____
DOCKED: ROOT
DOCKED: ATOM      1  O   UNL     1     -41.620 -13.884  11.192 -0.05 -0.00    -0.346 OA 
DOCKED: ATOM      2  C   UNL     1     -40.268 -13.964  10.639 -0.17 +0.00    +0.130 C  
DOCKED: ATOM      3  C   UNL     1     -40.158 -15.383  10.162 -0.23 +0.00    +0.004 A  
DOCKED: ATOM      4  C   UNL     1     -41.376 -16.027  10.327 -0.22 +0.00    +0.006 A  
DOCKED: ATOM      5  C   UNL     1     -42.366 -15.089  10.903 -0.16 +0.00    +0.169 C  
DOCKED: ATOM      6  C   UNL     1     -39.070 -16.048   9.615 -0.27 -0.00    -0.001 A  
DOCKED: ATOM      7  C   UNL     1     -41.548 -17.350   9.958 -0.24 +0.00    +0.008 A  
DOCKED: ATOM      8  C   UNL     1     -39.226 -17.384   9.242 -0.32 +0.00    +0.010 A  
DOCKED: ATOM      9  C   UNL     1     -40.459 -18.031   9.412 -0.28 +0.00    +0.068 A  
DOCKED: ATOM     10  N   UNL     1     -40.716 -20.511   8.704 -2.60 -0.00    -0.191 NA 
DOCKED: ATOM     11  C   UNL     1     -40.600 -19.399   9.022 -0.38 +0.00    +0.101 C  
DOCKED: ENDROOT
DOCKED: BRANCH   2  12
DOCKED: ATOM     12  C   UNL     1     -40.148 -12.947   9.509 -0.14 +0.00    +0.038 C  
DOCKED: BRANCH  12  13
DOCKED: ATOM     13  C   UNL     1     -39.976 -11.530  10.052 -0.13 +0.00    +0.038 C  
DOCKED: BRANCH  13  14
DOCKED: ATOM     14  C   UNL     1     -41.301 -10.978  10.576 -0.06 +0.00    +0.251 C  
DOCKED: BRANCH  14  15
DOCKED: ATOM     15  N   UNL     1     -42.229 -10.756   9.474 -0.12 +0.00    +0.141 N  
DOCKED: ATOM     16  C   UNL     1     -43.292 -11.763   9.484 -0.09 +0.00    +0.285 C  
DOCKED: ATOM     17  C   UNL     1     -42.803  -9.412   9.547 -0.03 +0.00    +0.285 C  
DOCKED: ENDBRANCH  14  15
DOCKED: ENDBRANCH  13  14
DOCKED: ENDBRANCH  12  13
DOCKED: ENDBRANCH   2  12
DOCKED: BRANCH   2  18
DOCKED: ATOM     18  C   UNL     1     -39.322 -13.649  11.749 -0.07 +0.00    +0.006 A  
DOCKED: ATOM     19  C   UNL     1     -39.788 -13.579  13.062 -0.02 +0.00    +0.001 A  
DOCKED: ATOM     20  C   UNL     1     -38.902 -13.284  14.099 -0.00 +0.00    +0.029 A  
DOCKED: ATOM     21  C   UNL     1     -37.554 -13.060  13.824 -0.00 +0.00    +0.140 A  
DOCKED: ATOM     22  C   UNL     1     -37.090 -13.130  12.511 -0.02 +0.00    +0.029 A  
DOCKED: ATOM     23  F   UNL     1     -36.705 -12.779  14.820 -0.00 -0.00    -0.204 F  
DOCKED: ATOM     24  C   UNL     1     -37.974 -13.425  11.472 -0.07 +0.00    +0.001 A  
DOCKED: ENDBRANCH   2  18
DOCKED: TORSDOF 5
DOCKED: TER
DOCKED: ENDMDL
________________________________________________________________________________


    FINAL DOCKED STATE:
    ________________________


Run:   236 / 512
Time taken for this run:   0.002s

DOCKED: MODEL        236
DOCKED: USER    Run = 236
DOCKED: USER
DOCKED: USER    Estimated Free Energy of Binding    =  -3.89 kcal/mol  [=(1)+(2)+(3)-(4)]
DOCKED: USER
DOCKED: USER    (1) Final Intermolecular Energy     =  -5.38 kcal/mol
DOCKED: USER        vdW + Hbond + desolv Energy     =  -5.38 kcal/mol
DOCKED: USER        Electrostatic Energy            =  +0.00 kcal/mol
DOCKED: USER        Moving Ligand-Fixed Receptor    =  -5.38 kcal/mol
DOCKED: USER        Moving Ligand-Moving Receptor   =  +0.00 kcal/mol
DOCKED: USER    (2) Final Total Internal Energy     =  -1.45 kcal/mol
DOCKED: USER    (3) Torsional Free Energy           =  +1.49 kcal/mol
DOCKED: USER    (4) Unbound System's Energy         =  -1.45 kcal/mol
DOCKED: USER
DOCKED: USER
DOCKED: REMARK  5 active torsions:
DOCKED: REMARK  status: ('A' for Active; 'I' for Inactive)
DOCKED: REMARK    1  A    between atoms: C_2  and  C_19 
DOCKED: REMARK    2  A    between atoms: C_2  and  C_11 
DOCKED: REMARK    3  A    between atoms: C_19  and  C_20 
DOCKED: REMARK    4  A    between atoms: C_20  and  C_21 
DOCKED: REMARK    5  A    between atoms: C_21  and  N_22 
DOCKED: USER                              x       y       z     vdW  Elec       q    Type
DOCKED: USER                           _______ _______ _______ _____ _____    ______ ____
DOCKED: ROOT
DOCKED: ATOM      1  O   UNL     1     -30.239 -16.279   3.105 +0.01 -0.00    -0.346 OA 
DOCKED: ATOM      2  C   UNL     1     -31.490 -15.657   3.539 -0.05 +0.00    +0.130 C  
DOCKED: ATOM      3  C   UNL     1     -32.120 -16.694   4.423 -0.11 +0.00    +0.004 A  
DOCKED: ATOM      4  C   UNL     1     -31.256 -17.770   4.570 -0.09 +0.00    +0.006 A  
DOCKED: ATOM      5  C   UNL     1     -30.007 -17.517   3.817 -0.02 +0.00    +0.169 C  
DOCKED: ATOM      6  C   UNL     1     -33.355 -16.682   5.055 -0.24 -0.00    -0.001 A  
DOCKED: ATOM      7  C   UNL     1     -31.594 -18.865   5.346 -0.16 +0.00    +0.008 A  
DOCKED: ATOM      8  C   UNL     1     -33.713 -17.782   5.837 -0.30 +0.00    +0.010 A  
DOCKED: ATOM      9  C   UNL     1     -32.837 -18.867   5.982 -0.29 +0.00    +0.068 A  
DOCKED: ATOM     10  N   UNL     1     -33.530 -20.890   7.444 -2.62 -0.00    -0.191 NA 
DOCKED: ATOM     11  C   UNL     1     -33.219 -19.983   6.788 -0.38 +0.00    +0.101 C  
DOCKED: ENDROOT
DOCKED: BRANCH   2  12
DOCKED: ATOM     12  C   UNL     1     -31.156 -14.368   4.282 -0.02 +0.00    +0.038 C  
DOCKED: BRANCH  12  13
DOCKED: ATOM     13  C   UNL     1     -31.169 -14.579   5.795 -0.03 +0.00    +0.038 C  
DOCKED: BRANCH  13  14
DOCKED: ATOM     14  C   UNL     1     -29.779 -14.949   6.310 -0.00 +0.00    +0.251 C  
DOCKED: BRANCH  14  15
DOCKED: ATOM     15  N   UNL     1     -29.790 -16.292   6.878 -0.02 +0.00    +0.141 N  
DOCKED: ATOM     16  C   UNL     1     -28.428 -16.816   6.992 -0.00 +0.00    +0.285 C  
DOCKED: ATOM     17  C   UNL     1     -30.446 -16.294   8.187 -0.01 +0.00    +0.285 C  
DOCKED: ENDBRANCH  14  15
DOCKED: ENDBRANCH  13  14
DOCKED: ENDBRANCH  12  13
DOCKED: ENDBRANCH   2  12
DOCKED: BRANCH   2  18
DOCKED: ATOM     18  C   UNL     1     -32.288 -15.377   2.310 -0.11 +0.00    +0.006 A  
DOCKED: ATOM     19  C   UNL     1     -33.089 -14.238   2.243 -0.13 +0.00    +0.001 A  
DOCKED: ATOM     20  C   UNL     1     -33.835 -13.978   1.093 -0.20 +0.00    +0.029 A  
DOCKED: ATOM     21  C   UNL     1     -33.779 -14.857   0.012 -0.20 +0.00    +0.140 A  
DOCKED: ATOM     22  C   UNL     1     -32.977 -15.996   0.079 -0.14 +0.00    +0.029 A  
DOCKED: ATOM     23  F   UNL     1     -34.494 -14.606  -1.093 -0.13 -0.00    -0.204 F  
DOCKED: ATOM     24  C   UNL     1     -32.231 -16.257   1.230 -0.12 +0.00    +0.001 A  
DOCKED: ENDBRANCH   2  18
DOCKED: TORSDOF 5
DOCKED: TER
DOCKED: ENDMDL
________________________________________________________________________________


    FINAL DOCKED STATE:
    ________________________


Run:   237 / 512
Time taken for this run:   0.002s

DOCKED: MODEL        237
DOCKED: USER    Run = 237
DOCKED: USER
DOCKED: USER    Estimated Free Energy of Binding    =  -4.28 kcal/mol  [=(1)+(2)+(3)-(4)]
DOCKED: USER
DOCKED: USER    (1) Final Intermolecular Energy     =  -5.77 kcal/mol
DOCKED: USER        vdW + Hbond + desolv Energy     =  -5.77 kcal/mol
DOCKED: USER        Electrostatic Energy            =  +0.00 kcal/mol
DOCKED: USER        Moving Ligand-Fixed Receptor    =  -5.77 kcal/mol
DOCKED: USER        Moving Ligand-Moving Receptor   =  +0.00 kcal/mol
DOCKED: USER    (2) Final Total Internal Energy     =  -1.46 kcal/mol
DOCKED: USER    (3) Torsional Free Energy           =  +1.49 kcal/mol
DOCKED: USER    (4) Unbound System's Energy         =  -1.46 kcal/mol
DOCKED: USER
DOCKED: USER
DOCKED: REMARK  5 active torsions:
DOCKED: REMARK  status: ('A' for Active; 'I' for Inactive)
DOCKED: REMARK    1  A    between atoms: C_2  and  C_19 
DOCKED: REMARK    2  A    between atoms: C_2  and  C_11 
DOCKED: REMARK    3  A    between atoms: C_19  and  C_20 
DOCKED: REMARK    4  A    between atoms: C_20  and  C_21 
DOCKED: REMARK    5  A    between atoms: C_21  and  N_22 
DOCKED: USER                              x       y       z     vdW  Elec       q    Type
DOCKED: USER                           _______ _______ _______ _____ _____    ______ ____
DOCKED: ROOT
DOCKED: ATOM      1  O   UNL     1     -36.278 -15.971  11.867 -0.07 -0.00    -0.346 OA 
DOCKED: ATOM      2  C   UNL     1     -37.269 -15.123  11.202 -0.13 +0.00    +0.130 C  
DOCKED: ATOM      3  C   UNL     1     -38.204 -16.104  10.556 -0.22 +0.00    +0.004 A  
DOCKED: ATOM      4  C   UNL     1     -37.845 -17.396  10.911 -0.23 +0.00    +0.006 A  
DOCKED: ATOM      5  C   UNL     1     -36.673 -17.361  11.814 -0.17 +0.00    +0.169 C  
DOCKED: ATOM      6  C   UNL     1     -39.293 -15.870   9.728 -0.27 -0.00    -0.001 A  
DOCKED: ATOM      7  C   UNL     1     -38.554 -18.493  10.452 -0.34 +0.00    +0.008 A  
DOCKED: ATOM      8  C   UNL     1     -40.015 -16.966   9.254 -0.31 +0.00    +0.010 A  
DOCKED: ATOM      9  C   UNL     1     -39.648 -18.271   9.614 -0.31 +0.00    +0.068 A  
DOCKED: ATOM     10  N   UNL     1     -41.013 -20.283   8.720 -2.55 -0.00    -0.191 NA 
DOCKED: ATOM     11  C   UNL     1     -40.400 -19.380   9.120 -0.37 +0.00    +0.101 C  
DOCKED: ENDROOT
DOCKED: BRANCH   2  12
DOCKED: ATOM     12  C   UNL     1     -37.950 -14.259  12.256 -0.06 +0.00    +0.038 C  
DOCKED: BRANCH  12  13
DOCKED: ATOM     13  C   UNL     1     -37.126 -14.194  13.541 -0.02 +0.00    +0.038 C  
DOCKED: BRANCH  13  14
DOCKED: ATOM     14  C   UNL     1     -35.761 -13.557  13.286 -0.01 +0.00    +0.251 C  
DOCKED: BRANCH  14  15
DOCKED: ATOM     15  N   UNL     1     -34.733 -14.231  14.069 -0.01 +0.00    +0.141 N  
DOCKED: ATOM     16  C   UNL     1     -35.293 -15.387  14.771 -0.01 +0.00    +0.285 C  
DOCKED: ATOM     17  C   UNL     1     -33.622 -14.647  13.212 -0.01 +0.00    +0.285 C  
DOCKED: ENDBRANCH  14  15
DOCKED: ENDBRANCH  13  14
DOCKED: ENDBRANCH  12  13
DOCKED: ENDBRANCH   2  12
DOCKED: BRANCH   2  18
DOCKED: ATOM     18  C   UNL     1     -36.531 -14.284  10.212 -0.14 +0.00    +0.006 A  
DOCKED: ATOM     19  C   UNL     1     -37.212 -13.313   9.479 -0.15 +0.00    +0.001 A  
DOCKED: ATOM     20  C   UNL     1     -36.521 -12.529   8.553 -0.12 +0.00    +0.029 A  
DOCKED: ATOM     21  C   UNL     1     -35.153 -12.717   8.364 -0.08 +0.00    +0.140 A  
DOCKED: ATOM     22  C   UNL     1     -34.473 -13.688   9.099 -0.10 +0.00    +0.029 A  
DOCKED: ATOM     23  F   UNL     1     -34.490 -11.963   7.478 -0.00 -0.00    -0.204 F  
DOCKED: ATOM     24  C   UNL     1     -35.163 -14.473  10.024 -0.09 +0.00    +0.001 A  
DOCKED: ENDBRANCH   2  18
DOCKED: TORSDOF 5
DOCKED: TER
DOCKED: ENDMDL
________________________________________________________________________________


    FINAL DOCKED STATE:
    ________________________


Run:   238 / 512
Time taken for this run:   0.002s

DOCKED: MODEL        238
DOCKED: USER    Run = 238
DOCKED: USER
DOCKED: USER    Estimated Free Energy of Binding    =  -4.82 kcal/mol  [=(1)+(2)+(3)-(4)]
DOCKED: USER
DOCKED: USER    (1) Final Intermolecular Energy     =  -6.31 kcal/mol
DOCKED: USER        vdW + Hbond + desolv Energy     =  -6.31 kcal/mol
DOCKED: USER        Electrostatic Energy            =  +0.00 kcal/mol
DOCKED: USER        Moving Ligand-Fixed Receptor    =  -6.31 kcal/mol
DOCKED: USER        Moving Ligand-Moving Receptor   =  +0.00 kcal/mol
DOCKED: USER    (2) Final Total Internal Energy     =  -1.25 kcal/mol
DOCKED: USER    (3) Torsional Free Energy           =  +1.49 kcal/mol
DOCKED: USER    (4) Unbound System's Energy         =  -1.25 kcal/mol
DOCKED: USER
DOCKED: USER
DOCKED: REMARK  5 active torsions:
DOCKED: REMARK  status: ('A' for Active; 'I' for Inactive)
DOCKED: REMARK    1  A    between atoms: C_2  and  C_19 
DOCKED: REMARK    2  A    between atoms: C_2  and  C_11 
DOCKED: REMARK    3  A    between atoms: C_19  and  C_20 
DOCKED: REMARK    4  A    between atoms: C_20  and  C_21 
DOCKED: REMARK    5  A    between atoms: C_21  and  N_22 
DOCKED: USER                              x       y       z     vdW  Elec       q    Type
DOCKED: USER                           _______ _______ _______ _____ _____    ______ ____
DOCKED: ROOT
DOCKED: ATOM      1  O   UNL     1     -37.016 -10.081   4.344 -0.10 -0.00    -0.346 OA 
DOCKED: ATOM      2  C   UNL     1     -35.707  -9.946   3.704 -0.18 +0.00    +0.130 C  
DOCKED: ATOM      3  C   UNL     1     -36.015  -9.294   2.387 -0.25 +0.00    +0.004 A  
DOCKED: ATOM      4  C   UNL     1     -37.366  -8.983   2.326 -0.20 +0.00    +0.006 A  
DOCKED: ATOM      5  C   UNL     1     -38.033  -9.389   3.583 -0.19 +0.00    +0.169 C  
DOCKED: ATOM      6  C   UNL     1     -35.166  -8.989   1.333 -0.21 -0.00    -0.001 A  
DOCKED: ATOM      7  C   UNL     1     -37.914  -8.365   1.214 -0.35 +0.00    +0.008 A  
DOCKED: ATOM      8  C   UNL     1     -35.704  -8.370   0.203 -0.27 +0.00    +0.010 A  
DOCKED: ATOM      9  C   UNL     1     -37.071  -8.060   0.145 -0.29 +0.00    +0.068 A  
DOCKED: ATOM     10  N   UNL     1     -38.035  -6.906  -1.965 -2.52 -0.00    -0.191 NA 
DOCKED: ATOM     11  C   UNL     1     -37.603  -7.424  -1.019 -0.36 +0.00    +0.101 C  
DOCKED: ENDROOT
DOCKED: BRANCH   2  12
DOCKED: ATOM     12  C   UNL     1     -34.819  -9.087   4.598 -0.14 +0.00    +0.038 C  
DOCKED: BRANCH  12  13
DOCKED: ATOM     13  C   UNL     1     -34.916  -9.520   6.059 -0.14 +0.00    +0.038 C  
DOCKED: BRANCH  13  14
DOCKED: ATOM     14  C   UNL     1     -35.814  -8.574   6.854 -0.12 +0.00    +0.251 C  
DOCKED: BRANCH  14  15
DOCKED: ATOM     15  N   UNL     1     -36.249  -9.208   8.093 -0.07 +0.00    +0.141 N  
DOCKED: ATOM     16  C   UNL     1     -37.381  -8.485   8.674 -0.05 +0.00    +0.285 C  
DOCKED: ATOM     17  C   UNL     1     -36.609 -10.608   7.857 -0.05 +0.00    +0.285 C  
DOCKED: ENDBRANCH  14  15
DOCKED: ENDBRANCH  13  14
DOCKED: ENDBRANCH  12  13
DOCKED: ENDBRANCH   2  12
DOCKED: BRANCH   2  18
DOCKED: ATOM     18  C   UNL     1     -35.149 -11.322   3.555 -0.13 +0.00    +0.006 A  
DOCKED: ATOM     19  C   UNL     1     -35.947 -12.431   3.834 -0.20 +0.00    +0.001 A  
DOCKED: ATOM     20  C   UNL     1     -35.425 -13.717   3.695 -0.19 +0.00    +0.029 A  
DOCKED: ATOM     21  C   UNL     1     -34.107 -13.893   3.276 -0.14 +0.00    +0.140 A  
DOCKED: ATOM     22  C   UNL     1     -33.309 -12.783   2.996 -0.06 +0.00    +0.029 A  
DOCKED: ATOM     23  F   UNL     1     -33.606 -15.128   3.140 -0.06 -0.00    -0.204 F  
DOCKED: ATOM     24  C   UNL     1     -33.831 -11.496   3.136 -0.05 +0.00    +0.001 A  
DOCKED: ENDBRANCH   2  18
DOCKED: TORSDOF 5
DOCKED: TER
DOCKED: ENDMDL
________________________________________________________________________________


    FINAL DOCKED STATE:
    ________________________


Run:   239 / 512
Time taken for this run:   0.002s

DOCKED: MODEL        239
DOCKED: USER    Run = 239
DOCKED: USER
DOCKED: USER    Estimated Free Energy of Binding    =  -3.71 kcal/mol  [=(1)+(2)+(3)-(4)]
DOCKED: USER
DOCKED: USER    (1) Final Intermolecular Energy     =  -5.20 kcal/mol
DOCKED: USER        vdW + Hbond + desolv Energy     =  -5.20 kcal/mol
DOCKED: USER        Electrostatic Energy            =  +0.00 kcal/mol
DOCKED: USER        Moving Ligand-Fixed Receptor    =  -5.20 kcal/mol
DOCKED: USER        Moving Ligand-Moving Receptor   =  +0.00 kcal/mol
DOCKED: USER    (2) Final Total Internal Energy     =  -1.39 kcal/mol
DOCKED: USER    (3) Torsional Free Energy           =  +1.49 kcal/mol
DOCKED: USER    (4) Unbound System's Energy         =  -1.39 kcal/mol
DOCKED: USER
DOCKED: USER
DOCKED: REMARK  5 active torsions:
DOCKED: REMARK  status: ('A' for Active; 'I' for Inactive)
DOCKED: REMARK    1  A    between atoms: C_2  and  C_19 
DOCKED: REMARK    2  A    between atoms: C_2  and  C_11 
DOCKED: REMARK    3  A    between atoms: C_19  and  C_20 
DOCKED: REMARK    4  A    between atoms: C_20  and  C_21 
DOCKED: REMARK    5  A    between atoms: C_21  and  N_22 
DOCKED: USER                              x       y       z     vdW  Elec       q    Type
DOCKED: USER                           _______ _______ _______ _____ _____    ______ ____
DOCKED: ROOT
DOCKED: ATOM      1  O   UNL     1     -37.869 -17.412  14.292 -0.03 -0.00    -0.346 OA 
DOCKED: ATOM      2  C   UNL     1     -37.206 -16.936  13.077 -0.10 +0.00    +0.130 C  
DOCKED: ATOM      3  C   UNL     1     -37.993 -17.569  11.966 -0.20 +0.00    +0.004 A  
DOCKED: ATOM      4  C   UNL     1     -39.077 -18.255  12.494 -0.17 +0.00    +0.006 A  
DOCKED: ATOM      5  C   UNL     1     -39.090 -18.117  13.967 -0.10 +0.00    +0.169 C  
DOCKED: ATOM      6  C   UNL     1     -37.774 -17.530  10.597 -0.16 -0.00    -0.001 A  
DOCKED: ATOM      7  C   UNL     1     -39.972 -18.927  11.678 -0.23 +0.00    +0.008 A  
DOCKED: ATOM      8  C   UNL     1     -38.664 -18.206   9.761 -0.32 +0.00    +0.010 A  
DOCKED: ATOM      9  C   UNL     1     -39.758 -18.900  10.299 -0.27 +0.00    +0.068 A  
DOCKED: ATOM     10  N   UNL     1     -41.395 -20.139   8.719 -2.31 -0.00    -0.191 NA 
DOCKED: ATOM     11  C   UNL     1     -40.661 -19.584   9.428 -0.12 +0.00    +0.101 C  
DOCKED: ENDROOT
DOCKED: BRANCH   2  12
DOCKED: ATOM     12  C   UNL     1     -37.270 -15.413  13.057 -0.06 +0.00    +0.038 C  
DOCKED: BRANCH  12  13
DOCKED: ATOM     13  C   UNL     1     -38.714 -14.917  13.050 -0.04 +0.00    +0.038 C  
DOCKED: BRANCH  13  14
DOCKED: ATOM     14  C   UNL     1     -39.176 -14.591  11.631 -0.06 +0.00    +0.251 C  
DOCKED: BRANCH  14  15
DOCKED: ATOM     15  N   UNL     1     -40.625 -14.720  11.528 -0.07 +0.00    +0.141 N  
DOCKED: ATOM     16  C   UNL     1     -41.004 -15.260  10.221 -0.15 +0.00    +0.285 C  
DOCKED: ATOM     17  C   UNL     1     -41.145 -15.572  12.599 -0.01 +0.00    +0.285 C  
DOCKED: ENDBRANCH  14  15
DOCKED: ENDBRANCH  13  14
DOCKED: ENDBRANCH  12  13
DOCKED: ENDBRANCH   2  12
DOCKED: BRANCH   2  18
DOCKED: ATOM     18  C   UNL     1     -35.794 -17.415  13.135 -0.13 +0.00    +0.006 A  
DOCKED: ATOM     19  C   UNL     1     -35.279 -17.924  14.326 -0.10 +0.00    +0.001 A  
DOCKED: ATOM     20  C   UNL     1     -33.958 -18.371  14.379 -0.11 +0.00    +0.029 A  
DOCKED: ATOM     21  C   UNL     1     -33.155 -18.309  13.242 -0.09 +0.00    +0.140 A  
DOCKED: ATOM     22  C   UNL     1     -33.670 -17.800  12.050 -0.17 +0.00    +0.029 A  
DOCKED: ATOM     23  F   UNL     1     -31.888 -18.740  13.292 -0.01 -0.00    -0.204 F  
DOCKED: ATOM     24  C   UNL     1     -34.991 -17.352  11.996 -0.18 +0.00    +0.001 A  
DOCKED: ENDBRANCH   2  18
DOCKED: TORSDOF 5
DOCKED: TER
DOCKED: ENDMDL
________________________________________________________________________________


    FINAL DOCKED STATE:
    ________________________


Run:   240 / 512
Time taken for this run:   0.002s

DOCKED: MODEL        240
DOCKED: USER    Run = 240
DOCKED: USER
DOCKED: USER    Estimated Free Energy of Binding    =  -4.02 kcal/mol  [=(1)+(2)+(3)-(4)]
DOCKED: USER
DOCKED: USER    (1) Final Intermolecular Energy     =  -5.51 kcal/mol
DOCKED: USER        vdW + Hbond + desolv Energy     =  -5.51 kcal/mol
DOCKED: USER        Electrostatic Energy            =  +0.00 kcal/mol
DOCKED: USER        Moving Ligand-Fixed Receptor    =  -5.51 kcal/mol
DOCKED: USER        Moving Ligand-Moving Receptor   =  +0.00 kcal/mol
DOCKED: USER    (2) Final Total Internal Energy     =  -1.44 kcal/mol
DOCKED: USER    (3) Torsional Free Energy           =  +1.49 kcal/mol
DOCKED: USER    (4) Unbound System's Energy         =  -1.44 kcal/mol
DOCKED: USER
DOCKED: USER
DOCKED: REMARK  5 active torsions:
DOCKED: REMARK  status: ('A' for Active; 'I' for Inactive)
DOCKED: REMARK    1  A    between atoms: C_2  and  C_19 
DOCKED: REMARK    2  A    between atoms: C_2  and  C_11 
DOCKED: REMARK    3  A    between atoms: C_19  and  C_20 
DOCKED: REMARK    4  A    between atoms: C_20  and  C_21 
DOCKED: REMARK    5  A    between atoms: C_21  and  N_22 
DOCKED: USER                              x       y       z     vdW  Elec       q    Type
DOCKED: USER                           _______ _______ _______ _____ _____    ______ ____
DOCKED: ROOT
DOCKED: ATOM      1  O   UNL     1     -30.446 -16.282   2.724 +0.01 -0.00    -0.346 OA 
DOCKED: ATOM      2  C   UNL     1     -31.692 -15.672   3.189 -0.07 +0.00    +0.130 C  
DOCKED: ATOM      3  C   UNL     1     -32.280 -16.707   4.104 -0.12 +0.00    +0.004 A  
DOCKED: ATOM      4  C   UNL     1     -31.397 -17.768   4.237 -0.09 +0.00    +0.006 A  
DOCKED: ATOM      5  C   UNL     1     -30.176 -17.508   3.442 -0.03 +0.00    +0.169 C  
DOCKED: ATOM      6  C   UNL     1     -33.495 -16.704   4.773 -0.25 -0.00    -0.001 A  
DOCKED: ATOM      7  C   UNL     1     -31.696 -18.859   5.035 -0.17 +0.00    +0.008 A  
DOCKED: ATOM      8  C   UNL     1     -33.814 -17.798   5.579 -0.32 +0.00    +0.010 A  
DOCKED: ATOM      9  C   UNL     1     -32.918 -18.870   5.709 -0.29 +0.00    +0.068 A  
DOCKED: ATOM     10  N   UNL     1     -33.538 -20.885   7.216 -2.55 -0.00    -0.191 NA 
DOCKED: ATOM     11  C   UNL     1     -33.260 -19.982   6.540 -0.40 +0.00    +0.101 C  
DOCKED: ENDROOT
DOCKED: BRANCH   2  12
DOCKED: ATOM     12  C   UNL     1     -31.353 -14.370   3.906 -0.03 +0.00    +0.038 C  
DOCKED: BRANCH  12  13
DOCKED: ATOM     13  C   UNL     1     -29.861 -14.280   4.221 -0.01 +0.00    +0.038 C  
DOCKED: BRANCH  13  14
DOCKED: ATOM     14  C   UNL     1     -29.540 -14.950   5.556 -0.00 +0.00    +0.251 C  
DOCKED: BRANCH  14  15
DOCKED: ATOM     15  N   UNL     1     -30.694 -14.891   6.444 -0.02 +0.00    +0.141 N  
DOCKED: ATOM     16  C   UNL     1     -30.751 -16.079   7.297 -0.02 +0.00    +0.285 C  
DOCKED: ATOM     17  C   UNL     1     -30.651 -13.679   7.264 -0.00 +0.00    +0.285 C  
DOCKED: ENDBRANCH  14  15
DOCKED: ENDBRANCH  13  14
DOCKED: ENDBRANCH  12  13
DOCKED: ENDBRANCH   2  12
DOCKED: BRANCH   2  18
DOCKED: ATOM     18  C   UNL     1     -32.531 -15.418   1.982 -0.13 +0.00    +0.006 A  
DOCKED: ATOM     19  C   UNL     1     -32.341 -16.178   0.829 -0.14 +0.00    +0.001 A  
DOCKED: ATOM     20  C   UNL     1     -33.126 -15.940  -0.300 -0.18 +0.00    +0.029 A  
DOCKED: ATOM     21  C   UNL     1     -34.100 -14.943  -0.274 -0.18 +0.00    +0.140 A  
DOCKED: ATOM     22  C   UNL     1     -34.291 -14.183   0.880 -0.21 +0.00    +0.029 A  
DOCKED: ATOM     23  F   UNL     1     -34.855 -14.716  -1.356 -0.14 -0.00    -0.204 F  
DOCKED: ATOM     24  C   UNL     1     -33.505 -14.420   2.009 -0.17 +0.00    +0.001 A  
DOCKED: ENDBRANCH   2  18
DOCKED: TORSDOF 5
DOCKED: TER
DOCKED: ENDMDL
________________________________________________________________________________


    FINAL DOCKED STATE:
    ________________________


Run:   241 / 512
Time taken for this run:   0.002s

DOCKED: MODEL        241
DOCKED: USER    Run = 241
DOCKED: USER
DOCKED: USER    Estimated Free Energy of Binding    =  -4.23 kcal/mol  [=(1)+(2)+(3)-(4)]
DOCKED: USER
DOCKED: USER    (1) Final Intermolecular Energy     =  -5.72 kcal/mol
DOCKED: USER        vdW + Hbond + desolv Energy     =  -5.72 kcal/mol
DOCKED: USER        Electrostatic Energy            =  +0.00 kcal/mol
DOCKED: USER        Moving Ligand-Fixed Receptor    =  -5.72 kcal/mol
DOCKED: USER        Moving Ligand-Moving Receptor   =  +0.00 kcal/mol
DOCKED: USER    (2) Final Total Internal Energy     =  -1.52 kcal/mol
DOCKED: USER    (3) Torsional Free Energy           =  +1.49 kcal/mol
DOCKED: USER    (4) Unbound System's Energy         =  -1.52 kcal/mol
DOCKED: USER
DOCKED: USER
DOCKED: REMARK  5 active torsions:
DOCKED: REMARK  status: ('A' for Active; 'I' for Inactive)
DOCKED: REMARK    1  A    between atoms: C_2  and  C_19 
DOCKED: REMARK    2  A    between atoms: C_2  and  C_11 
DOCKED: REMARK    3  A    between atoms: C_19  and  C_20 
DOCKED: REMARK    4  A    between atoms: C_20  and  C_21 
DOCKED: REMARK    5  A    between atoms: C_21  and  N_22 
DOCKED: USER                              x       y       z     vdW  Elec       q    Type
DOCKED: USER                           _______ _______ _______ _____ _____    ______ ____
DOCKED: ROOT
DOCKED: ATOM      1  O   UNL     1     -36.289 -15.965  11.828 -0.07 -0.00    -0.346 OA 
DOCKED: ATOM      2  C   UNL     1     -37.337 -15.122  11.248 -0.13 +0.00    +0.130 C  
DOCKED: ATOM      3  C   UNL     1     -38.272 -16.104  10.604 -0.23 +0.00    +0.004 A  
DOCKED: ATOM      4  C   UNL     1     -37.857 -17.398  10.884 -0.23 +0.00    +0.006 A  
DOCKED: ATOM      5  C   UNL     1     -36.644 -17.364  11.732 -0.18 +0.00    +0.169 C  
DOCKED: ATOM      6  C   UNL     1     -39.406 -15.870   9.839 -0.28 -0.00    -0.001 A  
DOCKED: ATOM      7  C   UNL     1     -38.553 -18.497  10.410 -0.34 +0.00    +0.008 A  
DOCKED: ATOM      8  C   UNL     1     -40.116 -16.968   9.351 -0.31 +0.00    +0.010 A  
DOCKED: ATOM      9  C   UNL     1     -39.692 -18.274   9.635 -0.31 +0.00    +0.068 A  
DOCKED: ATOM     10  N   UNL     1     -41.037 -20.290   8.717 -2.56 -0.00    -0.191 NA 
DOCKED: ATOM     11  C   UNL     1     -40.433 -19.386   9.128 -0.37 +0.00    +0.101 C  
DOCKED: ENDROOT
DOCKED: BRANCH   2  12
DOCKED: ATOM     12  C   UNL     1     -37.993 -14.327  12.371 -0.05 +0.00    +0.038 C  
DOCKED: BRANCH  12  13
DOCKED: ATOM     13  C   UNL     1     -37.029 -14.110  13.536 -0.02 +0.00    +0.038 C  
DOCKED: BRANCH  13  14
DOCKED: ATOM     14  C   UNL     1     -36.101 -12.926  13.269 -0.00 +0.00    +0.251 C  
DOCKED: BRANCH  14  15
DOCKED: ATOM     15  N   UNL     1     -34.732 -13.261  13.642 -0.00 +0.00    +0.141 N  
DOCKED: ATOM     16  C   UNL     1     -34.618 -14.684  13.965 -0.01 +0.00    +0.285 C  
DOCKED: ATOM     17  C   UNL     1     -33.804 -12.910  12.566 -0.00 +0.00    +0.285 C  
DOCKED: ENDBRANCH  14  15
DOCKED: ENDBRANCH  13  14
DOCKED: ENDBRANCH  12  13
DOCKED: ENDBRANCH   2  12
DOCKED: BRANCH   2  18
DOCKED: ATOM     18  C   UNL     1     -36.674 -14.218  10.264 -0.15 +0.00    +0.006 A  
DOCKED: ATOM     19  C   UNL     1     -37.371 -13.131   9.737 -0.14 +0.00    +0.001 A  
DOCKED: ATOM     20  C   UNL     1     -36.750 -12.286   8.816 -0.10 +0.00    +0.029 A  
DOCKED: ATOM     21  C   UNL     1     -35.434 -12.529   8.424 -0.07 +0.00    +0.140 A  
DOCKED: ATOM     22  C   UNL     1     -34.737 -13.615   8.952 -0.11 +0.00    +0.029 A  
DOCKED: ATOM     23  F   UNL     1     -34.837 -11.716   7.542 -0.00 -0.00    -0.204 F  
DOCKED: ATOM     24  C   UNL     1     -35.358 -14.461   9.873 -0.07 +0.00    +0.001 A  
DOCKED: ENDBRANCH   2  18
DOCKED: TORSDOF 5
DOCKED: TER
DOCKED: ENDMDL
________________________________________________________________________________


    FINAL DOCKED STATE:
    ________________________


Run:   242 / 512
Time taken for this run:   0.002s

DOCKED: MODEL        242
DOCKED: USER    Run = 242
DOCKED: USER
DOCKED: USER    Estimated Free Energy of Binding    =  -4.61 kcal/mol  [=(1)+(2)+(3)-(4)]
DOCKED: USER
DOCKED: USER    (1) Final Intermolecular Energy     =  -6.11 kcal/mol
DOCKED: USER        vdW + Hbond + desolv Energy     =  -6.11 kcal/mol
DOCKED: USER        Electrostatic Energy            =  +0.00 kcal/mol
DOCKED: USER        Moving Ligand-Fixed Receptor    =  -6.11 kcal/mol
DOCKED: USER        Moving Ligand-Moving Receptor   =  +0.00 kcal/mol
DOCKED: USER    (2) Final Total Internal Energy     =  -0.91 kcal/mol
DOCKED: USER    (3) Torsional Free Energy           =  +1.49 kcal/mol
DOCKED: USER    (4) Unbound System's Energy         =  -0.91 kcal/mol
DOCKED: USER
DOCKED: USER
DOCKED: REMARK  5 active torsions:
DOCKED: REMARK  status: ('A' for Active; 'I' for Inactive)
DOCKED: REMARK    1  A    between atoms: C_2  and  C_19 
DOCKED: REMARK    2  A    between atoms: C_2  and  C_11 
DOCKED: REMARK    3  A    between atoms: C_19  and  C_20 
DOCKED: REMARK    4  A    between atoms: C_20  and  C_21 
DOCKED: REMARK    5  A    between atoms: C_21  and  N_22 
DOCKED: USER                              x       y       z     vdW  Elec       q    Type
DOCKED: USER                           _______ _______ _______ _____ _____    ______ ____
DOCKED: ROOT
DOCKED: ATOM      1  O   UNL     1     -42.914 -16.920  11.620 -0.01 -0.00    -0.346 OA 
DOCKED: ATOM      2  C   UNL     1     -41.454 -17.026  11.608 -0.10 +0.00    +0.130 C  
DOCKED: ATOM      3  C   UNL     1     -41.143 -17.556  10.238 -0.22 +0.00    +0.004 A  
DOCKED: ATOM      4  C   UNL     1     -42.311 -17.640   9.494 -0.27 +0.00    +0.006 A  
DOCKED: ATOM      5  C   UNL     1     -43.457 -17.168  10.302 -0.19 +0.00    +0.169 C  
DOCKED: ATOM      6  C   UNL     1     -39.923 -17.923   9.690 -0.33 -0.00    -0.001 A  
DOCKED: ATOM      7  C   UNL     1     -42.302 -18.096   8.186 -0.14 +0.00    +0.008 A  
DOCKED: ATOM      8  C   UNL     1     -39.897 -18.389   8.374 -0.43 +0.00    +0.010 A  
DOCKED: ATOM      9  C   UNL     1     -41.081 -18.474   7.626 -0.35 +0.00    +0.068 A  
DOCKED: ATOM     10  N   UNL     1     -40.997 -19.337   5.185 -2.42 -0.00    -0.191 NA 
DOCKED: ATOM     11  C   UNL     1     -41.035 -18.951   6.280 -0.31 +0.00    +0.101 C  
DOCKED: ENDROOT
DOCKED: BRANCH   2  12
DOCKED: ATOM     12  C   UNL     1     -40.867 -15.641  11.855 -0.10 +0.00    +0.038 C  
DOCKED: BRANCH  12  13
DOCKED: ATOM     13  C   UNL     1     -39.344 -15.691  11.950 -0.10 +0.00    +0.038 C  
DOCKED: BRANCH  13  14
DOCKED: ATOM     14  C   UNL     1     -38.710 -14.492  11.247 -0.08 +0.00    +0.251 C  
DOCKED: BRANCH  14  15
DOCKED: ATOM     15  N   UNL     1     -37.265 -14.663  11.154 -0.10 +0.00    +0.141 N  
DOCKED: ATOM     16  C   UNL     1     -36.916 -16.084  11.107 -0.04 +0.00    +0.285 C  
DOCKED: ATOM     17  C   UNL     1     -36.739 -13.972   9.976 -0.11 +0.00    +0.285 C  
DOCKED: ENDBRANCH  14  15
DOCKED: ENDBRANCH  13  14
DOCKED: ENDBRANCH  12  13
DOCKED: ENDBRANCH   2  12
DOCKED: BRANCH   2  18
DOCKED: ATOM     18  C   UNL     1     -41.077 -17.973  12.697 -0.11 +0.00    +0.006 A  
DOCKED: ATOM     19  C   UNL     1     -39.788 -18.505  12.743 -0.17 +0.00    +0.001 A  
DOCKED: ATOM     20  C   UNL     1     -39.437 -19.391  13.762 -0.22 +0.00    +0.029 A  
DOCKED: ATOM     21  C   UNL     1     -40.373 -19.744  14.733 -0.06 +0.00    +0.140 A  
DOCKED: ATOM     22  C   UNL     1     -41.661 -19.211  14.687 -0.13 +0.00    +0.029 A  
DOCKED: ATOM     23  F   UNL     1     -40.035 -20.593  15.712 -0.04 -0.00    -0.204 F  
DOCKED: ATOM     24  C   UNL     1     -42.014 -18.325  13.668 -0.10 +0.00    +0.001 A  
DOCKED: ENDBRANCH   2  18
DOCKED: TORSDOF 5
DOCKED: TER
DOCKED: ENDMDL
________________________________________________________________________________


    FINAL DOCKED STATE:
    ________________________


Run:   243 / 512
Time taken for this run:   0.002s

DOCKED: MODEL        243
DOCKED: USER    Run = 243
DOCKED: USER
DOCKED: USER    Estimated Free Energy of Binding    =  -5.11 kcal/mol  [=(1)+(2)+(3)-(4)]
DOCKED: USER
DOCKED: USER    (1) Final Intermolecular Energy     =  -6.60 kcal/mol
DOCKED: USER        vdW + Hbond + desolv Energy     =  -6.60 kcal/mol
DOCKED: USER        Electrostatic Energy            =  +0.00 kcal/mol
DOCKED: USER        Moving Ligand-Fixed Receptor    =  -6.60 kcal/mol
DOCKED: USER        Moving Ligand-Moving Receptor   =  +0.00 kcal/mol
DOCKED: USER    (2) Final Total Internal Energy     =  -1.11 kcal/mol
DOCKED: USER    (3) Torsional Free Energy           =  +1.49 kcal/mol
DOCKED: USER    (4) Unbound System's Energy         =  -1.11 kcal/mol
DOCKED: USER
DOCKED: USER
DOCKED: REMARK  5 active torsions:
DOCKED: REMARK  status: ('A' for Active; 'I' for Inactive)
DOCKED: REMARK    1  A    between atoms: C_2  and  C_19 
DOCKED: REMARK    2  A    between atoms: C_2  and  C_11 
DOCKED: REMARK    3  A    between atoms: C_19  and  C_20 
DOCKED: REMARK    4  A    between atoms: C_20  and  C_21 
DOCKED: REMARK    5  A    between atoms: C_21  and  N_22 
DOCKED: USER                              x       y       z     vdW  Elec       q    Type
DOCKED: USER                           _______ _______ _______ _____ _____    ______ ____
DOCKED: ROOT
DOCKED: ATOM      1  O   UNL     1     -41.797 -16.651  11.767 -0.00 -0.00    -0.346 OA 
DOCKED: ATOM      2  C   UNL     1     -40.394 -17.023  11.576 -0.11 +0.00    +0.130 C  
DOCKED: ATOM      3  C   UNL     1     -40.361 -17.597  10.189 -0.25 +0.00    +0.004 A  
DOCKED: ATOM      4  C   UNL     1     -41.609 -17.463   9.598 -0.25 +0.00    +0.006 A  
DOCKED: ATOM      5  C   UNL     1     -42.538 -16.790  10.533 -0.16 +0.00    +0.169 C  
DOCKED: ATOM      6  C   UNL     1     -39.307 -18.180   9.501 -0.37 -0.00    -0.001 A  
DOCKED: ATOM      7  C   UNL     1     -41.848 -17.909   8.309 -0.10 +0.00    +0.008 A  
DOCKED: ATOM      8  C   UNL     1     -39.532 -18.638   8.202 -0.35 +0.00    +0.010 A  
DOCKED: ATOM      9  C   UNL     1     -40.796 -18.503   7.609 -0.39 +0.00    +0.068 A  
DOCKED: ATOM     10  N   UNL     1     -41.180 -19.360   5.194 -2.52 -0.00    -0.191 NA 
DOCKED: ATOM     11  C   UNL     1     -41.008 -18.976   6.278 -0.32 +0.00    +0.101 C  
DOCKED: ENDROOT
DOCKED: BRANCH   2  12
DOCKED: ATOM     12  C   UNL     1     -39.539 -15.770  11.720 -0.12 +0.00    +0.038 C  
DOCKED: BRANCH  12  13
DOCKED: ATOM     13  C   UNL     1     -39.534 -14.947  10.434 -0.22 +0.00    +0.038 C  
DOCKED: BRANCH  13  14
DOCKED: ATOM     14  C   UNL     1     -40.773 -14.057  10.347 -0.16 +0.00    +0.251 C  
DOCKED: BRANCH  14  15
DOCKED: ATOM     15  N   UNL     1     -40.522 -12.924   9.464 -0.19 +0.00    +0.141 N  
DOCKED: ATOM     16  C   UNL     1     -41.431 -11.819   9.772 -0.13 +0.00    +0.285 C  
DOCKED: ATOM     17  C   UNL     1     -39.131 -12.483   9.573 -0.08 +0.00    +0.285 C  
DOCKED: ENDBRANCH  14  15
DOCKED: ENDBRANCH  13  14
DOCKED: ENDBRANCH  12  13
DOCKED: ENDBRANCH   2  12
DOCKED: BRANCH   2  18
DOCKED: ATOM     18  C   UNL     1     -40.062 -18.027  12.629 -0.13 +0.00    +0.006 A  
DOCKED: ATOM     19  C   UNL     1     -41.070 -18.543  13.442 -0.13 +0.00    +0.001 A  
DOCKED: ATOM     20  C   UNL     1     -40.757 -19.481  14.427 -0.12 +0.00    +0.029 A  
DOCKED: ATOM     21  C   UNL     1     -39.439 -19.902  14.596 -0.10 +0.00    +0.140 A  
DOCKED: ATOM     22  C   UNL     1     -38.432 -19.385  13.781 -0.13 +0.00    +0.029 A  
DOCKED: ATOM     23  F   UNL     1     -39.140 -20.804  15.540 -0.08 -0.00    -0.204 F  
DOCKED: ATOM     24  C   UNL     1     -38.743 -18.446  12.797 -0.18 +0.00    +0.001 A  
DOCKED: ENDBRANCH   2  18
DOCKED: TORSDOF 5
DOCKED: TER
DOCKED: ENDMDL
________________________________________________________________________________


    FINAL DOCKED STATE:
    ________________________


Run:   244 / 512
Time taken for this run:   0.002s

DOCKED: MODEL        244
DOCKED: USER    Run = 244
DOCKED: USER
DOCKED: USER    Estimated Free Energy of Binding    =  -4.44 kcal/mol  [=(1)+(2)+(3)-(4)]
DOCKED: USER
DOCKED: USER    (1) Final Intermolecular Energy     =  -5.93 kcal/mol
DOCKED: USER        vdW + Hbond + desolv Energy     =  -5.93 kcal/mol
DOCKED: USER        Electrostatic Energy            =  +0.00 kcal/mol
DOCKED: USER        Moving Ligand-Fixed Receptor    =  -5.93 kcal/mol
DOCKED: USER        Moving Ligand-Moving Receptor   =  +0.00 kcal/mol
DOCKED: USER    (2) Final Total Internal Energy     =  -0.91 kcal/mol
DOCKED: USER    (3) Torsional Free Energy           =  +1.49 kcal/mol
DOCKED: USER    (4) Unbound System's Energy         =  -0.91 kcal/mol
DOCKED: USER
DOCKED: USER
DOCKED: REMARK  5 active torsions:
DOCKED: REMARK  status: ('A' for Active; 'I' for Inactive)
DOCKED: REMARK    1  A    between atoms: C_2  and  C_19 
DOCKED: REMARK    2  A    between atoms: C_2  and  C_11 
DOCKED: REMARK    3  A    between atoms: C_19  and  C_20 
DOCKED: REMARK    4  A    between atoms: C_20  and  C_21 
DOCKED: REMARK    5  A    between atoms: C_21  and  N_22 
DOCKED: USER                              x       y       z     vdW  Elec       q    Type
DOCKED: USER                           _______ _______ _______ _____ _____    ______ ____
DOCKED: ROOT
DOCKED: ATOM      1  O   UNL     1     -37.669 -10.053   5.113 -0.10 -0.00    -0.346 OA 
DOCKED: ATOM      2  C   UNL     1     -36.340 -10.021   4.501 -0.20 +0.00    +0.130 C  
DOCKED: ATOM      3  C   UNL     1     -36.587  -9.444   3.137 -0.24 +0.00    +0.004 A  
DOCKED: ATOM      4  C   UNL     1     -37.920  -9.076   3.020 -0.09 +0.00    +0.006 A  
DOCKED: ATOM      5  C   UNL     1     -38.634  -9.368   4.283 -0.12 +0.00    +0.169 C  
DOCKED: ATOM      6  C   UNL     1     -35.700  -9.250   2.088 -0.24 -0.00    -0.001 A  
DOCKED: ATOM      7  C   UNL     1     -38.411  -8.510   1.856 -0.07 +0.00    +0.008 A  
DOCKED: ATOM      8  C   UNL     1     -36.181  -8.683   0.906 -0.30 +0.00    +0.010 A  
DOCKED: ATOM      9  C   UNL     1     -37.530  -8.315   0.791 -0.31 +0.00    +0.068 A  
DOCKED: ATOM     10  N   UNL     1     -38.389  -7.261  -1.414 -2.44 -0.00    -0.191 NA 
DOCKED: ATOM     11  C   UNL     1     -38.004  -7.734  -0.425 -0.31 +0.00    +0.101 C  
DOCKED: ENDROOT
DOCKED: BRANCH   2  12
DOCKED: ATOM     12  C   UNL     1     -35.434  -9.146   5.360 -0.17 +0.00    +0.038 C  
DOCKED: BRANCH  12  13
DOCKED: ATOM     13  C   UNL     1     -33.980  -9.231   4.901 -0.14 +0.00    +0.038 C  
DOCKED: BRANCH  13  14
DOCKED: ATOM     14  C   UNL     1     -33.089  -9.803   6.002 -0.05 +0.00    +0.251 C  
DOCKED: BRANCH  14  15
DOCKED: ATOM     15  N   UNL     1     -31.865  -9.020   6.122 -0.04 +0.00    +0.141 N  
DOCKED: ATOM     16  C   UNL     1     -32.006  -7.734   5.437 -0.06 +0.00    +0.285 C  
DOCKED: ATOM     17  C   UNL     1     -31.523  -8.811   7.530 -0.03 +0.00    +0.285 C  
DOCKED: ENDBRANCH  14  15
DOCKED: ENDBRANCH  13  14
DOCKED: ENDBRANCH  12  13
DOCKED: ENDBRANCH   2  12
DOCKED: BRANCH   2  18
DOCKED: ATOM     18  C   UNL     1     -35.845 -11.428   4.457 -0.15 +0.00    +0.006 A  
DOCKED: ATOM     19  C   UNL     1     -35.043 -11.851   3.398 -0.13 +0.00    +0.001 A  
DOCKED: ATOM     20  C   UNL     1     -34.581 -13.167   3.358 -0.15 +0.00    +0.029 A  
DOCKED: ATOM     21  C   UNL     1     -34.921 -14.057   4.375 -0.18 +0.00    +0.140 A  
DOCKED: ATOM     22  C   UNL     1     -35.724 -13.633   5.434 -0.20 +0.00    +0.029 A  
DOCKED: ATOM     23  F   UNL     1     -34.477 -15.320   4.337 -0.09 -0.00    -0.204 F  
DOCKED: ATOM     24  C   UNL     1     -36.187 -12.317   5.475 -0.15 +0.00    +0.001 A  
DOCKED: ENDBRANCH   2  18
DOCKED: TORSDOF 5
DOCKED: TER
DOCKED: ENDMDL
________________________________________________________________________________


    FINAL DOCKED STATE:
    ________________________


Run:   245 / 512
Time taken for this run:   0.002s

DOCKED: MODEL        245
DOCKED: USER    Run = 245
DOCKED: USER
DOCKED: USER    Estimated Free Energy of Binding    =  -3.56 kcal/mol  [=(1)+(2)+(3)-(4)]
DOCKED: USER
DOCKED: USER    (1) Final Intermolecular Energy     =  -5.05 kcal/mol
DOCKED: USER        vdW + Hbond + desolv Energy     =  -5.05 kcal/mol
DOCKED: USER        Electrostatic Energy            =  +0.00 kcal/mol
DOCKED: USER        Moving Ligand-Fixed Receptor    =  -5.05 kcal/mol
DOCKED: USER        Moving Ligand-Moving Receptor   =  +0.00 kcal/mol
DOCKED: USER    (2) Final Total Internal Energy     =  -1.34 kcal/mol
DOCKED: USER    (3) Torsional Free Energy           =  +1.49 kcal/mol
DOCKED: USER    (4) Unbound System's Energy         =  -1.34 kcal/mol
DOCKED: USER
DOCKED: USER
DOCKED: REMARK  5 active torsions:
DOCKED: REMARK  status: ('A' for Active; 'I' for Inactive)
DOCKED: REMARK    1  A    between atoms: C_2  and  C_19 
DOCKED: REMARK    2  A    between atoms: C_2  and  C_11 
DOCKED: REMARK    3  A    between atoms: C_19  and  C_20 
DOCKED: REMARK    4  A    between atoms: C_20  and  C_21 
DOCKED: REMARK    5  A    between atoms: C_21  and  N_22 
DOCKED: USER                              x       y       z     vdW  Elec       q    Type
DOCKED: USER                           _______ _______ _______ _____ _____    ______ ____
DOCKED: ROOT
DOCKED: ATOM      1  O   UNL     1     -39.098 -15.148  11.374 -0.03 -0.00    -0.346 OA 
DOCKED: ATOM      2  C   UNL     1     -40.546 -15.351  11.302 -0.12 +0.00    +0.130 C  
DOCKED: ATOM      3  C   UNL     1     -40.704 -16.473  10.317 -0.23 +0.00    +0.004 A  
DOCKED: ATOM      4  C   UNL     1     -39.454 -16.945   9.943 -0.30 +0.00    +0.006 A  
DOCKED: ATOM      5  C   UNL     1     -38.398 -16.189  10.653 -0.20 +0.00    +0.169 C  
DOCKED: ATOM      6  C   UNL     1     -41.861 -17.039   9.803 -0.23 -0.00    -0.001 A  
DOCKED: ATOM      7  C   UNL     1     -39.317 -17.989   9.044 -0.35 +0.00    +0.008 A  
DOCKED: ATOM      8  C   UNL     1     -41.740 -18.089   8.892 -0.29 +0.00    +0.010 A  
DOCKED: ATOM      9  C   UNL     1     -40.474 -18.562   8.515 -0.36 +0.00    +0.068 A  
DOCKED: ATOM     10  N   UNL     1     -40.285 -20.517   6.825 -1.29 -0.00    -0.191 NA 
DOCKED: ATOM     11  C   UNL     1     -40.370 -19.640   7.582 -0.52 +0.00    +0.101 C  
DOCKED: ENDROOT
DOCKED: BRANCH   2  12
DOCKED: ATOM     12  C   UNL     1     -41.053 -15.707  12.694 -0.06 +0.00    +0.038 C  
DOCKED: BRANCH  12  13
DOCKED: ATOM     13  C   UNL     1     -40.575 -14.698  13.736 -0.02 +0.00    +0.038 C  
DOCKED: BRANCH  13  14
DOCKED: ATOM     14  C   UNL     1     -39.165 -15.033  14.220 -0.00 +0.00    +0.251 C  
DOCKED: BRANCH  14  15
DOCKED: ATOM     15  N   UNL     1     -38.451 -13.815  14.583 -0.00 +0.00    +0.141 N  
DOCKED: ATOM     16  C   UNL     1     -38.563 -12.814  13.521 -0.00 +0.00    +0.285 C  
DOCKED: ATOM     17  C   UNL     1     -38.961 -13.275  15.845 +0.00 +0.00    +0.285 C  
DOCKED: ENDBRANCH  14  15
DOCKED: ENDBRANCH  13  14
DOCKED: ENDBRANCH  12  13
DOCKED: ENDBRANCH   2  12
DOCKED: BRANCH   2  18
DOCKED: ATOM     18  C   UNL     1     -41.142 -14.069  10.824 -0.18 +0.00    +0.006 A  
DOCKED: ATOM     19  C   UNL     1     -42.507 -13.834  10.983 -0.18 +0.00    +0.001 A  
DOCKED: ATOM     20  C   UNL     1     -43.064 -12.635  10.534 -0.17 +0.00    +0.029 A  
DOCKED: ATOM     21  C   UNL     1     -42.255 -11.674   9.929 -0.13 +0.00    +0.140 A  
DOCKED: ATOM     22  C   UNL     1     -40.890 -11.910   9.771 -0.18 +0.00    +0.029 A  
DOCKED: ATOM     23  F   UNL     1     -42.789 -10.523   9.501 -0.02 -0.00    -0.204 F  
DOCKED: ATOM     24  C   UNL     1     -40.332 -13.109  10.218 -0.19 +0.00    +0.001 A  
DOCKED: ENDBRANCH   2  18
DOCKED: TORSDOF 5
DOCKED: TER
DOCKED: ENDMDL
________________________________________________________________________________


    FINAL DOCKED STATE:
    ________________________


Run:   246 / 512
Time taken for this run:   0.002s

DOCKED: MODEL        246
DOCKED: USER    Run = 246
DOCKED: USER
DOCKED: USER    Estimated Free Energy of Binding    =  -4.38 kcal/mol  [=(1)+(2)+(3)-(4)]
DOCKED: USER
DOCKED: USER    (1) Final Intermolecular Energy     =  -5.87 kcal/mol
DOCKED: USER        vdW + Hbond + desolv Energy     =  -5.87 kcal/mol
DOCKED: USER        Electrostatic Energy            =  +0.00 kcal/mol
DOCKED: USER        Moving Ligand-Fixed Receptor    =  -5.87 kcal/mol
DOCKED: USER        Moving Ligand-Moving Receptor   =  +0.00 kcal/mol
DOCKED: USER    (2) Final Total Internal Energy     =  -1.53 kcal/mol
DOCKED: USER    (3) Torsional Free Energy           =  +1.49 kcal/mol
DOCKED: USER    (4) Unbound System's Energy         =  -1.53 kcal/mol
DOCKED: USER
DOCKED: USER
DOCKED: REMARK  5 active torsions:
DOCKED: REMARK  status: ('A' for Active; 'I' for Inactive)
DOCKED: REMARK    1  A    between atoms: C_2  and  C_19 
DOCKED: REMARK    2  A    between atoms: C_2  and  C_11 
DOCKED: REMARK    3  A    between atoms: C_19  and  C_20 
DOCKED: REMARK    4  A    between atoms: C_20  and  C_21 
DOCKED: REMARK    5  A    between atoms: C_21  and  N_22 
DOCKED: USER                              x       y       z     vdW  Elec       q    Type
DOCKED: USER                           _______ _______ _______ _____ _____    ______ ____
DOCKED: ROOT
DOCKED: ATOM      1  O   UNL     1     -40.348 -16.266  11.980 -0.01 -0.00    -0.346 OA 
DOCKED: ATOM      2  C   UNL     1     -39.310 -17.293  11.879 -0.13 +0.00    +0.130 C  
DOCKED: ATOM      3  C   UNL     1     -39.540 -17.905  10.528 -0.27 +0.00    +0.004 A  
DOCKED: ATOM      4  C   UNL     1     -40.549 -17.217   9.869 -0.27 +0.00    +0.006 A  
DOCKED: ATOM      5  C   UNL     1     -41.040 -16.109  10.719 -0.16 +0.00    +0.169 C  
DOCKED: ATOM      6  C   UNL     1     -38.901 -18.979   9.926 -0.40 -0.00    -0.001 A  
DOCKED: ATOM      7  C   UNL     1     -40.954 -17.577   8.595 -0.13 +0.00    +0.008 A  
DOCKED: ATOM      8  C   UNL     1     -39.301 -19.358   8.643 -0.41 +0.00    +0.010 A  
DOCKED: ATOM      9  C   UNL     1     -40.322 -18.660   7.981 -0.41 +0.00    +0.068 A  
DOCKED: ATOM     10  N   UNL     1     -41.037 -19.386   5.599 -2.12 -0.00    -0.191 NA 
DOCKED: ATOM     11  C   UNL     1     -40.717 -19.061   6.668 -0.50 +0.00    +0.101 C  
DOCKED: ENDROOT
DOCKED: BRANCH   2  12
DOCKED: ATOM     12  C   UNL     1     -37.949 -16.617  12.000 -0.16 +0.00    +0.038 C  
DOCKED: BRANCH  12  13
DOCKED: ATOM     13  C   UNL     1     -37.714 -16.088  13.413 -0.07 +0.00    +0.038 C  
DOCKED: BRANCH  13  14
DOCKED: ATOM     14  C   UNL     1     -38.376 -14.725  13.607 -0.01 +0.00    +0.251 C  
DOCKED: BRANCH  14  15
DOCKED: ATOM     15  N   UNL     1     -39.159 -14.712  14.836 -0.00 +0.00    +0.141 N  
DOCKED: ATOM     16  C   UNL     1     -40.588 -14.608  14.536 -0.00 +0.00    +0.285 C  
DOCKED: ATOM     17  C   UNL     1     -38.893 -15.912  15.630 -0.00 +0.00    +0.285 C  
DOCKED: ENDBRANCH  14  15
DOCKED: ENDBRANCH  13  14
DOCKED: ENDBRANCH  12  13
DOCKED: ENDBRANCH   2  12
DOCKED: BRANCH   2  18
DOCKED: ATOM     18  C   UNL     1     -39.536 -18.253  12.999 -0.15 +0.00    +0.006 A  
DOCKED: ATOM     19  C   UNL     1     -40.718 -18.197  13.736 -0.11 +0.00    +0.001 A  
DOCKED: ATOM     20  C   UNL     1     -40.927 -19.095  14.784 -0.13 +0.00    +0.029 A  
DOCKED: ATOM     21  C   UNL     1     -39.956 -20.047  15.092 -0.03 +0.00    +0.140 A  
DOCKED: ATOM     22  C   UNL     1     -38.774 -20.101  14.354 -0.23 +0.00    +0.029 A  
DOCKED: ATOM     23  F   UNL     1     -40.159 -20.909  16.096 -0.05 -0.00    -0.204 F  
DOCKED: ATOM     24  C   UNL     1     -38.563 -19.203  13.306 -0.14 +0.00    +0.001 A  
DOCKED: ENDBRANCH   2  18
DOCKED: TORSDOF 5
DOCKED: TER
DOCKED: ENDMDL
________________________________________________________________________________


    FINAL DOCKED STATE:
    ________________________


Run:   247 / 512
Time taken for this run:   0.002s

DOCKED: MODEL        247
DOCKED: USER    Run = 247
DOCKED: USER
DOCKED: USER    Estimated Free Energy of Binding    =  -6.00 kcal/mol  [=(1)+(2)+(3)-(4)]
DOCKED: USER
DOCKED: USER    (1) Final Intermolecular Energy     =  -7.49 kcal/mol
DOCKED: USER        vdW + Hbond + desolv Energy     =  -7.49 kcal/mol
DOCKED: USER        Electrostatic Energy            =  +0.00 kcal/mol
DOCKED: USER        Moving Ligand-Fixed Receptor    =  -7.49 kcal/mol
DOCKED: USER        Moving Ligand-Moving Receptor   =  +0.00 kcal/mol
DOCKED: USER    (2) Final Total Internal Energy     =  -1.33 kcal/mol
DOCKED: USER    (3) Torsional Free Energy           =  +1.49 kcal/mol
DOCKED: USER    (4) Unbound System's Energy         =  -1.33 kcal/mol
DOCKED: USER
DOCKED: USER
DOCKED: REMARK  5 active torsions:
DOCKED: REMARK  status: ('A' for Active; 'I' for Inactive)
DOCKED: REMARK    1  A    between atoms: C_2  and  C_19 
DOCKED: REMARK    2  A    between atoms: C_2  and  C_11 
DOCKED: REMARK    3  A    between atoms: C_19  and  C_20 
DOCKED: REMARK    4  A    between atoms: C_20  and  C_21 
DOCKED: REMARK    5  A    between atoms: C_21  and  N_22 
DOCKED: USER                              x       y       z     vdW  Elec       q    Type
DOCKED: USER                           _______ _______ _______ _____ _____    ______ ____
DOCKED: ROOT
DOCKED: ATOM      1  O   UNL     1     -38.569 -16.466  11.224 -0.07 -0.00    -0.346 OA 
DOCKED: ATOM      2  C   UNL     1     -38.404 -17.919  11.195 -0.24 +0.00    +0.130 C  
DOCKED: ATOM      3  C   UNL     1     -38.981 -18.320   9.868 -0.35 +0.00    +0.004 A  
DOCKED: ATOM      4  C   UNL     1     -39.342 -17.186   9.154 -0.33 +0.00    +0.006 A  
DOCKED: ATOM      5  C   UNL     1     -39.023 -15.974   9.942 -0.24 +0.00    +0.169 C  
DOCKED: ATOM      6  C   UNL     1     -39.160 -19.586   9.330 -0.35 -0.00    -0.001 A  
DOCKED: ATOM      7  C   UNL     1     -39.896 -17.277   7.889 -0.08 +0.00    +0.008 A  
DOCKED: ATOM      8  C   UNL     1     -39.722 -19.695   8.057 -0.47 +0.00    +0.010 A  
DOCKED: ATOM      9  C   UNL     1     -40.087 -18.546   7.340 -0.41 +0.00    +0.068 A  
DOCKED: ATOM     10  N   UNL     1     -41.123 -18.783   4.977 -3.08 -0.00    -0.191 NA 
DOCKED: ATOM     11  C   UNL     1     -40.659 -18.676   6.037 -0.42 +0.00    +0.101 C  
DOCKED: ENDROOT
DOCKED: BRANCH   2  12
DOCKED: ATOM     12  C   UNL     1     -36.919 -18.239  11.318 -0.11 +0.00    +0.038 C  
DOCKED: BRANCH  12  13
DOCKED: ATOM     13  C   UNL     1     -36.122 -17.018  11.773 -0.20 +0.00    +0.038 C  
DOCKED: BRANCH  13  14
DOCKED: ATOM     14  C   UNL     1     -35.327 -17.323  13.041 -0.09 +0.00    +0.251 C  
DOCKED: BRANCH  14  15
DOCKED: ATOM     15  N   UNL     1     -35.915 -16.636  14.186 -0.05 +0.00    +0.141 N  
DOCKED: ATOM     16  C   UNL     1     -34.898 -15.865  14.902 -0.01 +0.00    +0.285 C  
DOCKED: ATOM     17  C   UNL     1     -37.007 -15.761  13.757 -0.02 +0.00    +0.285 C  
DOCKED: ENDBRANCH  14  15
DOCKED: ENDBRANCH  13  14
DOCKED: ENDBRANCH  12  13
DOCKED: ENDBRANCH   2  12
DOCKED: BRANCH   2  18
DOCKED: ATOM     18  C   UNL     1     -39.170 -18.469  12.352 -0.20 +0.00    +0.006 A  
DOCKED: ATOM     19  C   UNL     1     -38.492 -18.966  13.464 -0.17 +0.00    +0.001 A  
DOCKED: ATOM     20  C   UNL     1     -39.210 -19.480  14.544 -0.21 +0.00    +0.029 A  
DOCKED: ATOM     21  C   UNL     1     -40.603 -19.496  14.512 -0.08 +0.00    +0.140 A  
DOCKED: ATOM     22  C   UNL     1     -41.281 -18.998  13.399 -0.15 +0.00    +0.029 A  
DOCKED: ATOM     23  F   UNL     1     -41.292 -19.987  15.550 -0.03 -0.00    -0.204 F  
DOCKED: ATOM     24  C   UNL     1     -40.564 -18.484  12.317 -0.16 +0.00    +0.001 A  
DOCKED: ENDBRANCH   2  18
DOCKED: TORSDOF 5
DOCKED: TER
DOCKED: ENDMDL
________________________________________________________________________________


    FINAL DOCKED STATE:
    ________________________


Run:   248 / 512
Time taken for this run:   0.002s

DOCKED: MODEL        248
DOCKED: USER    Run = 248
DOCKED: USER
DOCKED: USER    Estimated Free Energy of Binding    =  -4.48 kcal/mol  [=(1)+(2)+(3)-(4)]
DOCKED: USER
DOCKED: USER    (1) Final Intermolecular Energy     =  -5.98 kcal/mol
DOCKED: USER        vdW + Hbond + desolv Energy     =  -5.98 kcal/mol
DOCKED: USER        Electrostatic Energy            =  +0.00 kcal/mol
DOCKED: USER        Moving Ligand-Fixed Receptor    =  -5.98 kcal/mol
DOCKED: USER        Moving Ligand-Moving Receptor   =  +0.00 kcal/mol
DOCKED: USER    (2) Final Total Internal Energy     =  -1.25 kcal/mol
DOCKED: USER    (3) Torsional Free Energy           =  +1.49 kcal/mol
DOCKED: USER    (4) Unbound System's Energy         =  -1.25 kcal/mol
DOCKED: USER
DOCKED: USER
DOCKED: REMARK  5 active torsions:
DOCKED: REMARK  status: ('A' for Active; 'I' for Inactive)
DOCKED: REMARK    1  A    between atoms: C_2  and  C_19 
DOCKED: REMARK    2  A    between atoms: C_2  and  C_11 
DOCKED: REMARK    3  A    between atoms: C_19  and  C_20 
DOCKED: REMARK    4  A    between atoms: C_20  and  C_21 
DOCKED: REMARK    5  A    between atoms: C_21  and  N_22 
DOCKED: USER                              x       y       z     vdW  Elec       q    Type
DOCKED: USER                           _______ _______ _______ _____ _____    ______ ____
DOCKED: ROOT
DOCKED: ATOM      1  O   UNL     1     -39.379 -15.998  12.375 -0.01 -0.00    -0.346 OA 
DOCKED: ATOM      2  C   UNL     1     -38.773 -17.331  12.392 -0.12 +0.00    +0.130 C  
DOCKED: ATOM      3  C   UNL     1     -39.104 -17.893  11.039 -0.25 +0.00    +0.004 A  
DOCKED: ATOM      4  C   UNL     1     -39.745 -16.928  10.276 -0.26 +0.00    +0.006 A  
DOCKED: ATOM      5  C   UNL     1     -39.870 -15.674  11.053 -0.14 +0.00    +0.169 C  
DOCKED: ATOM      6  C   UNL     1     -38.847 -19.155  10.522 -0.38 -0.00    -0.001 A  
DOCKED: ATOM      7  C   UNL     1     -40.154 -17.189   8.980 -0.31 +0.00    +0.008 A  
DOCKED: ATOM      8  C   UNL     1     -39.258 -19.435   9.218 -0.41 +0.00    +0.010 A  
DOCKED: ATOM      9  C   UNL     1     -39.907 -18.456   8.450 -0.38 +0.00    +0.068 A  
DOCKED: ATOM     10  N   UNL     1     -40.651 -19.007   6.030 -1.93 -0.00    -0.191 NA 
DOCKED: ATOM     11  C   UNL     1     -40.318 -18.760   7.116 -0.52 +0.00    +0.101 C  
DOCKED: ENDROOT
DOCKED: BRANCH   2  12
DOCKED: ATOM     12  C   UNL     1     -37.274 -17.177  12.620 -0.17 +0.00    +0.038 C  
DOCKED: BRANCH  12  13
DOCKED: ATOM     13  C   UNL     1     -36.556 -16.758  11.338 -0.12 +0.00    +0.038 C  
DOCKED: BRANCH  13  14
DOCKED: ATOM     14  C   UNL     1     -36.652 -15.249  11.121 -0.10 +0.00    +0.251 C  
DOCKED: BRANCH  14  15
DOCKED: ATOM     15  N   UNL     1     -35.965 -14.538  12.193 -0.04 +0.00    +0.141 N  
DOCKED: ATOM     16  C   UNL     1     -34.836 -13.773  11.663 -0.03 +0.00    +0.285 C  
DOCKED: ATOM     17  C   UNL     1     -36.892 -13.653  12.901 -0.01 +0.00    +0.285 C  
DOCKED: ENDBRANCH  14  15
DOCKED: ENDBRANCH  13  14
DOCKED: ENDBRANCH  12  13
DOCKED: ENDBRANCH   2  12
DOCKED: BRANCH   2  18
DOCKED: ATOM     18  C   UNL     1     -39.413 -18.086  13.508 -0.12 +0.00    +0.006 A  
DOCKED: ATOM     19  C   UNL     1     -38.775 -19.201  14.050 -0.22 +0.00    +0.001 A  
DOCKED: ATOM     20  C   UNL     1     -39.374 -19.907  15.094 -0.20 +0.00    +0.029 A  
DOCKED: ATOM     21  C   UNL     1     -40.609 -19.497  15.594 -0.10 +0.00    +0.140 A  
DOCKED: ATOM     22  C   UNL     1     -41.246 -18.382  15.052 -0.08 +0.00    +0.029 A  
DOCKED: ATOM     23  F   UNL     1     -41.183 -20.174  16.598 -0.03 -0.00    -0.204 F  
DOCKED: ATOM     24  C   UNL     1     -40.648 -17.675  14.008 -0.07 +0.00    +0.001 A  
DOCKED: ENDBRANCH   2  18
DOCKED: TORSDOF 5
DOCKED: TER
DOCKED: ENDMDL
________________________________________________________________________________


    FINAL DOCKED STATE:
    ________________________


Run:   249 / 512
Time taken for this run:   0.002s

DOCKED: MODEL        249
DOCKED: USER    Run = 249
DOCKED: USER
DOCKED: USER    Estimated Free Energy of Binding    =  -5.44 kcal/mol  [=(1)+(2)+(3)-(4)]
DOCKED: USER
DOCKED: USER    (1) Final Intermolecular Energy     =  -6.93 kcal/mol
DOCKED: USER        vdW + Hbond + desolv Energy     =  -6.93 kcal/mol
DOCKED: USER        Electrostatic Energy            =  +0.00 kcal/mol
DOCKED: USER        Moving Ligand-Fixed Receptor    =  -6.93 kcal/mol
DOCKED: USER        Moving Ligand-Moving Receptor   =  +0.00 kcal/mol
DOCKED: USER    (2) Final Total Internal Energy     =  -1.00 kcal/mol
DOCKED: USER    (3) Torsional Free Energy           =  +1.49 kcal/mol
DOCKED: USER    (4) Unbound System's Energy         =  -1.00 kcal/mol
DOCKED: USER
DOCKED: USER
DOCKED: REMARK  5 active torsions:
DOCKED: REMARK  status: ('A' for Active; 'I' for Inactive)
DOCKED: REMARK    1  A    between atoms: C_2  and  C_19 
DOCKED: REMARK    2  A    between atoms: C_2  and  C_11 
DOCKED: REMARK    3  A    between atoms: C_19  and  C_20 
DOCKED: REMARK    4  A    between atoms: C_20  and  C_21 
DOCKED: REMARK    5  A    between atoms: C_21  and  N_22 
DOCKED: USER                              x       y       z     vdW  Elec       q    Type
DOCKED: USER                           _______ _______ _______ _____ _____    ______ ____
DOCKED: ROOT
DOCKED: ATOM      1  O   UNL     1     -42.315 -17.543  11.750 -0.00 -0.00    -0.346 OA 
DOCKED: ATOM      2  C   UNL     1     -41.001 -16.999  11.405 -0.11 +0.00    +0.130 C  
DOCKED: ATOM      3  C   UNL     1     -40.815 -17.392   9.968 -0.25 +0.00    +0.004 A  
DOCKED: ATOM      4  C   UNL     1     -41.967 -18.008   9.499 -0.28 +0.00    +0.006 A  
DOCKED: ATOM      5  C   UNL     1     -42.984 -18.055  10.573 -0.16 +0.00    +0.169 C  
DOCKED: ATOM      6  C   UNL     1     -39.719 -17.207   9.138 -0.35 -0.00    -0.001 A  
DOCKED: ATOM      7  C   UNL     1     -42.061 -18.463   8.195 -0.31 +0.00    +0.008 A  
DOCKED: ATOM      8  C   UNL     1     -39.797 -17.664   7.821 -0.20 +0.00    +0.010 A  
DOCKED: ATOM      9  C   UNL     1     -40.962 -18.288   7.352 -0.33 +0.00    +0.068 A  
DOCKED: ATOM     10  N   UNL     1     -41.075 -19.121   4.901 -2.89 -0.00    -0.191 NA 
DOCKED: ATOM     11  C   UNL     1     -41.024 -18.748   6.001 -0.27 +0.00    +0.101 C  
DOCKED: ENDROOT
DOCKED: BRANCH   2  12
DOCKED: ATOM     12  C   UNL     1     -41.035 -15.489  11.608 -0.12 +0.00    +0.038 C  
DOCKED: BRANCH  12  13
DOCKED: ATOM     13  C   UNL     1     -41.407 -14.762  10.318 -0.25 +0.00    +0.038 C  
DOCKED: BRANCH  13  14
DOCKED: ATOM     14  C   UNL     1     -41.677 -13.281  10.580 -0.15 +0.00    +0.251 C  
DOCKED: BRANCH  14  15
DOCKED: ATOM     15  N   UNL     1     -41.087 -12.464   9.527 -0.19 +0.00    +0.141 N  
DOCKED: ATOM     16  C   UNL     1     -41.705 -11.137   9.496 -0.11 +0.00    +0.285 C  
DOCKED: ATOM     17  C   UNL     1     -39.640 -12.345   9.716 -0.11 +0.00    +0.285 C  
DOCKED: ENDBRANCH  14  15
DOCKED: ENDBRANCH  13  14
DOCKED: ENDBRANCH  12  13
DOCKED: ENDBRANCH   2  12
DOCKED: BRANCH   2  18
DOCKED: ATOM     18  C   UNL     1     -40.010 -17.643  12.316 -0.12 +0.00    +0.006 A  
DOCKED: ATOM     19  C   UNL     1     -39.307 -16.869  13.239 -0.07 +0.00    +0.001 A  
DOCKED: ATOM     20  C   UNL     1     -38.380 -17.472  14.091 -0.08 +0.00    +0.029 A  
DOCKED: ATOM     21  C   UNL     1     -38.158 -18.847  14.018 -0.10 +0.00    +0.140 A  
DOCKED: ATOM     22  C   UNL     1     -38.861 -19.620  13.095 -0.20 +0.00    +0.029 A  
DOCKED: ATOM     23  F   UNL     1     -37.270 -19.425  14.836 -0.04 -0.00    -0.204 F  
DOCKED: ATOM     24  C   UNL     1     -39.788 -19.017  12.242 -0.23 +0.00    +0.001 A  
DOCKED: ENDBRANCH   2  18
DOCKED: TORSDOF 5
DOCKED: TER
DOCKED: ENDMDL
________________________________________________________________________________


    FINAL DOCKED STATE:
    ________________________


Run:   250 / 512
Time taken for this run:   0.002s

DOCKED: MODEL        250
DOCKED: USER    Run = 250
DOCKED: USER
DOCKED: USER    Estimated Free Energy of Binding    =  -4.29 kcal/mol  [=(1)+(2)+(3)-(4)]
DOCKED: USER
DOCKED: USER    (1) Final Intermolecular Energy     =  -5.78 kcal/mol
DOCKED: USER        vdW + Hbond + desolv Energy     =  -5.78 kcal/mol
DOCKED: USER        Electrostatic Energy            =  +0.00 kcal/mol
DOCKED: USER        Moving Ligand-Fixed Receptor    =  -5.78 kcal/mol
DOCKED: USER        Moving Ligand-Moving Receptor   =  +0.00 kcal/mol
DOCKED: USER    (2) Final Total Internal Energy     =  -1.50 kcal/mol
DOCKED: USER    (3) Torsional Free Energy           =  +1.49 kcal/mol
DOCKED: USER    (4) Unbound System's Energy         =  -1.50 kcal/mol
DOCKED: USER
DOCKED: USER
DOCKED: REMARK  5 active torsions:
DOCKED: REMARK  status: ('A' for Active; 'I' for Inactive)
DOCKED: REMARK    1  A    between atoms: C_2  and  C_19 
DOCKED: REMARK    2  A    between atoms: C_2  and  C_11 
DOCKED: REMARK    3  A    between atoms: C_19  and  C_20 
DOCKED: REMARK    4  A    between atoms: C_20  and  C_21 
DOCKED: REMARK    5  A    between atoms: C_21  and  N_22 
DOCKED: USER                              x       y       z     vdW  Elec       q    Type
DOCKED: USER                           _______ _______ _______ _____ _____    ______ ____
DOCKED: ROOT
DOCKED: ATOM      1  O   UNL     1     -38.334 -14.475  11.362 -0.03 -0.00    -0.346 OA 
DOCKED: ATOM      2  C   UNL     1     -39.797 -14.427  11.359 -0.10 +0.00    +0.130 C  
DOCKED: ATOM      3  C   UNL     1     -40.197 -15.713  10.696 -0.20 +0.00    +0.004 A  
DOCKED: ATOM      4  C   UNL     1     -39.069 -16.479  10.443 -0.25 +0.00    +0.006 A  
DOCKED: ATOM      5  C   UNL     1     -37.862 -15.770  10.925 -0.16 +0.00    +0.169 C  
DOCKED: ATOM      6  C   UNL     1     -41.461 -16.173  10.355 -0.22 -0.00    -0.001 A  
DOCKED: ATOM      7  C   UNL     1     -39.162 -17.722   9.840 -0.33 +0.00    +0.008 A  
DOCKED: ATOM      8  C   UNL     1     -41.571 -17.423   9.742 -0.24 +0.00    +0.010 A  
DOCKED: ATOM      9  C   UNL     1     -40.427 -18.193   9.487 -0.28 +0.00    +0.068 A  
DOCKED: ATOM     10  N   UNL     1     -40.667 -20.510   8.353 -2.39 -0.00    -0.191 NA 
DOCKED: ATOM     11  C   UNL     1     -40.559 -19.471   8.861 -0.39 +0.00    +0.101 C  
DOCKED: ENDROOT
DOCKED: BRANCH   2  12
DOCKED: ATOM     12  C   UNL     1     -40.280 -14.327  12.801 -0.04 +0.00    +0.038 C  
DOCKED: BRANCH  12  13
DOCKED: ATOM     13  C   UNL     1     -39.639 -15.401  13.679 -0.03 +0.00    +0.038 C  
DOCKED: BRANCH  13  14
DOCKED: ATOM     14  C   UNL     1     -40.609 -16.553  13.934 -0.01 +0.00    +0.251 C  
DOCKED: BRANCH  14  15
DOCKED: ATOM     15  N   UNL     1     -40.202 -17.734  13.182 -0.06 +0.00    +0.141 N  
DOCKED: ATOM     16  C   UNL     1     -38.998 -18.327  13.764 -0.08 +0.00    +0.285 C  
DOCKED: ATOM     17  C   UNL     1     -41.285 -18.718  13.142 -0.07 +0.00    +0.285 C  
DOCKED: ENDBRANCH  14  15
DOCKED: ENDBRANCH  13  14
DOCKED: ENDBRANCH  12  13
DOCKED: ENDBRANCH   2  12
DOCKED: BRANCH   2  18
DOCKED: ATOM     18  C   UNL     1     -40.192 -13.221  10.574 -0.16 +0.00    +0.006 A  
DOCKED: ATOM     19  C   UNL     1     -39.274 -12.617   9.716 -0.14 +0.00    +0.001 A  
DOCKED: ATOM     20  C   UNL     1     -39.645 -11.489   8.983 -0.14 +0.00    +0.029 A  
DOCKED: ATOM     21  C   UNL     1     -40.932 -10.967   9.109 -0.13 +0.00    +0.140 A  
DOCKED: ATOM     22  C   UNL     1     -41.849 -11.572   9.968 -0.16 +0.00    +0.029 A  
DOCKED: ATOM     23  F   UNL     1     -41.288  -9.885   8.404 -0.02 -0.00    -0.204 F  
DOCKED: ATOM     24  C   UNL     1     -41.479 -12.700  10.702 -0.16 +0.00    +0.001 A  
DOCKED: ENDBRANCH   2  18
DOCKED: TORSDOF 5
DOCKED: TER
DOCKED: ENDMDL
________________________________________________________________________________


    FINAL DOCKED STATE:
    ________________________


Run:   251 / 512
Time taken for this run:   0.002s

DOCKED: MODEL        251
DOCKED: USER    Run = 251
DOCKED: USER
DOCKED: USER    Estimated Free Energy of Binding    =  -4.35 kcal/mol  [=(1)+(2)+(3)-(4)]
DOCKED: USER
DOCKED: USER    (1) Final Intermolecular Energy     =  -5.84 kcal/mol
DOCKED: USER        vdW + Hbond + desolv Energy     =  -5.84 kcal/mol
DOCKED: USER        Electrostatic Energy            =  +0.00 kcal/mol
DOCKED: USER        Moving Ligand-Fixed Receptor    =  -5.84 kcal/mol
DOCKED: USER        Moving Ligand-Moving Receptor   =  +0.00 kcal/mol
DOCKED: USER    (2) Final Total Internal Energy     =  -1.28 kcal/mol
DOCKED: USER    (3) Torsional Free Energy           =  +1.49 kcal/mol
DOCKED: USER    (4) Unbound System's Energy         =  -1.28 kcal/mol
DOCKED: USER
DOCKED: USER
DOCKED: REMARK  5 active torsions:
DOCKED: REMARK  status: ('A' for Active; 'I' for Inactive)
DOCKED: REMARK    1  A    between atoms: C_2  and  C_19 
DOCKED: REMARK    2  A    between atoms: C_2  and  C_11 
DOCKED: REMARK    3  A    between atoms: C_19  and  C_20 
DOCKED: REMARK    4  A    between atoms: C_20  and  C_21 
DOCKED: REMARK    5  A    between atoms: C_21  and  N_22 
DOCKED: USER                              x       y       z     vdW  Elec       q    Type
DOCKED: USER                           _______ _______ _______ _____ _____    ______ ____
DOCKED: ROOT
DOCKED: ATOM      1  O   UNL     1     -38.126 -14.230  10.803 -0.05 -0.00    -0.346 OA 
DOCKED: ATOM      2  C   UNL     1     -39.570 -14.191  11.040 -0.13 +0.00    +0.130 C  
DOCKED: ATOM      3  C   UNL     1     -40.050 -15.528  10.555 -0.21 +0.00    +0.004 A  
DOCKED: ATOM      4  C   UNL     1     -38.964 -16.305  10.177 -0.27 +0.00    +0.006 A  
DOCKED: ATOM      5  C   UNL     1     -37.708 -15.553  10.395 -0.14 +0.00    +0.169 C  
DOCKED: ATOM      6  C   UNL     1     -41.343 -16.022  10.466 -0.21 -0.00    -0.001 A  
DOCKED: ATOM      7  C   UNL     1     -39.131 -17.593   9.696 -0.33 +0.00    +0.008 A  
DOCKED: ATOM      8  C   UNL     1     -41.529 -17.317   9.979 -0.23 +0.00    +0.010 A  
DOCKED: ATOM      9  C   UNL     1     -40.428 -18.098   9.596 -0.27 +0.00    +0.068 A  
DOCKED: ATOM     10  N   UNL     1     -40.807 -20.500   8.701 -2.58 -0.00    -0.191 NA 
DOCKED: ATOM     11  C   UNL     1     -40.637 -19.422   9.102 -0.36 +0.00    +0.101 C  
DOCKED: ENDROOT
DOCKED: BRANCH   2  12
DOCKED: ATOM     12  C   UNL     1     -39.809 -13.980  12.530 -0.04 +0.00    +0.038 C  
DOCKED: BRANCH  12  13
DOCKED: ATOM     13  C   UNL     1     -38.543 -14.247  13.341 -0.02 +0.00    +0.038 C  
DOCKED: BRANCH  13  14
DOCKED: ATOM     14  C   UNL     1     -37.867 -12.940  13.751 -0.00 +0.00    +0.251 C  
DOCKED: BRANCH  14  15
DOCKED: ATOM     15  N   UNL     1     -36.455 -12.963  13.390 -0.01 +0.00    +0.141 N  
DOCKED: ATOM     16  C   UNL     1     -36.187 -12.036  12.290 -0.00 +0.00    +0.285 C  
DOCKED: ATOM     17  C   UNL     1     -35.621 -12.632  14.547 -0.00 +0.00    +0.285 C  
DOCKED: ENDBRANCH  14  15
DOCKED: ENDBRANCH  13  14
DOCKED: ENDBRANCH  12  13
DOCKED: ENDBRANCH   2  12
DOCKED: BRANCH   2  18
DOCKED: ATOM     18  C   UNL     1     -40.113 -13.054  10.241 -0.18 +0.00    +0.006 A  
DOCKED: ATOM     19  C   UNL     1     -39.252 -12.261   9.483 -0.14 +0.00    +0.001 A  
DOCKED: ATOM     20  C   UNL     1     -39.761 -11.198   8.736 -0.15 +0.00    +0.029 A  
DOCKED: ATOM     21  C   UNL     1     -41.129 -10.929   8.749 -0.11 +0.00    +0.140 A  
DOCKED: ATOM     22  C   UNL     1     -41.989 -11.722   9.507 -0.18 +0.00    +0.029 A  
DOCKED: ATOM     23  F   UNL     1     -41.617  -9.909   8.031 -0.03 -0.00    -0.204 F  
DOCKED: ATOM     24  C   UNL     1     -41.481 -12.785  10.255 -0.21 +0.00    +0.001 A  
DOCKED: ENDBRANCH   2  18
DOCKED: TORSDOF 5
DOCKED: TER
DOCKED: ENDMDL
________________________________________________________________________________


    FINAL DOCKED STATE:
    ________________________


Run:   252 / 512
Time taken for this run:   0.002s

DOCKED: MODEL        252
DOCKED: USER    Run = 252
DOCKED: USER
DOCKED: USER    Estimated Free Energy of Binding    =  -4.04 kcal/mol  [=(1)+(2)+(3)-(4)]
DOCKED: USER
DOCKED: USER    (1) Final Intermolecular Energy     =  -5.53 kcal/mol
DOCKED: USER        vdW + Hbond + desolv Energy     =  -5.53 kcal/mol
DOCKED: USER        Electrostatic Energy            =  +0.00 kcal/mol
DOCKED: USER        Moving Ligand-Fixed Receptor    =  -5.53 kcal/mol
DOCKED: USER        Moving Ligand-Moving Receptor   =  +0.00 kcal/mol
DOCKED: USER    (2) Final Total Internal Energy     =  -1.49 kcal/mol
DOCKED: USER    (3) Torsional Free Energy           =  +1.49 kcal/mol
DOCKED: USER    (4) Unbound System's Energy         =  -1.49 kcal/mol
DOCKED: USER
DOCKED: USER
DOCKED: REMARK  5 active torsions:
DOCKED: REMARK  status: ('A' for Active; 'I' for Inactive)
DOCKED: REMARK    1  A    between atoms: C_2  and  C_19 
DOCKED: REMARK    2  A    between atoms: C_2  and  C_11 
DOCKED: REMARK    3  A    between atoms: C_19  and  C_20 
DOCKED: REMARK    4  A    between atoms: C_20  and  C_21 
DOCKED: REMARK    5  A    between atoms: C_21  and  N_22 
DOCKED: USER                              x       y       z     vdW  Elec       q    Type
DOCKED: USER                           _______ _______ _______ _____ _____    ______ ____
DOCKED: ROOT
DOCKED: ATOM      1  O   UNL     1     -38.144 -13.982  10.846 -0.04 -0.00    -0.346 OA 
DOCKED: ATOM      2  C   UNL     1     -39.590 -13.889  11.057 -0.12 +0.00    +0.130 C  
DOCKED: ATOM      3  C   UNL     1     -40.110 -15.211  10.569 -0.21 +0.00    +0.004 A  
DOCKED: ATOM      4  C   UNL     1     -39.046 -16.029  10.215 -0.26 +0.00    +0.006 A  
DOCKED: ATOM      5  C   UNL     1     -37.768 -15.322  10.452 -0.17 +0.00    +0.169 C  
DOCKED: ATOM      6  C   UNL     1     -41.418 -15.657  10.459 -0.22 -0.00    -0.001 A  
DOCKED: ATOM      7  C   UNL     1     -39.252 -17.312   9.737 -0.33 +0.00    +0.008 A  
DOCKED: ATOM      8  C   UNL     1     -41.643 -16.947   9.975 -0.23 +0.00    +0.010 A  
DOCKED: ATOM      9  C   UNL     1     -40.565 -17.770   9.616 -0.25 +0.00    +0.068 A  
DOCKED: ATOM     10  N   UNL     1     -41.016 -20.161   8.725 -2.56 -0.00    -0.191 NA 
DOCKED: ATOM     11  C   UNL     1     -40.814 -19.088   9.124 -0.36 +0.00    +0.101 C  
DOCKED: ENDROOT
DOCKED: BRANCH   2  12
DOCKED: ATOM     12  C   UNL     1     -39.848 -13.661  12.541 -0.04 +0.00    +0.038 C  
DOCKED: BRANCH  12  13
DOCKED: ATOM     13  C   UNL     1     -38.549 -13.381  13.296 -0.02 +0.00    +0.038 C  
DOCKED: BRANCH  13  14
DOCKED: ATOM     14  C   UNL     1     -38.226 -11.889  13.298 -0.00 +0.00    +0.251 C  
DOCKED: BRANCH  14  15
DOCKED: ATOM     15  N   UNL     1     -37.131 -11.605  12.379 -0.01 +0.00    +0.141 N  
DOCKED: ATOM     16  C   UNL     1     -37.358 -10.339  11.680 -0.00 +0.00    +0.285 C  
DOCKED: ATOM     17  C   UNL     1     -35.854 -11.567  13.094 -0.00 +0.00    +0.285 C  
DOCKED: ENDBRANCH  14  15
DOCKED: ENDBRANCH  13  14
DOCKED: ENDBRANCH  12  13
DOCKED: ENDBRANCH   2  12
DOCKED: BRANCH   2  18
DOCKED: ATOM     18  C   UNL     1     -40.076 -12.737  10.243 -0.17 +0.00    +0.006 A  
DOCKED: ATOM     19  C   UNL     1     -41.292 -12.129  10.553 -0.15 +0.00    +0.001 A  
DOCKED: ATOM     20  C   UNL     1     -41.745 -11.051   9.790 -0.14 +0.00    +0.029 A  
DOCKED: ATOM     21  C   UNL     1     -40.983 -10.584   8.721 -0.12 +0.00    +0.140 A  
DOCKED: ATOM     22  C   UNL     1     -39.767 -11.193   8.412 -0.12 +0.00    +0.029 A  
DOCKED: ATOM     23  F   UNL     1     -41.418  -9.549   7.990 -0.02 -0.00    -0.204 F  
DOCKED: ATOM     24  C   UNL     1     -39.312 -12.271   9.173 -0.03 +0.00    +0.001 A  
DOCKED: ENDBRANCH   2  18
DOCKED: TORSDOF 5
DOCKED: TER
DOCKED: ENDMDL
________________________________________________________________________________


    FINAL DOCKED STATE:
    ________________________


Run:   253 / 512
Time taken for this run:   0.002s

DOCKED: MODEL        253
DOCKED: USER    Run = 253
DOCKED: USER
DOCKED: USER    Estimated Free Energy of Binding    =  -4.13 kcal/mol  [=(1)+(2)+(3)-(4)]
DOCKED: USER
DOCKED: USER    (1) Final Intermolecular Energy     =  -5.62 kcal/mol
DOCKED: USER        vdW + Hbond + desolv Energy     =  -5.62 kcal/mol
DOCKED: USER        Electrostatic Energy            =  +0.00 kcal/mol
DOCKED: USER        Moving Ligand-Fixed Receptor    =  -5.62 kcal/mol
DOCKED: USER        Moving Ligand-Moving Receptor   =  +0.00 kcal/mol
DOCKED: USER    (2) Final Total Internal Energy     =  -1.28 kcal/mol
DOCKED: USER    (3) Torsional Free Energy           =  +1.49 kcal/mol
DOCKED: USER    (4) Unbound System's Energy         =  -1.28 kcal/mol
DOCKED: USER
DOCKED: USER
DOCKED: REMARK  5 active torsions:
DOCKED: REMARK  status: ('A' for Active; 'I' for Inactive)
DOCKED: REMARK    1  A    between atoms: C_2  and  C_19 
DOCKED: REMARK    2  A    between atoms: C_2  and  C_11 
DOCKED: REMARK    3  A    between atoms: C_19  and  C_20 
DOCKED: REMARK    4  A    between atoms: C_20  and  C_21 
DOCKED: REMARK    5  A    between atoms: C_21  and  N_22 
DOCKED: USER                              x       y       z     vdW  Elec       q    Type
DOCKED: USER                           _______ _______ _______ _____ _____    ______ ____
DOCKED: ROOT
DOCKED: ATOM      1  O   UNL     1     -37.526 -15.313  12.467 -0.02 -0.00    -0.346 OA 
DOCKED: ATOM      2  C   UNL     1     -38.270 -14.678  11.379 -0.10 +0.00    +0.130 C  
DOCKED: ATOM      3  C   UNL     1     -38.875 -15.833  10.634 -0.22 +0.00    +0.004 A  
DOCKED: ATOM      4  C   UNL     1     -38.593 -17.017  11.301 -0.20 +0.00    +0.006 A  
DOCKED: ATOM      5  C   UNL     1     -37.806 -16.731  12.522 -0.10 +0.00    +0.169 C  
DOCKED: ATOM      6  C   UNL     1     -39.623 -15.835   9.467 -0.23 -0.00    -0.001 A  
DOCKED: ATOM      7  C   UNL     1     -39.043 -18.237  10.825 -0.29 +0.00    +0.008 A  
DOCKED: ATOM      8  C   UNL     1     -40.080 -17.057   8.971 -0.29 +0.00    +0.010 A  
DOCKED: ATOM      9  C   UNL     1     -39.792 -18.252   9.648 -0.30 +0.00    +0.068 A  
DOCKED: ATOM     10  N   UNL     1     -40.660 -20.503   8.704 -2.61 -0.00    -0.191 NA 
DOCKED: ATOM     11  C   UNL     1     -40.270 -19.494   9.127 -0.30 +0.00    +0.101 C  
DOCKED: ENDROOT
DOCKED: BRANCH   2  12
DOCKED: ATOM     12  C   UNL     1     -39.317 -13.751  11.986 -0.06 +0.00    +0.038 C  
DOCKED: BRANCH  12  13
DOCKED: ATOM     13  C   UNL     1     -40.172 -13.092  10.906 -0.14 +0.00    +0.038 C  
DOCKED: BRANCH  13  14
DOCKED: ATOM     14  C   UNL     1     -40.073 -11.570  10.979 -0.05 +0.00    +0.251 C  
DOCKED: BRANCH  14  15
DOCKED: ATOM     15  N   UNL     1     -39.064 -11.082  10.046 -0.06 +0.00    +0.141 N  
DOCKED: ATOM     16  C   UNL     1     -39.534 -11.207   8.665 -0.09 +0.00    +0.285 C  
DOCKED: ATOM     17  C   UNL     1     -38.720  -9.690  10.340 -0.01 +0.00    +0.285 C  
DOCKED: ENDBRANCH  14  15
DOCKED: ENDBRANCH  13  14
DOCKED: ENDBRANCH  12  13
DOCKED: ENDBRANCH   2  12
DOCKED: BRANCH   2  18
DOCKED: ATOM     18  C   UNL     1     -37.282 -13.913  10.563 -0.14 +0.00    +0.006 A  
DOCKED: ATOM     19  C   UNL     1     -36.412 -13.017  11.183 -0.05 +0.00    +0.001 A  
DOCKED: ATOM     20  C   UNL     1     -35.489 -12.302  10.419 -0.04 +0.00    +0.029 A  
DOCKED: ATOM     21  C   UNL     1     -35.437 -12.484   9.037 -0.06 +0.00    +0.140 A  
DOCKED: ATOM     22  C   UNL     1     -36.308 -13.380   8.418 -0.14 +0.00    +0.029 A  
DOCKED: ATOM     23  F   UNL     1     -34.549 -11.799   8.304 -0.00 -0.00    -0.204 F  
DOCKED: ATOM     24  C   UNL     1     -37.232 -14.096   9.182 -0.12 +0.00    +0.001 A  
DOCKED: ENDBRANCH   2  18
DOCKED: TORSDOF 5
DOCKED: TER
DOCKED: ENDMDL
________________________________________________________________________________


    FINAL DOCKED STATE:
    ________________________


Run:   254 / 512
Time taken for this run:   0.002s

DOCKED: MODEL        254
DOCKED: USER    Run = 254
DOCKED: USER
DOCKED: USER    Estimated Free Energy of Binding    =  -3.62 kcal/mol  [=(1)+(2)+(3)-(4)]
DOCKED: USER
DOCKED: USER    (1) Final Intermolecular Energy     =  -5.11 kcal/mol
DOCKED: USER        vdW + Hbond + desolv Energy     =  -5.11 kcal/mol
DOCKED: USER        Electrostatic Energy            =  +0.00 kcal/mol
DOCKED: USER        Moving Ligand-Fixed Receptor    =  -5.11 kcal/mol
DOCKED: USER        Moving Ligand-Moving Receptor   =  +0.00 kcal/mol
DOCKED: USER    (2) Final Total Internal Energy     =  -1.45 kcal/mol
DOCKED: USER    (3) Torsional Free Energy           =  +1.49 kcal/mol
DOCKED: USER    (4) Unbound System's Energy         =  -1.45 kcal/mol
DOCKED: USER
DOCKED: USER
DOCKED: REMARK  5 active torsions:
DOCKED: REMARK  status: ('A' for Active; 'I' for Inactive)
DOCKED: REMARK    1  A    between atoms: C_2  and  C_19 
DOCKED: REMARK    2  A    between atoms: C_2  and  C_11 
DOCKED: REMARK    3  A    between atoms: C_19  and  C_20 
DOCKED: REMARK    4  A    between atoms: C_20  and  C_21 
DOCKED: REMARK    5  A    between atoms: C_21  and  N_22 
DOCKED: USER                              x       y       z     vdW  Elec       q    Type
DOCKED: USER                           _______ _______ _______ _____ _____    ______ ____
DOCKED: ROOT
DOCKED: ATOM      1  O   UNL     1     -31.545  -5.704  -0.293 -0.00 -0.00    -0.346 OA 
DOCKED: ATOM      2  C   UNL     1     -32.092  -6.482   0.819 -0.05 +0.00    +0.130 C  
DOCKED: ATOM      3  C   UNL     1     -33.527  -6.699   0.434 -0.14 +0.00    +0.004 A  
DOCKED: ATOM      4  C   UNL     1     -33.752  -6.186  -0.836 -0.16 +0.00    +0.006 A  
DOCKED: ATOM      5  C   UNL     1     -32.498  -5.615  -1.376 -0.10 +0.00    +0.169 C  
DOCKED: ATOM      6  C   UNL     1     -34.549  -7.310   1.146 -0.20 -0.00    -0.001 A  
DOCKED: ATOM      7  C   UNL     1     -34.999  -6.262  -1.433 -0.25 +0.00    +0.008 A  
DOCKED: ATOM      8  C   UNL     1     -35.813  -7.391   0.559 -0.30 +0.00    +0.010 A  
DOCKED: ATOM      9  C   UNL     1     -36.036  -6.870  -0.724 -0.35 +0.00    +0.068 A  
DOCKED: ATOM     10  N   UNL     1     -38.393  -7.042  -1.787 -2.53 -0.00    -0.191 NA 
DOCKED: ATOM     11  C   UNL     1     -37.336  -6.964  -1.310 -0.39 +0.00    +0.101 C  
DOCKED: ENDROOT
DOCKED: BRANCH   2  12
DOCKED: ATOM     12  C   UNL     1     -31.305  -7.783   0.932 -0.03 +0.00    +0.038 C  
DOCKED: BRANCH  12  13
DOCKED: ATOM     13  C   UNL     1     -30.529  -8.077  -0.350 -0.01 +0.00    +0.038 C  
DOCKED: BRANCH  13  14
DOCKED: ATOM     14  C   UNL     1     -29.026  -7.908  -0.134 +0.00 +0.00    +0.251 C  
DOCKED: BRANCH  14  15
DOCKED: ATOM     15  N   UNL     1     -28.759  -6.707   0.649 -0.00 +0.00    +0.141 N  
DOCKED: ATOM     16  C   UNL     1     -27.636  -6.926   1.563 +0.00 +0.00    +0.285 C  
DOCKED: ATOM     17  C   UNL     1     -28.483  -5.569  -0.230 +0.00 +0.00    +0.285 C  
DOCKED: ENDBRANCH  14  15
DOCKED: ENDBRANCH  13  14
DOCKED: ENDBRANCH  12  13
DOCKED: ENDBRANCH   2  12
DOCKED: BRANCH   2  18
DOCKED: ATOM     18  C   UNL     1     -31.939  -5.652   2.050 -0.09 +0.00    +0.006 A  
DOCKED: ATOM     19  C   UNL     1     -30.874  -5.885   2.919 -0.05 +0.00    +0.001 A  
DOCKED: ATOM     20  C   UNL     1     -30.733  -5.108   4.070 -0.06 +0.00    +0.029 A  
DOCKED: ATOM     21  C   UNL     1     -31.655  -4.101   4.349 -0.07 +0.00    +0.140 A  
DOCKED: ATOM     22  C   UNL     1     -32.719  -3.868   3.479 -0.13 +0.00    +0.029 A  
DOCKED: ATOM     23  F   UNL     1     -31.518  -3.354   5.453 -0.03 -0.00    -0.204 F  
DOCKED: ATOM     24  C   UNL     1     -32.862  -4.645   2.328 -0.17 +0.00    +0.001 A  
DOCKED: ENDBRANCH   2  18
DOCKED: TORSDOF 5
DOCKED: TER
DOCKED: ENDMDL
________________________________________________________________________________


    FINAL DOCKED STATE:
    ________________________


Run:   255 / 512
Time taken for this run:   0.002s

DOCKED: MODEL        255
DOCKED: USER    Run = 255
DOCKED: USER
DOCKED: USER    Estimated Free Energy of Binding    =  -4.27 kcal/mol  [=(1)+(2)+(3)-(4)]
DOCKED: USER
DOCKED: USER    (1) Final Intermolecular Energy     =  -5.76 kcal/mol
DOCKED: USER        vdW + Hbond + desolv Energy     =  -5.76 kcal/mol
DOCKED: USER        Electrostatic Energy            =  +0.00 kcal/mol
DOCKED: USER        Moving Ligand-Fixed Receptor    =  -5.76 kcal/mol
DOCKED: USER        Moving Ligand-Moving Receptor   =  +0.00 kcal/mol
DOCKED: USER    (2) Final Total Internal Energy     =  -1.40 kcal/mol
DOCKED: USER    (3) Torsional Free Energy           =  +1.49 kcal/mol
DOCKED: USER    (4) Unbound System's Energy         =  -1.40 kcal/mol
DOCKED: USER
DOCKED: USER
DOCKED: REMARK  5 active torsions:
DOCKED: REMARK  status: ('A' for Active; 'I' for Inactive)
DOCKED: REMARK    1  A    between atoms: C_2  and  C_19 
DOCKED: REMARK    2  A    between atoms: C_2  and  C_11 
DOCKED: REMARK    3  A    between atoms: C_19  and  C_20 
DOCKED: REMARK    4  A    between atoms: C_20  and  C_21 
DOCKED: REMARK    5  A    between atoms: C_21  and  N_22 
DOCKED: USER                              x       y       z     vdW  Elec       q    Type
DOCKED: USER                           _______ _______ _______ _____ _____    ______ ____
DOCKED: ROOT
DOCKED: ATOM      1  O   UNL     1     -36.873 -15.600  11.841 -0.06 -0.00    -0.346 OA 
DOCKED: ATOM      2  C   UNL     1     -38.019 -14.917  11.238 -0.12 +0.00    +0.130 C  
DOCKED: ATOM      3  C   UNL     1     -38.749 -16.010  10.514 -0.23 +0.00    +0.004 A  
DOCKED: ATOM      4  C   UNL     1     -38.138 -17.230  10.771 -0.25 +0.00    +0.006 A  
DOCKED: ATOM      5  C   UNL     1     -36.986 -17.033  11.679 -0.17 +0.00    +0.169 C  
DOCKED: ATOM      6  C   UNL     1     -39.871 -15.934   9.703 -0.26 -0.00    -0.001 A  
DOCKED: ATOM      7  C   UNL     1     -38.621 -18.407  10.226 -0.34 +0.00    +0.008 A  
DOCKED: ATOM      8  C   UNL     1     -40.368 -17.112   9.142 -0.29 +0.00    +0.010 A  
DOCKED: ATOM      9  C   UNL     1     -39.746 -18.342   9.403 -0.32 +0.00    +0.068 A  
DOCKED: ATOM     10  N   UNL     1     -40.697 -20.510   8.350 -2.38 -0.00    -0.191 NA 
DOCKED: ATOM     11  C   UNL     1     -40.270 -19.538   8.822 -0.39 +0.00    +0.101 C  
DOCKED: ENDROOT
DOCKED: BRANCH   2  12
DOCKED: ATOM     12  C   UNL     1     -38.846 -14.287  12.353 -0.05 +0.00    +0.038 C  
DOCKED: BRANCH  12  13
DOCKED: ATOM     13  C   UNL     1     -39.686 -15.334  13.082 -0.04 +0.00    +0.038 C  
DOCKED: BRANCH  13  14
DOCKED: ATOM     14  C   UNL     1     -41.162 -15.211  12.709 -0.02 +0.00    +0.251 C  
DOCKED: BRANCH  14  15
DOCKED: ATOM     15  N   UNL     1     -41.659 -16.476  12.180 -0.05 +0.00    +0.141 N  
DOCKED: ATOM     16  C   UNL     1     -41.890 -17.433  13.263 -0.01 +0.00    +0.285 C  
DOCKED: ATOM     17  C   UNL     1     -42.890 -16.268  11.416 -0.06 +0.00    +0.285 C  
DOCKED: ENDBRANCH  14  15
DOCKED: ENDBRANCH  13  14
DOCKED: ENDBRANCH  12  13
DOCKED: ENDBRANCH   2  12
DOCKED: BRANCH   2  18
DOCKED: ATOM     18  C   UNL     1     -37.472 -13.875  10.320 -0.15 +0.00    +0.006 A  
DOCKED: ATOM     19  C   UNL     1     -36.255 -14.086   9.673 -0.14 +0.00    +0.001 A  
DOCKED: ATOM     20  C   UNL     1     -35.745 -13.111   8.815 -0.12 +0.00    +0.029 A  
DOCKED: ATOM     21  C   UNL     1     -36.452 -11.929   8.604 -0.07 +0.00    +0.140 A  
DOCKED: ATOM     22  C   UNL     1     -37.670 -11.719   9.251 -0.09 +0.00    +0.029 A  
DOCKED: ATOM     23  F   UNL     1     -35.963 -10.994   7.779 -0.01 -0.00    -0.204 F  
DOCKED: ATOM     24  C   UNL     1     -38.181 -12.693  10.110 -0.12 +0.00    +0.001 A  
DOCKED: ENDBRANCH   2  18
DOCKED: TORSDOF 5
DOCKED: TER
DOCKED: ENDMDL
________________________________________________________________________________


    FINAL DOCKED STATE:
    ________________________


Run:   256 / 512
Time taken for this run:   0.002s

DOCKED: MODEL        256
DOCKED: USER    Run = 256
DOCKED: USER
DOCKED: USER    Estimated Free Energy of Binding    =  -3.82 kcal/mol  [=(1)+(2)+(3)-(4)]
DOCKED: USER
DOCKED: USER    (1) Final Intermolecular Energy     =  -5.31 kcal/mol
DOCKED: USER        vdW + Hbond + desolv Energy     =  -5.31 kcal/mol
DOCKED: USER        Electrostatic Energy            =  +0.00 kcal/mol
DOCKED: USER        Moving Ligand-Fixed Receptor    =  -5.31 kcal/mol
DOCKED: USER        Moving Ligand-Moving Receptor   =  +0.00 kcal/mol
DOCKED: USER    (2) Final Total Internal Energy     =  -1.34 kcal/mol
DOCKED: USER    (3) Torsional Free Energy           =  +1.49 kcal/mol
DOCKED: USER    (4) Unbound System's Energy         =  -1.34 kcal/mol
DOCKED: USER
DOCKED: USER
DOCKED: REMARK  5 active torsions:
DOCKED: REMARK  status: ('A' for Active; 'I' for Inactive)
DOCKED: REMARK    1  A    between atoms: C_2  and  C_19 
DOCKED: REMARK    2  A    between atoms: C_2  and  C_11 
DOCKED: REMARK    3  A    between atoms: C_19  and  C_20 
DOCKED: REMARK    4  A    between atoms: C_20  and  C_21 
DOCKED: REMARK    5  A    between atoms: C_21  and  N_22 
DOCKED: USER                              x       y       z     vdW  Elec       q    Type
DOCKED: USER                           _______ _______ _______ _____ _____    ______ ____
DOCKED: ROOT
DOCKED: ATOM      1  O   UNL     1     -38.576 -14.474  11.629 -0.02 -0.00    -0.346 OA 
DOCKED: ATOM      2  C   UNL     1     -40.034 -14.541  11.729 -0.08 +0.00    +0.130 C  
DOCKED: ATOM      3  C   UNL     1     -40.385 -15.817  11.020 -0.16 +0.00    +0.004 A  
DOCKED: ATOM      4  C   UNL     1     -39.223 -16.477  10.645 -0.23 +0.00    +0.006 A  
DOCKED: ATOM      5  C   UNL     1     -38.041 -15.702  11.084 -0.15 +0.00    +0.169 C  
DOCKED: ATOM      6  C   UNL     1     -41.632 -16.356  10.739 -0.19 -0.00    -0.001 A  
DOCKED: ATOM      7  C   UNL     1     -39.267 -17.689   9.976 -0.32 +0.00    +0.008 A  
DOCKED: ATOM      8  C   UNL     1     -41.692 -17.575  10.062 -0.23 +0.00    +0.010 A  
DOCKED: ATOM      9  C   UNL     1     -40.516 -18.238   9.683 -0.26 +0.00    +0.068 A  
DOCKED: ATOM     10  N   UNL     1     -40.664 -20.502   8.432 -2.43 -0.00    -0.191 NA 
DOCKED: ATOM     11  C   UNL     1     -40.597 -19.486   8.992 -0.36 +0.00    +0.101 C  
DOCKED: ENDROOT
DOCKED: BRANCH   2  12
DOCKED: ATOM     12  C   UNL     1     -40.417 -14.558  13.204 -0.03 +0.00    +0.038 C  
DOCKED: BRANCH  12  13
DOCKED: ATOM     13  C   UNL     1     -39.978 -15.856  13.879 -0.03 +0.00    +0.038 C  
DOCKED: BRANCH  13  14
DOCKED: ATOM     14  C   UNL     1     -38.598 -15.704  14.517 -0.01 +0.00    +0.251 C  
DOCKED: BRANCH  14  15
DOCKED: ATOM     15  N   UNL     1     -37.664 -16.664  13.939 -0.04 +0.00    +0.141 N  
DOCKED: ATOM     16  C   UNL     1     -36.294 -16.368  14.361 -0.03 +0.00    +0.285 C  
DOCKED: ATOM     17  C   UNL     1     -38.028 -18.030  14.319 -0.07 +0.00    +0.285 C  
DOCKED: ENDBRANCH  14  15
DOCKED: ENDBRANCH  13  14
DOCKED: ENDBRANCH  12  13
DOCKED: ENDBRANCH   2  12
DOCKED: BRANCH   2  18
DOCKED: ATOM     18  C   UNL     1     -40.575 -13.329  11.046 -0.13 +0.00    +0.006 A  
DOCKED: ATOM     19  C   UNL     1     -40.174 -13.025   9.746 -0.17 +0.00    +0.001 A  
DOCKED: ATOM     20  C   UNL     1     -40.680 -11.891   9.109 -0.13 +0.00    +0.029 A  
DOCKED: ATOM     21  C   UNL     1     -41.585 -11.064   9.773 -0.11 +0.00    +0.140 A  
DOCKED: ATOM     22  C   UNL     1     -41.986 -11.369  11.073 -0.07 +0.00    +0.029 A  
DOCKED: ATOM     23  F   UNL     1     -42.072  -9.977   9.160 -0.01 -0.00    -0.204 F  
DOCKED: ATOM     24  C   UNL     1     -41.480 -12.503  11.711 -0.06 +0.00    +0.001 A  
DOCKED: ENDBRANCH   2  18
DOCKED: TORSDOF 5
DOCKED: TER
DOCKED: ENDMDL
________________________________________________________________________________


    FINAL DOCKED STATE:
    ________________________


Run:   257 / 512
Time taken for this run:   0.002s

DOCKED: MODEL        257
DOCKED: USER    Run = 257
DOCKED: USER
DOCKED: USER    Estimated Free Energy of Binding    =  -4.90 kcal/mol  [=(1)+(2)+(3)-(4)]
DOCKED: USER
DOCKED: USER    (1) Final Intermolecular Energy     =  -6.39 kcal/mol
DOCKED: USER        vdW + Hbond + desolv Energy     =  -6.39 kcal/mol
DOCKED: USER        Electrostatic Energy            =  +0.00 kcal/mol
DOCKED: USER        Moving Ligand-Fixed Receptor    =  -6.39 kcal/mol
DOCKED: USER        Moving Ligand-Moving Receptor   =  +0.00 kcal/mol
DOCKED: USER    (2) Final Total Internal Energy     =  -1.32 kcal/mol
DOCKED: USER    (3) Torsional Free Energy           =  +1.49 kcal/mol
DOCKED: USER    (4) Unbound System's Energy         =  -1.32 kcal/mol
DOCKED: USER
DOCKED: USER
DOCKED: REMARK  5 active torsions:
DOCKED: REMARK  status: ('A' for Active; 'I' for Inactive)
DOCKED: REMARK    1  A    between atoms: C_2  and  C_19 
DOCKED: REMARK    2  A    between atoms: C_2  and  C_11 
DOCKED: REMARK    3  A    between atoms: C_19  and  C_20 
DOCKED: REMARK    4  A    between atoms: C_20  and  C_21 
DOCKED: REMARK    5  A    between atoms: C_21  and  N_22 
DOCKED: USER                              x       y       z     vdW  Elec       q    Type
DOCKED: USER                           _______ _______ _______ _____ _____    ______ ____
DOCKED: ROOT
DOCKED: ATOM      1  O   UNL     1     -41.875 -16.616  11.571 -0.01 -0.00    -0.346 OA 
DOCKED: ATOM      2  C   UNL     1     -40.453 -16.883  11.352 -0.12 +0.00    +0.130 C  
DOCKED: ATOM      3  C   UNL     1     -40.407 -17.483   9.977 -0.27 +0.00    +0.004 A  
DOCKED: ATOM      4  C   UNL     1     -41.675 -17.459   9.414 -0.24 +0.00    +0.006 A  
DOCKED: ATOM      5  C   UNL     1     -42.632 -16.840  10.359 -0.17 +0.00    +0.169 C  
DOCKED: ATOM      6  C   UNL     1     -39.327 -17.997   9.275 -0.36 -0.00    -0.001 A  
DOCKED: ATOM      7  C   UNL     1     -41.908 -17.950   8.141 -0.02 +0.00    +0.008 A  
DOCKED: ATOM      8  C   UNL     1     -39.546 -18.500   7.991 -0.27 +0.00    +0.010 A  
DOCKED: ATOM      9  C   UNL     1     -40.831 -18.476   7.427 -0.38 +0.00    +0.068 A  
DOCKED: ATOM     10  N   UNL     1     -41.202 -19.413   5.040 -2.62 -0.00    -0.191 NA 
DOCKED: ATOM     11  C   UNL     1     -41.036 -18.993   6.111 -0.29 +0.00    +0.101 C  
DOCKED: ENDROOT
DOCKED: BRANCH   2  12
DOCKED: ATOM     12  C   UNL     1     -39.694 -15.565  11.450 -0.13 +0.00    +0.038 C  
DOCKED: BRANCH  12  13
DOCKED: ATOM     13  C   UNL     1     -39.885 -14.717  10.194 -0.23 +0.00    +0.038 C  
DOCKED: BRANCH  13  14
DOCKED: ATOM     14  C   UNL     1     -40.459 -13.344  10.539 -0.14 +0.00    +0.251 C  
DOCKED: BRANCH  14  15
DOCKED: ATOM     15  N   UNL     1     -41.903 -13.430  10.724 -0.15 +0.00    +0.141 N  
DOCKED: ATOM     16  C   UNL     1     -42.259 -13.193  12.123 -0.02 +0.00    +0.285 C  
DOCKED: ATOM     17  C   UNL     1     -42.592 -12.474   9.855 -0.14 +0.00    +0.285 C  
DOCKED: ENDBRANCH  14  15
DOCKED: ENDBRANCH  13  14
DOCKED: ENDBRANCH  12  13
DOCKED: ENDBRANCH   2  12
DOCKED: BRANCH   2  18
DOCKED: ATOM     18  C   UNL     1     -40.019 -17.834  12.416 -0.12 +0.00    +0.006 A  
DOCKED: ATOM     19  C   UNL     1     -38.760 -17.698  13.002 -0.13 +0.00    +0.001 A  
DOCKED: ATOM     20  C   UNL     1     -38.356 -18.589  13.996 -0.16 +0.00    +0.029 A  
DOCKED: ATOM     21  C   UNL     1     -39.209 -19.613  14.405 -0.17 +0.00    +0.140 A  
DOCKED: ATOM     22  C   UNL     1     -40.467 -19.749  13.819 -0.00 +0.00    +0.029 A  
DOCKED: ATOM     23  F   UNL     1     -38.820 -20.467  15.361 -0.09 -0.00    -0.204 F  
DOCKED: ATOM     24  C   UNL     1     -40.873 -18.858  12.823 -0.17 +0.00    +0.001 A  
DOCKED: ENDBRANCH   2  18
DOCKED: TORSDOF 5
DOCKED: TER
DOCKED: ENDMDL
________________________________________________________________________________


    FINAL DOCKED STATE:
    ________________________


Run:   258 / 512
Time taken for this run:   0.002s

DOCKED: MODEL        258
DOCKED: USER    Run = 258
DOCKED: USER
DOCKED: USER    Estimated Free Energy of Binding    =  -3.38 kcal/mol  [=(1)+(2)+(3)-(4)]
DOCKED: USER
DOCKED: USER    (1) Final Intermolecular Energy     =  -4.87 kcal/mol
DOCKED: USER        vdW + Hbond + desolv Energy     =  -4.87 kcal/mol
DOCKED: USER        Electrostatic Energy            =  +0.00 kcal/mol
DOCKED: USER        Moving Ligand-Fixed Receptor    =  -4.87 kcal/mol
DOCKED: USER        Moving Ligand-Moving Receptor   =  +0.00 kcal/mol
DOCKED: USER    (2) Final Total Internal Energy     =  -1.52 kcal/mol
DOCKED: USER    (3) Torsional Free Energy           =  +1.49 kcal/mol
DOCKED: USER    (4) Unbound System's Energy         =  -1.52 kcal/mol
DOCKED: USER
DOCKED: USER
DOCKED: REMARK  5 active torsions:
DOCKED: REMARK  status: ('A' for Active; 'I' for Inactive)
DOCKED: REMARK    1  A    between atoms: C_2  and  C_19 
DOCKED: REMARK    2  A    between atoms: C_2  and  C_11 
DOCKED: REMARK    3  A    between atoms: C_19  and  C_20 
DOCKED: REMARK    4  A    between atoms: C_20  and  C_21 
DOCKED: REMARK    5  A    between atoms: C_21  and  N_22 
DOCKED: USER                              x       y       z     vdW  Elec       q    Type
DOCKED: USER                           _______ _______ _______ _____ _____    ______ ____
DOCKED: ROOT
DOCKED: ATOM      1  O   UNL     1     -41.349 -14.223  11.635 -0.02 -0.00    -0.346 OA 
DOCKED: ATOM      2  C   UNL     1     -39.920 -14.466  11.439 -0.10 +0.00    +0.130 C  
DOCKED: ATOM      3  C   UNL     1     -39.872 -15.805  10.763 -0.19 +0.00    +0.004 A  
DOCKED: ATOM      4  C   UNL     1     -41.162 -16.240  10.495 -0.21 +0.00    +0.006 A  
DOCKED: ATOM      5  C   UNL     1     -42.139 -15.228  10.957 -0.15 +0.00    +0.169 C  
DOCKED: ATOM      6  C   UNL     1     -38.774 -16.573  10.402 -0.26 -0.00    -0.001 A  
DOCKED: ATOM      7  C   UNL     1     -41.399 -17.450   9.867 -0.24 +0.00    +0.008 A  
DOCKED: ATOM      8  C   UNL     1     -38.996 -17.798   9.772 -0.32 +0.00    +0.010 A  
DOCKED: ATOM      9  C   UNL     1     -40.303 -18.234   9.505 -0.28 +0.00    +0.068 A  
DOCKED: ATOM     10  N   UNL     1     -40.681 -20.511   8.328 -2.35 -0.00    -0.191 NA 
DOCKED: ATOM     11  C   UNL     1     -40.511 -19.490   8.856 -0.39 +0.00    +0.101 C  
DOCKED: ENDROOT
DOCKED: BRANCH   2  12
DOCKED: ATOM     12  C   UNL     1     -39.354 -13.345  10.576 -0.16 +0.00    +0.038 C  
DOCKED: BRANCH  12  13
DOCKED: ATOM     13  C   UNL     1     -39.404 -12.002  11.303 -0.06 +0.00    +0.038 C  
DOCKED: BRANCH  13  14
DOCKED: ATOM     14  C   UNL     1     -40.801 -11.390  11.230 -0.04 +0.00    +0.251 C  
DOCKED: BRANCH  14  15
DOCKED: ATOM     15  N   UNL     1     -41.165 -10.801  12.513 -0.01 +0.00    +0.141 N  
DOCKED: ATOM     16  C   UNL     1     -42.312 -11.500  13.095 -0.00 +0.00    +0.285 C  
DOCKED: ATOM     17  C   UNL     1     -40.029 -10.835  13.436 -0.00 +0.00    +0.285 C  
DOCKED: ENDBRANCH  14  15
DOCKED: ENDBRANCH  13  14
DOCKED: ENDBRANCH  12  13
DOCKED: ENDBRANCH   2  12
DOCKED: BRANCH   2  18
DOCKED: ATOM     18  C   UNL     1     -39.289 -14.475  12.792 -0.03 +0.00    +0.006 A  
DOCKED: ATOM     19  C   UNL     1     -40.086 -14.399  13.933 -0.01 +0.00    +0.001 A  
DOCKED: ATOM     20  C   UNL     1     -39.495 -14.406  15.197 -0.00 +0.00    +0.029 A  
DOCKED: ATOM     21  C   UNL     1     -38.109 -14.491  15.318 -0.00 +0.00    +0.140 A  
DOCKED: ATOM     22  C   UNL     1     -37.312 -14.567  14.176 -0.01 +0.00    +0.029 A  
DOCKED: ATOM     23  F   UNL     1     -37.542 -14.500  16.531 +0.00 -0.00    -0.204 F  
DOCKED: ATOM     24  C   UNL     1     -37.902 -14.559  12.911 -0.03 +0.00    +0.001 A  
DOCKED: ENDBRANCH   2  18
DOCKED: TORSDOF 5
DOCKED: TER
DOCKED: ENDMDL
________________________________________________________________________________


    FINAL DOCKED STATE:
    ________________________


Run:   259 / 512
Time taken for this run:   0.002s

DOCKED: MODEL        259
DOCKED: USER    Run = 259
DOCKED: USER
DOCKED: USER    Estimated Free Energy of Binding    =  -5.08 kcal/mol  [=(1)+(2)+(3)-(4)]
DOCKED: USER
DOCKED: USER    (1) Final Intermolecular Energy     =  -6.57 kcal/mol
DOCKED: USER        vdW + Hbond + desolv Energy     =  -6.57 kcal/mol
DOCKED: USER        Electrostatic Energy            =  +0.00 kcal/mol
DOCKED: USER        Moving Ligand-Fixed Receptor    =  -6.57 kcal/mol
DOCKED: USER        Moving Ligand-Moving Receptor   =  +0.00 kcal/mol
DOCKED: USER    (2) Final Total Internal Energy     =  -1.26 kcal/mol
DOCKED: USER    (3) Torsional Free Energy           =  +1.49 kcal/mol
DOCKED: USER    (4) Unbound System's Energy         =  -1.26 kcal/mol
DOCKED: USER
DOCKED: USER
DOCKED: REMARK  5 active torsions:
DOCKED: REMARK  status: ('A' for Active; 'I' for Inactive)
DOCKED: REMARK    1  A    between atoms: C_2  and  C_19 
DOCKED: REMARK    2  A    between atoms: C_2  and  C_11 
DOCKED: REMARK    3  A    between atoms: C_19  and  C_20 
DOCKED: REMARK    4  A    between atoms: C_20  and  C_21 
DOCKED: REMARK    5  A    between atoms: C_21  and  N_22 
DOCKED: USER                              x       y       z     vdW  Elec       q    Type
DOCKED: USER                           _______ _______ _______ _____ _____    ______ ____
DOCKED: ROOT
DOCKED: ATOM      1  O   UNL     1     -39.406 -16.109  11.066 -0.05 -0.00    -0.346 OA 
DOCKED: ATOM      2  C   UNL     1     -38.757 -17.420  11.082 -0.22 +0.00    +0.130 C  
DOCKED: ATOM      3  C   UNL     1     -39.223 -18.068   9.810 -0.34 +0.00    +0.004 A  
DOCKED: ATOM      4  C   UNL     1     -39.981 -17.166   9.077 -0.34 +0.00    +0.006 A  
DOCKED: ATOM      5  C   UNL     1     -40.059 -15.875   9.796 -0.22 +0.00    +0.169 C  
DOCKED: ATOM      6  C   UNL     1     -38.984 -19.349   9.334 -0.42 -0.00    -0.001 A  
DOCKED: ATOM      7  C   UNL     1     -40.529 -17.512   7.854 +0.09 +0.00    +0.008 A  
DOCKED: ATOM      8  C   UNL     1     -39.533 -19.714   8.103 -0.44 +0.00    +0.010 A  
DOCKED: ATOM      9  C   UNL     1     -40.301 -18.800   7.367 -0.45 +0.00    +0.068 A  
DOCKED: ATOM     10  N   UNL     1     -41.301 -19.509   5.084 -2.52 -0.00    -0.191 NA 
DOCKED: ATOM     11  C   UNL     1     -40.853 -19.191   6.108 -0.36 +0.00    +0.101 C  
DOCKED: ENDROOT
DOCKED: BRANCH   2  12
DOCKED: ATOM     12  C   UNL     1     -37.248 -17.211  11.123 -0.17 +0.00    +0.038 C  
DOCKED: BRANCH  12  13
DOCKED: ATOM     13  C   UNL     1     -36.812 -16.561  12.435 -0.15 +0.00    +0.038 C  
DOCKED: BRANCH  13  14
DOCKED: ATOM     14  C   UNL     1     -35.748 -17.403  13.138 -0.08 +0.00    +0.251 C  
DOCKED: BRANCH  14  15
DOCKED: ATOM     15  N   UNL     1     -35.846 -17.240  14.583 -0.06 +0.00    +0.141 N  
DOCKED: ATOM     16  C   UNL     1     -35.096 -16.063  15.022 -0.01 +0.00    +0.285 C  
DOCKED: ATOM     17  C   UNL     1     -37.247 -17.133  14.996 -0.03 +0.00    +0.285 C  
DOCKED: ENDBRANCH  14  15
DOCKED: ENDBRANCH  13  14
DOCKED: ENDBRANCH  12  13
DOCKED: ENDBRANCH   2  12
DOCKED: BRANCH   2  18
DOCKED: ATOM     18  C   UNL     1     -39.236 -18.129  12.305 -0.17 +0.00    +0.006 A  
DOCKED: ATOM     19  C   UNL     1     -38.714 -19.379  12.635 -0.17 +0.00    +0.001 A  
DOCKED: ATOM     20  C   UNL     1     -39.163 -20.041  13.778 -0.14 +0.00    +0.029 A  
DOCKED: ATOM     21  C   UNL     1     -40.132 -19.453  14.589 -0.11 +0.00    +0.140 A  
DOCKED: ATOM     22  C   UNL     1     -40.653 -18.202  14.259 -0.09 +0.00    +0.029 A  
DOCKED: ATOM     23  F   UNL     1     -40.561 -20.087  15.688 -0.03 -0.00    -0.204 F  
DOCKED: ATOM     24  C   UNL     1     -40.205 -17.539  13.115 -0.09 +0.00    +0.001 A  
DOCKED: ENDBRANCH   2  18
DOCKED: TORSDOF 5
DOCKED: TER
DOCKED: ENDMDL
________________________________________________________________________________


    FINAL DOCKED STATE:
    ________________________


Run:   260 / 512
Time taken for this run:   0.002s

DOCKED: MODEL        260
DOCKED: USER    Run = 260
DOCKED: USER
DOCKED: USER    Estimated Free Energy of Binding    =  -3.99 kcal/mol  [=(1)+(2)+(3)-(4)]
DOCKED: USER
DOCKED: USER    (1) Final Intermolecular Energy     =  -5.49 kcal/mol
DOCKED: USER        vdW + Hbond + desolv Energy     =  -5.49 kcal/mol
DOCKED: USER        Electrostatic Energy            =  +0.00 kcal/mol
DOCKED: USER        Moving Ligand-Fixed Receptor    =  -5.49 kcal/mol
DOCKED: USER        Moving Ligand-Moving Receptor   =  +0.00 kcal/mol
DOCKED: USER    (2) Final Total Internal Energy     =  -1.33 kcal/mol
DOCKED: USER    (3) Torsional Free Energy           =  +1.49 kcal/mol
DOCKED: USER    (4) Unbound System's Energy         =  -1.33 kcal/mol
DOCKED: USER
DOCKED: USER
DOCKED: REMARK  5 active torsions:
DOCKED: REMARK  status: ('A' for Active; 'I' for Inactive)
DOCKED: REMARK    1  A    between atoms: C_2  and  C_19 
DOCKED: REMARK    2  A    between atoms: C_2  and  C_11 
DOCKED: REMARK    3  A    between atoms: C_19  and  C_20 
DOCKED: REMARK    4  A    between atoms: C_20  and  C_21 
DOCKED: REMARK    5  A    between atoms: C_21  and  N_22 
DOCKED: USER                              x       y       z     vdW  Elec       q    Type
DOCKED: USER                           _______ _______ _______ _____ _____    ______ ____
DOCKED: ROOT
DOCKED: ATOM      1  O   UNL     1     -32.413 -10.423   0.118 +0.01 -0.00    -0.346 OA 
DOCKED: ATOM      2  C   UNL     1     -33.307 -10.249   1.263 -0.05 +0.00    +0.130 C  
DOCKED: ATOM      3  C   UNL     1     -34.441  -9.433   0.712 -0.15 +0.00    +0.004 A  
DOCKED: ATOM      4  C   UNL     1     -34.266  -9.251  -0.652 -0.15 +0.00    +0.006 A  
DOCKED: ATOM      5  C   UNL     1     -33.030  -9.934  -1.095 -0.06 +0.00    +0.169 C  
DOCKED: ATOM      6  C   UNL     1     -35.545  -8.904   1.365 -0.24 -0.00    -0.001 A  
DOCKED: ATOM      7  C   UNL     1     -35.180  -8.535  -1.407 -0.23 +0.00    +0.008 A  
DOCKED: ATOM      8  C   UNL     1     -36.473  -8.176   0.619 -0.35 +0.00    +0.010 A  
DOCKED: ATOM      9  C   UNL     1     -36.292  -7.993  -0.760 -0.25 +0.00    +0.068 A  
DOCKED: ATOM     10  N   UNL     1     -38.036  -6.640  -2.117 -2.54 -0.00    -0.191 NA 
DOCKED: ATOM     11  C   UNL     1     -37.253  -7.246  -1.508 -0.36 +0.00    +0.101 C  
DOCKED: ENDROOT
DOCKED: BRANCH   2  12
DOCKED: ATOM     12  C   UNL     1     -33.747 -11.626   1.746 -0.09 +0.00    +0.038 C  
DOCKED: BRANCH  12  13
DOCKED: ATOM     13  C   UNL     1     -35.100 -12.017   1.156 -0.23 +0.00    +0.038 C  
DOCKED: BRANCH  13  14
DOCKED: ATOM     14  C   UNL     1     -34.972 -13.241   0.251 -0.15 +0.00    +0.251 C  
DOCKED: BRANCH  14  15
DOCKED: ATOM     15  N   UNL     1     -33.695 -13.219  -0.453 -0.14 +0.00    +0.141 N  
DOCKED: ATOM     16  C   UNL     1     -32.817 -14.282   0.040 -0.10 +0.00    +0.285 C  
DOCKED: ATOM     17  C   UNL     1     -33.899 -13.357  -1.896 -0.13 +0.00    +0.285 C  
DOCKED: ENDBRANCH  14  15
DOCKED: ENDBRANCH  13  14
DOCKED: ENDBRANCH  12  13
DOCKED: ENDBRANCH   2  12
DOCKED: BRANCH   2  18
DOCKED: ATOM     18  C   UNL     1     -32.532  -9.530   2.317 -0.04 +0.00    +0.006 A  
DOCKED: ATOM     19  C   UNL     1     -32.530  -8.137   2.352 -0.08 +0.00    +0.001 A  
DOCKED: ATOM     20  C   UNL     1     -31.805  -7.466   3.337 -0.09 +0.00    +0.029 A  
DOCKED: ATOM     21  C   UNL     1     -31.084  -8.190   4.286 -0.04 +0.00    +0.140 A  
DOCKED: ATOM     22  C   UNL     1     -31.086  -9.584   4.250 -0.02 +0.00    +0.029 A  
DOCKED: ATOM     23  F   UNL     1     -30.389  -7.546   5.233 -0.01 -0.00    -0.204 F  
DOCKED: ATOM     24  C   UNL     1     -31.811 -10.256   3.265 -0.02 +0.00    +0.001 A  
DOCKED: ENDBRANCH   2  18
DOCKED: TORSDOF 5
DOCKED: TER
DOCKED: ENDMDL
________________________________________________________________________________


    FINAL DOCKED STATE:
    ________________________


Run:   261 / 512
Time taken for this run:   0.002s

DOCKED: MODEL        261
DOCKED: USER    Run = 261
DOCKED: USER
DOCKED: USER    Estimated Free Energy of Binding    =  -3.95 kcal/mol  [=(1)+(2)+(3)-(4)]
DOCKED: USER
DOCKED: USER    (1) Final Intermolecular Energy     =  -5.44 kcal/mol
DOCKED: USER        vdW + Hbond + desolv Energy     =  -5.44 kcal/mol
DOCKED: USER        Electrostatic Energy            =  +0.00 kcal/mol
DOCKED: USER        Moving Ligand-Fixed Receptor    =  -5.44 kcal/mol
DOCKED: USER        Moving Ligand-Moving Receptor   =  +0.00 kcal/mol
DOCKED: USER    (2) Final Total Internal Energy     =  -1.50 kcal/mol
DOCKED: USER    (3) Torsional Free Energy           =  +1.49 kcal/mol
DOCKED: USER    (4) Unbound System's Energy         =  -1.50 kcal/mol
DOCKED: USER
DOCKED: USER
DOCKED: REMARK  5 active torsions:
DOCKED: REMARK  status: ('A' for Active; 'I' for Inactive)
DOCKED: REMARK    1  A    between atoms: C_2  and  C_19 
DOCKED: REMARK    2  A    between atoms: C_2  and  C_11 
DOCKED: REMARK    3  A    between atoms: C_19  and  C_20 
DOCKED: REMARK    4  A    between atoms: C_20  and  C_21 
DOCKED: REMARK    5  A    between atoms: C_21  and  N_22 
DOCKED: USER                              x       y       z     vdW  Elec       q    Type
DOCKED: USER                           _______ _______ _______ _____ _____    ______ ____
DOCKED: ROOT
DOCKED: ATOM      1  O   UNL     1     -30.815 -17.494   1.869 -0.00 -0.00    -0.346 OA 
DOCKED: ATOM      2  C   UNL     1     -31.212 -16.475   2.841 -0.07 +0.00    +0.130 C  
DOCKED: ATOM      3  C   UNL     1     -31.786 -17.269   3.979 -0.11 +0.00    +0.004 A  
DOCKED: ATOM      4  C   UNL     1     -31.630 -18.625   3.728 -0.13 +0.00    +0.006 A  
DOCKED: ATOM      5  C   UNL     1     -30.941 -18.820   2.433 -0.08 +0.00    +0.169 C  
DOCKED: ATOM      6  C   UNL     1     -32.388 -16.826   5.148 -0.14 -0.00    -0.001 A  
DOCKED: ATOM      7  C   UNL     1     -32.071 -19.579   4.629 -0.24 +0.00    +0.008 A  
DOCKED: ATOM      8  C   UNL     1     -32.842 -17.776   6.064 -0.25 +0.00    +0.010 A  
DOCKED: ATOM      9  C   UNL     1     -32.684 -19.146   5.805 -0.29 +0.00    +0.068 A  
DOCKED: ATOM     10  N   UNL     1     -33.533 -20.884   7.529 -2.66 -0.00    -0.191 NA 
DOCKED: ATOM     11  C   UNL     1     -33.153 -20.105   6.756 -0.41 +0.00    +0.101 C  
DOCKED: ENDROOT
DOCKED: BRANCH   2  12
DOCKED: ATOM     12  C   UNL     1     -29.975 -15.679   3.238 -0.01 +0.00    +0.038 C  
DOCKED: BRANCH  12  13
DOCKED: ATOM     13  C   UNL     1     -29.516 -14.761   2.106 -0.00 +0.00    +0.038 C  
DOCKED: BRANCH  13  14
DOCKED: ATOM     14  C   UNL     1     -28.688 -15.530   1.078 +0.00 +0.00    +0.251 C  
DOCKED: BRANCH  14  15
DOCKED: ATOM     15  N   UNL     1     -29.031 -15.100  -0.273 -0.00 +0.00    +0.141 N  
DOCKED: ATOM     16  C   UNL     1     -29.645 -16.196  -1.024 -0.00 +0.00    +0.285 C  
DOCKED: ATOM     17  C   UNL     1     -29.930 -13.945  -0.234 +0.00 +0.00    +0.285 C  
DOCKED: ENDBRANCH  14  15
DOCKED: ENDBRANCH  13  14
DOCKED: ENDBRANCH  12  13
DOCKED: ENDBRANCH   2  12
DOCKED: BRANCH   2  18
DOCKED: ATOM     18  C   UNL     1     -32.222 -15.604   2.172 -0.11 +0.00    +0.006 A  
DOCKED: ATOM     19  C   UNL     1     -32.796 -14.542   2.869 -0.11 +0.00    +0.001 A  
DOCKED: ATOM     20  C   UNL     1     -33.741 -13.728   2.242 -0.15 +0.00    +0.029 A  
DOCKED: ATOM     21  C   UNL     1     -34.109 -13.976   0.921 -0.19 +0.00    +0.140 A  
DOCKED: ATOM     22  C   UNL     1     -33.533 -15.039   0.224 -0.21 +0.00    +0.029 A  
DOCKED: ATOM     23  F   UNL     1     -35.014 -13.194   0.319 -0.12 -0.00    -0.204 F  
DOCKED: ATOM     24  C   UNL     1     -32.589 -15.854   0.850 -0.14 +0.00    +0.001 A  
DOCKED: ENDBRANCH   2  18
DOCKED: TORSDOF 5
DOCKED: TER
DOCKED: ENDMDL
________________________________________________________________________________


    FINAL DOCKED STATE:
    ________________________


Run:   262 / 512
Time taken for this run:   0.002s

DOCKED: MODEL        262
DOCKED: USER    Run = 262
DOCKED: USER
DOCKED: USER    Estimated Free Energy of Binding    =  -4.02 kcal/mol  [=(1)+(2)+(3)-(4)]
DOCKED: USER
DOCKED: USER    (1) Final Intermolecular Energy     =  -5.52 kcal/mol
DOCKED: USER        vdW + Hbond + desolv Energy     =  -5.52 kcal/mol
DOCKED: USER        Electrostatic Energy            =  +0.00 kcal/mol
DOCKED: USER        Moving Ligand-Fixed Receptor    =  -5.52 kcal/mol
DOCKED: USER        Moving Ligand-Moving Receptor   =  +0.00 kcal/mol
DOCKED: USER    (2) Final Total Internal Energy     =  -1.39 kcal/mol
DOCKED: USER    (3) Torsional Free Energy           =  +1.49 kcal/mol
DOCKED: USER    (4) Unbound System's Energy         =  -1.39 kcal/mol
DOCKED: USER
DOCKED: USER
DOCKED: REMARK  5 active torsions:
DOCKED: REMARK  status: ('A' for Active; 'I' for Inactive)
DOCKED: REMARK    1  A    between atoms: C_2  and  C_19 
DOCKED: REMARK    2  A    between atoms: C_2  and  C_11 
DOCKED: REMARK    3  A    between atoms: C_19  and  C_20 
DOCKED: REMARK    4  A    between atoms: C_20  and  C_21 
DOCKED: REMARK    5  A    between atoms: C_21  and  N_22 
DOCKED: USER                              x       y       z     vdW  Elec       q    Type
DOCKED: USER                           _______ _______ _______ _____ _____    ______ ____
DOCKED: ROOT
DOCKED: ATOM      1  O   UNL     1     -30.627 -18.228   1.601 -0.01 -0.00    -0.346 OA 
DOCKED: ATOM      2  C   UNL     1     -31.075 -17.097   2.413 -0.08 +0.00    +0.130 C  
DOCKED: ATOM      3  C   UNL     1     -31.686 -17.742   3.623 -0.12 +0.00    +0.004 A  
DOCKED: ATOM      4  C   UNL     1     -31.505 -19.117   3.561 -0.14 +0.00    +0.006 A  
DOCKED: ATOM      5  C   UNL     1     -30.761 -19.470   2.331 -0.07 +0.00    +0.169 C  
DOCKED: ATOM      6  C   UNL     1     -32.341 -17.159   4.698 -0.15 -0.00    -0.001 A  
DOCKED: ATOM      7  C   UNL     1     -31.971 -19.951   4.562 -0.25 +0.00    +0.008 A  
DOCKED: ATOM      8  C   UNL     1     -32.821 -17.988   5.714 -0.26 +0.00    +0.010 A  
DOCKED: ATOM      9  C   UNL     1     -32.637 -19.377   5.646 -0.29 +0.00    +0.068 A  
DOCKED: ATOM     10  N   UNL     1     -33.536 -20.886   7.550 -2.67 -0.00    -0.191 NA 
DOCKED: ATOM     11  C   UNL     1     -33.133 -20.209   6.696 -0.40 +0.00    +0.101 C  
DOCKED: ENDROOT
DOCKED: BRANCH   2  12
DOCKED: ATOM     12  C   UNL     1     -29.864 -16.234   2.749 -0.01 +0.00    +0.038 C  
DOCKED: BRANCH  12  13
DOCKED: ATOM     13  C   UNL     1     -29.080 -15.862   1.493 -0.00 +0.00    +0.038 C  
DOCKED: BRANCH  13  14
DOCKED: ATOM     14  C   UNL     1     -27.654 -16.407   1.554 -0.00 +0.00    +0.251 C  
DOCKED: BRANCH  14  15
DOCKED: ATOM     15  N   UNL     1     -27.475 -17.472   0.574 -0.00 +0.00    +0.141 N  
DOCKED: ATOM     16  C   UNL     1     -27.599 -18.784   1.211 -0.00 +0.00    +0.285 C  
DOCKED: ATOM     17  C   UNL     1     -28.447 -17.341  -0.512 -0.00 +0.00    +0.285 C  
DOCKED: ENDBRANCH  14  15
DOCKED: ENDBRANCH  13  14
DOCKED: ENDBRANCH  12  13
DOCKED: ENDBRANCH   2  12
DOCKED: BRANCH   2  18
DOCKED: ATOM     18  C   UNL     1     -32.066 -16.338   1.596 -0.12 +0.00    +0.006 A  
DOCKED: ATOM     19  C   UNL     1     -32.307 -16.707   0.273 -0.13 +0.00    +0.001 A  
DOCKED: ATOM     20  C   UNL     1     -33.234 -15.997  -0.491 -0.17 +0.00    +0.029 A  
DOCKED: ATOM     21  C   UNL     1     -33.919 -14.920   0.069 -0.18 +0.00    +0.140 A  
DOCKED: ATOM     22  C   UNL     1     -33.678 -14.551   1.393 -0.19 +0.00    +0.029 A  
DOCKED: ATOM     23  F   UNL     1     -34.810 -14.239  -0.663 -0.14 -0.00    -0.204 F  
DOCKED: ATOM     24  C   UNL     1     -32.751 -15.261   2.157 -0.14 +0.00    +0.001 A  
DOCKED: ENDBRANCH   2  18
DOCKED: TORSDOF 5
DOCKED: TER
DOCKED: ENDMDL
________________________________________________________________________________


    FINAL DOCKED STATE:
    ________________________


Run:   263 / 512
Time taken for this run:   0.002s

DOCKED: MODEL        263
DOCKED: USER    Run = 263
DOCKED: USER
DOCKED: USER    Estimated Free Energy of Binding    =  -4.19 kcal/mol  [=(1)+(2)+(3)-(4)]
DOCKED: USER
DOCKED: USER    (1) Final Intermolecular Energy     =  -5.69 kcal/mol
DOCKED: USER        vdW + Hbond + desolv Energy     =  -5.69 kcal/mol
DOCKED: USER        Electrostatic Energy            =  +0.00 kcal/mol
DOCKED: USER        Moving Ligand-Fixed Receptor    =  -5.69 kcal/mol
DOCKED: USER        Moving Ligand-Moving Receptor   =  +0.00 kcal/mol
DOCKED: USER    (2) Final Total Internal Energy     =  -1.46 kcal/mol
DOCKED: USER    (3) Torsional Free Energy           =  +1.49 kcal/mol
DOCKED: USER    (4) Unbound System's Energy         =  -1.46 kcal/mol
DOCKED: USER
DOCKED: USER
DOCKED: REMARK  5 active torsions:
DOCKED: REMARK  status: ('A' for Active; 'I' for Inactive)
DOCKED: REMARK    1  A    between atoms: C_2  and  C_19 
DOCKED: REMARK    2  A    between atoms: C_2  and  C_11 
DOCKED: REMARK    3  A    between atoms: C_19  and  C_20 
DOCKED: REMARK    4  A    between atoms: C_20  and  C_21 
DOCKED: REMARK    5  A    between atoms: C_21  and  N_22 
DOCKED: USER                              x       y       z     vdW  Elec       q    Type
DOCKED: USER                           _______ _______ _______ _____ _____    ______ ____
DOCKED: ROOT
DOCKED: ATOM      1  O   UNL     1     -37.523 -14.637  11.322 -0.04 -0.00    -0.346 OA 
DOCKED: ATOM      2  C   UNL     1     -38.946 -14.335  11.163 -0.11 +0.00    +0.130 C  
DOCKED: ATOM      3  C   UNL     1     -39.521 -15.601  10.597 -0.21 +0.00    +0.004 A  
DOCKED: ATOM      4  C   UNL     1     -38.537 -16.577  10.541 -0.25 +0.00    +0.006 A  
DOCKED: ATOM      5  C   UNL     1     -37.264 -16.038  11.070 -0.13 +0.00    +0.169 C  
DOCKED: ATOM      6  C   UNL     1     -40.815 -15.870  10.176 -0.23 -0.00    -0.001 A  
DOCKED: ATOM      7  C   UNL     1     -38.808 -17.847  10.061 -0.32 +0.00    +0.008 A  
DOCKED: ATOM      8  C   UNL     1     -41.103 -17.145   9.685 -0.25 +0.00    +0.010 A  
DOCKED: ATOM      9  C   UNL     1     -40.105 -18.128   9.628 -0.28 +0.00    +0.068 A  
DOCKED: ATOM     10  N   UNL     1     -40.674 -20.486   8.717 -2.60 -0.00    -0.191 NA 
DOCKED: ATOM     11  C   UNL     1     -40.419 -19.428   9.125 -0.35 +0.00    +0.101 C  
DOCKED: ENDROOT
DOCKED: BRANCH   2  12
DOCKED: ATOM     12  C   UNL     1     -39.520 -13.982  12.530 -0.04 +0.00    +0.038 C  
DOCKED: BRANCH  12  13
DOCKED: ATOM     13  C   UNL     1     -39.048 -12.605  12.994 -0.02 +0.00    +0.038 C  
DOCKED: BRANCH  13  14
DOCKED: ATOM     14  C   UNL     1     -37.835 -12.722  13.916 -0.00 +0.00    +0.251 C  
DOCKED: BRANCH  14  15
DOCKED: ATOM     15  N   UNL     1     -36.614 -12.866  13.132 -0.01 +0.00    +0.141 N  
DOCKED: ATOM     16  C   UNL     1     -36.284 -11.612  12.454 -0.00 +0.00    +0.285 C  
DOCKED: ATOM     17  C   UNL     1     -35.502 -13.291  13.983 -0.00 +0.00    +0.285 C  
DOCKED: ENDBRANCH  14  15
DOCKED: ENDBRANCH  13  14
DOCKED: ENDBRANCH  12  13
DOCKED: ENDBRANCH   2  12
DOCKED: BRANCH   2  18
DOCKED: ATOM     18  C   UNL     1     -39.044 -13.180  10.223 -0.15 +0.00    +0.006 A  
DOCKED: ATOM     19  C   UNL     1     -37.896 -12.686   9.604 -0.12 +0.00    +0.001 A  
DOCKED: ATOM     20  C   UNL     1     -37.990 -11.606   8.726 -0.09 +0.00    +0.029 A  
DOCKED: ATOM     21  C   UNL     1     -39.229 -11.022   8.468 -0.10 +0.00    +0.140 A  
DOCKED: ATOM     22  C   UNL     1     -40.376 -11.517   9.087 -0.16 +0.00    +0.029 A  
DOCKED: ATOM     23  F   UNL     1     -39.318  -9.986   7.623 -0.03 -0.00    -0.204 F  
DOCKED: ATOM     24  C   UNL     1     -40.284 -12.597   9.966 -0.18 +0.00    +0.001 A  
DOCKED: ENDBRANCH   2  18
DOCKED: TORSDOF 5
DOCKED: TER
DOCKED: ENDMDL
________________________________________________________________________________


    FINAL DOCKED STATE:
    ________________________


Run:   264 / 512
Time taken for this run:   0.002s

DOCKED: MODEL        264
DOCKED: USER    Run = 264
DOCKED: USER
DOCKED: USER    Estimated Free Energy of Binding    =  -4.22 kcal/mol  [=(1)+(2)+(3)-(4)]
DOCKED: USER
DOCKED: USER    (1) Final Intermolecular Energy     =  -5.71 kcal/mol
DOCKED: USER        vdW + Hbond + desolv Energy     =  -5.71 kcal/mol
DOCKED: USER        Electrostatic Energy            =  +0.00 kcal/mol
DOCKED: USER        Moving Ligand-Fixed Receptor    =  -5.71 kcal/mol
DOCKED: USER        Moving Ligand-Moving Receptor   =  +0.00 kcal/mol
DOCKED: USER    (2) Final Total Internal Energy     =  -1.33 kcal/mol
DOCKED: USER    (3) Torsional Free Energy           =  +1.49 kcal/mol
DOCKED: USER    (4) Unbound System's Energy         =  -1.33 kcal/mol
DOCKED: USER
DOCKED: USER
DOCKED: REMARK  5 active torsions:
DOCKED: REMARK  status: ('A' for Active; 'I' for Inactive)
DOCKED: REMARK    1  A    between atoms: C_2  and  C_19 
DOCKED: REMARK    2  A    between atoms: C_2  and  C_11 
DOCKED: REMARK    3  A    between atoms: C_19  and  C_20 
DOCKED: REMARK    4  A    between atoms: C_20  and  C_21 
DOCKED: REMARK    5  A    between atoms: C_21  and  N_22 
DOCKED: USER                              x       y       z     vdW  Elec       q    Type
DOCKED: USER                           _______ _______ _______ _____ _____    ______ ____
DOCKED: ROOT
DOCKED: ATOM      1  O   UNL     1     -38.934 -13.828  11.036 -0.03 -0.00    -0.346 OA 
DOCKED: ATOM      2  C   UNL     1     -40.396 -13.862  11.092 -0.13 +0.00    +0.130 C  
DOCKED: ATOM      3  C   UNL     1     -40.744 -15.227  10.574 -0.21 +0.00    +0.004 A  
DOCKED: ATOM      4  C   UNL     1     -39.582 -15.952  10.348 -0.24 +0.00    +0.006 A  
DOCKED: ATOM      5  C   UNL     1     -38.402 -15.133  10.707 -0.16 +0.00    +0.169 C  
DOCKED: ATOM      6  C   UNL     1     -41.990 -15.788  10.334 -0.22 -0.00    -0.001 A  
DOCKED: ATOM      7  C   UNL     1     -39.624 -17.251   9.873 -0.31 +0.00    +0.008 A  
DOCKED: ATOM      8  C   UNL     1     -42.049 -17.096   9.851 -0.24 +0.00    +0.010 A  
DOCKED: ATOM      9  C   UNL     1     -40.871 -17.824   9.622 -0.24 +0.00    +0.068 A  
DOCKED: ATOM     10  N   UNL     1     -41.016 -20.252   8.729 -2.55 -0.00    -0.191 NA 
DOCKED: ATOM     11  C   UNL     1     -40.951 -19.163   9.129 -0.35 +0.00    +0.101 C  
DOCKED: ENDROOT
DOCKED: BRANCH   2  12
DOCKED: ATOM     12  C   UNL     1     -40.829 -13.646  12.537 -0.04 +0.00    +0.038 C  
DOCKED: BRANCH  12  13
DOCKED: ATOM     13  C   UNL     1     -39.752 -12.919  13.339 -0.02 +0.00    +0.038 C  
DOCKED: BRANCH  13  14
DOCKED: ATOM     14  C   UNL     1     -40.328 -11.696  14.049 -0.00 +0.00    +0.251 C  
DOCKED: BRANCH  14  15
DOCKED: ATOM     15  N   UNL     1     -40.091 -10.492  13.260 -0.00 +0.00    +0.141 N  
DOCKED: ATOM     16  C   UNL     1     -39.797  -9.353  14.132 +0.00 +0.00    +0.285 C  
DOCKED: ATOM     17  C   UNL     1     -38.994 -10.704  12.314 -0.00 +0.00    +0.285 C  
DOCKED: ENDBRANCH  14  15
DOCKED: ENDBRANCH  13  14
DOCKED: ENDBRANCH  12  13
DOCKED: ENDBRANCH   2  12
DOCKED: BRANCH   2  18
DOCKED: ATOM     18  C   UNL     1     -40.891 -12.763  10.211 -0.19 +0.00    +0.006 A  
DOCKED: ATOM     19  C   UNL     1     -42.246 -12.434  10.202 -0.20 +0.00    +0.001 A  
DOCKED: ATOM     20  C   UNL     1     -42.707 -11.407   9.378 -0.15 +0.00    +0.029 A  
DOCKED: ATOM     21  C   UNL     1     -41.814 -10.710   8.566 -0.09 +0.00    +0.140 A  
DOCKED: ATOM     22  C   UNL     1     -40.459 -11.039   8.576 -0.14 +0.00    +0.029 A  
DOCKED: ATOM     23  F   UNL     1     -42.257  -9.723   7.777 -0.03 -0.00    -0.204 F  
DOCKED: ATOM     24  C   UNL     1     -39.996 -12.067   9.399 -0.16 +0.00    +0.001 A  
DOCKED: ENDBRANCH   2  18
DOCKED: TORSDOF 5
DOCKED: TER
DOCKED: ENDMDL
________________________________________________________________________________


    FINAL DOCKED STATE:
    ________________________


Run:   265 / 512
Time taken for this run:   0.002s

DOCKED: MODEL        265
DOCKED: USER    Run = 265
DOCKED: USER
DOCKED: USER    Estimated Free Energy of Binding    =  -4.22 kcal/mol  [=(1)+(2)+(3)-(4)]
DOCKED: USER
DOCKED: USER    (1) Final Intermolecular Energy     =  -5.72 kcal/mol
DOCKED: USER        vdW + Hbond + desolv Energy     =  -5.72 kcal/mol
DOCKED: USER        Electrostatic Energy            =  +0.00 kcal/mol
DOCKED: USER        Moving Ligand-Fixed Receptor    =  -5.72 kcal/mol
DOCKED: USER        Moving Ligand-Moving Receptor   =  +0.00 kcal/mol
DOCKED: USER    (2) Final Total Internal Energy     =  -1.10 kcal/mol
DOCKED: USER    (3) Torsional Free Energy           =  +1.49 kcal/mol
DOCKED: USER    (4) Unbound System's Energy         =  -1.10 kcal/mol
DOCKED: USER
DOCKED: USER
DOCKED: REMARK  5 active torsions:
DOCKED: REMARK  status: ('A' for Active; 'I' for Inactive)
DOCKED: REMARK    1  A    between atoms: C_2  and  C_19 
DOCKED: REMARK    2  A    between atoms: C_2  and  C_11 
DOCKED: REMARK    3  A    between atoms: C_19  and  C_20 
DOCKED: REMARK    4  A    between atoms: C_20  and  C_21 
DOCKED: REMARK    5  A    between atoms: C_21  and  N_22 
DOCKED: USER                              x       y       z     vdW  Elec       q    Type
DOCKED: USER                           _______ _______ _______ _____ _____    ______ ____
DOCKED: ROOT
DOCKED: ATOM      1  O   UNL     1     -41.687 -13.895  11.190 -0.05 -0.00    -0.346 OA 
DOCKED: ATOM      2  C   UNL     1     -40.347 -13.946  10.603 -0.18 +0.00    +0.130 C  
DOCKED: ATOM      3  C   UNL     1     -40.214 -15.365  10.132 -0.23 +0.00    +0.004 A  
DOCKED: ATOM      4  C   UNL     1     -41.411 -16.037  10.331 -0.22 +0.00    +0.006 A  
DOCKED: ATOM      5  C   UNL     1     -42.409 -15.121  10.927 -0.15 +0.00    +0.169 C  
DOCKED: ATOM      6  C   UNL     1     -39.124 -16.007   9.563 -0.27 -0.00    -0.001 A  
DOCKED: ATOM      7  C   UNL     1     -41.560 -17.367   9.974 -0.23 +0.00    +0.008 A  
DOCKED: ATOM      8  C   UNL     1     -39.256 -17.349   9.201 -0.32 +0.00    +0.010 A  
DOCKED: ATOM      9  C   UNL     1     -40.468 -18.025   9.406 -0.28 +0.00    +0.068 A  
DOCKED: ATOM     10  N   UNL     1     -40.681 -20.514   8.719 -2.61 -0.00    -0.191 NA 
DOCKED: ATOM     11  C   UNL     1     -40.585 -19.398   9.028 -0.38 +0.00    +0.101 C  
DOCKED: ENDROOT
DOCKED: BRANCH   2  12
DOCKED: ATOM     12  C   UNL     1     -40.280 -12.934   9.466 -0.14 +0.00    +0.038 C  
DOCKED: BRANCH  12  13
DOCKED: ATOM     13  C   UNL     1     -40.044 -11.520   9.991 -0.14 +0.00    +0.038 C  
DOCKED: BRANCH  13  14
DOCKED: ATOM     14  C   UNL     1     -41.367 -10.819  10.297 -0.06 +0.00    +0.251 C  
DOCKED: BRANCH  14  15
DOCKED: ATOM     15  N   UNL     1     -41.696  -9.872   9.239 -0.08 +0.00    +0.141 N  
DOCKED: ATOM     16  C   UNL     1     -40.632  -9.830   8.235 -0.09 +0.00    +0.285 C  
DOCKED: ATOM     17  C   UNL     1     -42.972 -10.223   8.612 -0.09 +0.00    +0.285 C  
DOCKED: ENDBRANCH  14  15
DOCKED: ENDBRANCH  13  14
DOCKED: ENDBRANCH  12  13
DOCKED: ENDBRANCH   2  12
DOCKED: BRANCH   2  18
DOCKED: ATOM     18  C   UNL     1     -39.382 -13.600  11.688 -0.07 +0.00    +0.006 A  
DOCKED: ATOM     19  C   UNL     1     -39.852 -13.256  12.955 -0.02 +0.00    +0.001 A  
DOCKED: ATOM     20  C   UNL     1     -38.949 -12.933  13.968 -0.01 +0.00    +0.029 A  
DOCKED: ATOM     21  C   UNL     1     -37.579 -12.955  13.715 -0.00 +0.00    +0.140 A  
DOCKED: ATOM     22  C   UNL     1     -37.109 -13.301  12.448 -0.02 +0.00    +0.029 A  
DOCKED: ATOM     23  F   UNL     1     -36.712 -12.647  14.688 +0.00 -0.00    -0.204 F  
DOCKED: ATOM     24  C   UNL     1     -38.012 -13.623  11.433 -0.07 +0.00    +0.001 A  
DOCKED: ENDBRANCH   2  18
DOCKED: TORSDOF 5
DOCKED: TER
DOCKED: ENDMDL
________________________________________________________________________________


    FINAL DOCKED STATE:
    ________________________


Run:   266 / 512
Time taken for this run:   0.002s

DOCKED: MODEL        266
DOCKED: USER    Run = 266
DOCKED: USER
DOCKED: USER    Estimated Free Energy of Binding    =  -4.55 kcal/mol  [=(1)+(2)+(3)-(4)]
DOCKED: USER
DOCKED: USER    (1) Final Intermolecular Energy     =  -6.04 kcal/mol
DOCKED: USER        vdW + Hbond + desolv Energy     =  -6.04 kcal/mol
DOCKED: USER        Electrostatic Energy            =  +0.00 kcal/mol
DOCKED: USER        Moving Ligand-Fixed Receptor    =  -6.04 kcal/mol
DOCKED: USER        Moving Ligand-Moving Receptor   =  +0.00 kcal/mol
DOCKED: USER    (2) Final Total Internal Energy     =  -1.13 kcal/mol
DOCKED: USER    (3) Torsional Free Energy           =  +1.49 kcal/mol
DOCKED: USER    (4) Unbound System's Energy         =  -1.13 kcal/mol
DOCKED: USER
DOCKED: USER
DOCKED: REMARK  5 active torsions:
DOCKED: REMARK  status: ('A' for Active; 'I' for Inactive)
DOCKED: REMARK    1  A    between atoms: C_2  and  C_19 
DOCKED: REMARK    2  A    between atoms: C_2  and  C_11 
DOCKED: REMARK    3  A    between atoms: C_19  and  C_20 
DOCKED: REMARK    4  A    between atoms: C_20  and  C_21 
DOCKED: REMARK    5  A    between atoms: C_21  and  N_22 
DOCKED: USER                              x       y       z     vdW  Elec       q    Type
DOCKED: USER                           _______ _______ _______ _____ _____    ______ ____
DOCKED: ROOT
DOCKED: ATOM      1  O   UNL     1     -41.933 -18.309  12.124 -0.01 -0.00    -0.346 OA 
DOCKED: ATOM      2  C   UNL     1     -40.990 -17.275  11.693 -0.10 +0.00    +0.130 C  
DOCKED: ATOM      3  C   UNL     1     -40.846 -17.512  10.218 -0.23 +0.00    +0.004 A  
DOCKED: ATOM      4  C   UNL     1     -41.712 -18.520   9.820 -0.27 +0.00    +0.006 A  
DOCKED: ATOM      5  C   UNL     1     -42.488 -19.004  10.983 -0.17 +0.00    +0.169 C  
DOCKED: ATOM      6  C   UNL     1     -40.022 -16.879   9.299 -0.31 -0.00    -0.001 A  
DOCKED: ATOM      7  C   UNL     1     -41.782 -18.931   8.499 -0.37 +0.00    +0.008 A  
DOCKED: ATOM      8  C   UNL     1     -40.077 -17.284   7.965 +0.00 +0.00    +0.010 A  
DOCKED: ATOM      9  C   UNL     1     -40.953 -18.305   7.567 -0.34 +0.00    +0.068 A  
DOCKED: ATOM     10  N   UNL     1     -41.035 -19.030   5.081 -2.83 -0.00    -0.191 NA 
DOCKED: ATOM     11  C   UNL     1     -40.998 -18.706   6.196 -0.29 +0.00    +0.101 C  
DOCKED: ENDROOT
DOCKED: BRANCH   2  12
DOCKED: ATOM     12  C   UNL     1     -41.588 -15.912  12.019 -0.10 +0.00    +0.038 C  
DOCKED: BRANCH  12  13
DOCKED: ATOM     13  C   UNL     1     -43.008 -15.780  11.472 -0.15 +0.00    +0.038 C  
DOCKED: BRANCH  13  14
DOCKED: ATOM     14  C   UNL     1     -43.042 -14.873  10.244 -0.15 +0.00    +0.251 C  
DOCKED: BRANCH  14  15
DOCKED: ATOM     15  N   UNL     1     -42.725 -13.500  10.619 -0.16 +0.00    +0.141 N  
DOCKED: ATOM     16  C   UNL     1     -42.977 -12.588   9.502 +0.01 +0.00    +0.285 C  
DOCKED: ATOM     17  C   UNL     1     -43.501 -13.093  11.792 -0.03 +0.00    +0.285 C  
DOCKED: ENDBRANCH  14  15
DOCKED: ENDBRANCH  13  14
DOCKED: ENDBRANCH  12  13
DOCKED: ENDBRANCH   2  12
DOCKED: BRANCH   2  18
DOCKED: ATOM     18  C   UNL     1     -39.722 -17.501  12.446 -0.11 +0.00    +0.006 A  
DOCKED: ATOM     19  C   UNL     1     -38.951 -16.413  12.853 -0.07 +0.00    +0.001 A  
DOCKED: ATOM     20  C   UNL     1     -37.764 -16.626  13.557 -0.07 +0.00    +0.029 A  
DOCKED: ATOM     21  C   UNL     1     -37.351 -17.924  13.851 -0.08 +0.00    +0.140 A  
DOCKED: ATOM     22  C   UNL     1     -38.123 -19.012  13.443 +0.03 +0.00    +0.029 A  
DOCKED: ATOM     23  F   UNL     1     -36.213 -18.128  14.528 -0.03 -0.00    -0.204 F  
DOCKED: ATOM     24  C   UNL     1     -39.310 -18.800  12.739 -0.21 +0.00    +0.001 A  
DOCKED: ENDBRANCH   2  18
DOCKED: TORSDOF 5
DOCKED: TER
DOCKED: ENDMDL
________________________________________________________________________________


    FINAL DOCKED STATE:
    ________________________


Run:   267 / 512
Time taken for this run:   0.002s

DOCKED: MODEL        267
DOCKED: USER    Run = 267
DOCKED: USER
DOCKED: USER    Estimated Free Energy of Binding    =  -3.30 kcal/mol  [=(1)+(2)+(3)-(4)]
DOCKED: USER
DOCKED: USER    (1) Final Intermolecular Energy     =  -4.79 kcal/mol
DOCKED: USER        vdW + Hbond + desolv Energy     =  -4.79 kcal/mol
DOCKED: USER        Electrostatic Energy            =  +0.00 kcal/mol
DOCKED: USER        Moving Ligand-Fixed Receptor    =  -4.79 kcal/mol
DOCKED: USER        Moving Ligand-Moving Receptor   =  +0.00 kcal/mol
DOCKED: USER    (2) Final Total Internal Energy     =  -1.46 kcal/mol
DOCKED: USER    (3) Torsional Free Energy           =  +1.49 kcal/mol
DOCKED: USER    (4) Unbound System's Energy         =  -1.46 kcal/mol
DOCKED: USER
DOCKED: USER
DOCKED: REMARK  5 active torsions:
DOCKED: REMARK  status: ('A' for Active; 'I' for Inactive)
DOCKED: REMARK    1  A    between atoms: C_2  and  C_19 
DOCKED: REMARK    2  A    between atoms: C_2  and  C_11 
DOCKED: REMARK    3  A    between atoms: C_19  and  C_20 
DOCKED: REMARK    4  A    between atoms: C_20  and  C_21 
DOCKED: REMARK    5  A    between atoms: C_21  and  N_22 
DOCKED: USER                              x       y       z     vdW  Elec       q    Type
DOCKED: USER                           _______ _______ _______ _____ _____    ______ ____
DOCKED: ROOT
DOCKED: ATOM      1  O   UNL     1     -33.592 -12.935   5.745 -0.00 -0.00    -0.346 OA 
DOCKED: ATOM      2  C   UNL     1     -34.369 -13.918   4.989 -0.13 +0.00    +0.130 C  
DOCKED: ATOM      3  C   UNL     1     -33.959 -15.235   5.583 -0.19 +0.00    +0.004 A  
DOCKED: ATOM      4  C   UNL     1     -33.107 -15.018   6.656 -0.12 +0.00    +0.006 A  
DOCKED: ATOM      5  C   UNL     1     -32.907 -13.564   6.853 -0.04 +0.00    +0.169 C  
DOCKED: ATOM      6  C   UNL     1     -34.319 -16.521   5.209 -0.31 -0.00    -0.001 A  
DOCKED: ATOM      7  C   UNL     1     -32.585 -16.071   7.387 -0.14 +0.00    +0.008 A  
DOCKED: ATOM      8  C   UNL     1     -33.798 -17.595   5.934 -0.27 +0.00    +0.010 A  
DOCKED: ATOM      9  C   UNL     1     -32.936 -17.371   7.017 -0.15 +0.00    +0.068 A  
DOCKED: ATOM     10  N   UNL     1     -31.990 -19.386   8.344 -1.94 -0.00    -0.191 NA 
DOCKED: ATOM     11  C   UNL     1     -32.414 -18.482   7.748 -0.24 +0.00    +0.101 C  
DOCKED: ENDROOT
DOCKED: BRANCH   2  12
DOCKED: ATOM     12  C   UNL     1     -35.850 -13.616   5.184 -0.24 +0.00    +0.038 C  
DOCKED: BRANCH  12  13
DOCKED: ATOM     13  C   UNL     1     -36.074 -12.157   5.577 -0.15 +0.00    +0.038 C  
DOCKED: BRANCH  13  14
DOCKED: ATOM     14  C   UNL     1     -35.540 -11.211   4.504 -0.08 +0.00    +0.251 C  
DOCKED: BRANCH  14  15
DOCKED: ATOM     15  N   UNL     1     -34.404 -10.453   5.014 -0.06 +0.00    +0.141 N  
DOCKED: ATOM     16  C   UNL     1     -33.609  -9.909   3.912 -0.06 +0.00    +0.285 C  
DOCKED: ATOM     17  C   UNL     1     -34.857  -9.375   5.895 -0.10 +0.00    +0.285 C  
DOCKED: ENDBRANCH  14  15
DOCKED: ENDBRANCH  13  14
DOCKED: ENDBRANCH  12  13
DOCKED: ENDBRANCH   2  12
DOCKED: BRANCH   2  18
DOCKED: ATOM     18  C   UNL     1     -33.975 -13.778   3.557 -0.14 +0.00    +0.006 A  
DOCKED: ATOM     19  C   UNL     1     -34.879 -14.113   2.549 -0.05 +0.00    +0.001 A  
DOCKED: ATOM     20  C   UNL     1     -34.509 -13.981   1.210 -0.17 +0.00    +0.029 A  
DOCKED: ATOM     21  C   UNL     1     -33.237 -13.515   0.881 -0.11 +0.00    +0.140 A  
DOCKED: ATOM     22  C   UNL     1     -32.334 -13.180   1.889 -0.03 +0.00    +0.029 A  
DOCKED: ATOM     23  F   UNL     1     -32.883 -13.387  -0.405 -0.01 -0.00    -0.204 F  
DOCKED: ATOM     24  C   UNL     1     -32.703 -13.312   3.229 -0.04 +0.00    +0.001 A  
DOCKED: ENDBRANCH   2  18
DOCKED: TORSDOF 5
DOCKED: TER
DOCKED: ENDMDL
________________________________________________________________________________


    FINAL DOCKED STATE:
    ________________________


Run:   268 / 512
Time taken for this run:   0.002s

DOCKED: MODEL        268
DOCKED: USER    Run = 268
DOCKED: USER
DOCKED: USER    Estimated Free Energy of Binding    =  -5.55 kcal/mol  [=(1)+(2)+(3)-(4)]
DOCKED: USER
DOCKED: USER    (1) Final Intermolecular Energy     =  -7.04 kcal/mol
DOCKED: USER        vdW + Hbond + desolv Energy     =  -7.04 kcal/mol
DOCKED: USER        Electrostatic Energy            =  +0.00 kcal/mol
DOCKED: USER        Moving Ligand-Fixed Receptor    =  -7.04 kcal/mol
DOCKED: USER        Moving Ligand-Moving Receptor   =  +0.00 kcal/mol
DOCKED: USER    (2) Final Total Internal Energy     =  -1.09 kcal/mol
DOCKED: USER    (3) Torsional Free Energy           =  +1.49 kcal/mol
DOCKED: USER    (4) Unbound System's Energy         =  -1.09 kcal/mol
DOCKED: USER
DOCKED: USER
DOCKED: REMARK  5 active torsions:
DOCKED: REMARK  status: ('A' for Active; 'I' for Inactive)
DOCKED: REMARK    1  A    between atoms: C_2  and  C_19 
DOCKED: REMARK    2  A    between atoms: C_2  and  C_11 
DOCKED: REMARK    3  A    between atoms: C_19  and  C_20 
DOCKED: REMARK    4  A    between atoms: C_20  and  C_21 
DOCKED: REMARK    5  A    between atoms: C_21  and  N_22 
DOCKED: USER                              x       y       z     vdW  Elec       q    Type
DOCKED: USER                           _______ _______ _______ _____ _____    ______ ____
DOCKED: ROOT
DOCKED: ATOM      1  O   UNL     1     -38.971 -16.306  11.562 -0.03 -0.00    -0.346 OA 
DOCKED: ATOM      2  C   UNL     1     -38.591 -17.716  11.474 -0.21 +0.00    +0.130 C  
DOCKED: ATOM      3  C   UNL     1     -39.077 -18.135  10.117 -0.33 +0.00    +0.004 A  
DOCKED: ATOM      4  C   UNL     1     -39.589 -17.035   9.444 -0.33 +0.00    +0.006 A  
DOCKED: ATOM      5  C   UNL     1     -39.469 -15.828  10.291 -0.21 +0.00    +0.169 C  
DOCKED: ATOM      6  C   UNL     1     -39.056 -19.388   9.521 -0.42 -0.00    -0.001 A  
DOCKED: ATOM      7  C   UNL     1     -40.100 -17.148   8.162 +0.02 +0.00    +0.008 A  
DOCKED: ATOM      8  C   UNL     1     -39.572 -19.519   8.230 -0.46 +0.00    +0.010 A  
DOCKED: ATOM      9  C   UNL     1     -40.090 -18.404   7.554 -0.39 +0.00    +0.068 A  
DOCKED: ATOM     10  N   UNL     1     -41.035 -18.681   5.158 -2.85 -0.00    -0.191 NA 
DOCKED: ATOM     11  C   UNL     1     -40.612 -18.557   6.233 -0.45 +0.00    +0.101 C  
DOCKED: ENDROOT
DOCKED: BRANCH   2  12
DOCKED: ATOM     12  C   UNL     1     -37.077 -17.819  11.620 -0.24 +0.00    +0.038 C  
DOCKED: BRANCH  12  13
DOCKED: ATOM     13  C   UNL     1     -36.399 -16.478  11.347 -0.12 +0.00    +0.038 C  
DOCKED: BRANCH  13  14
DOCKED: ATOM     14  C   UNL     1     -36.389 -15.602  12.598 -0.06 +0.00    +0.251 C  
DOCKED: BRANCH  14  15
DOCKED: ATOM     15  N   UNL     1     -35.036 -15.493  13.130 -0.03 +0.00    +0.141 N  
DOCKED: ATOM     16  C   UNL     1     -34.839 -14.196  13.779 -0.00 +0.00    +0.285 C  
DOCKED: ATOM     17  C   UNL     1     -34.763 -16.579  14.072 -0.03 +0.00    +0.285 C  
DOCKED: ENDBRANCH  14  15
DOCKED: ENDBRANCH  13  14
DOCKED: ENDBRANCH  12  13
DOCKED: ENDBRANCH   2  12
DOCKED: BRANCH   2  18
DOCKED: ATOM     18  C   UNL     1     -39.288 -18.426  12.586 -0.18 +0.00    +0.006 A  
DOCKED: ATOM     19  C   UNL     1     -40.572 -18.934  12.392 -0.20 +0.00    +0.001 A  
DOCKED: ATOM     20  C   UNL     1     -41.223 -19.598  13.433 -0.09 +0.00    +0.029 A  
DOCKED: ATOM     21  C   UNL     1     -40.590 -19.752  14.665 -0.03 +0.00    +0.140 A  
DOCKED: ATOM     22  C   UNL     1     -39.306 -19.244  14.859 -0.18 +0.00    +0.029 A  
DOCKED: ATOM     23  F   UNL     1     -41.214 -20.391  15.663 -0.04 -0.00    -0.204 F  
DOCKED: ATOM     24  C   UNL     1     -38.654 -18.580  13.818 -0.17 +0.00    +0.001 A  
DOCKED: ENDBRANCH   2  18
DOCKED: TORSDOF 5
DOCKED: TER
DOCKED: ENDMDL
________________________________________________________________________________


    FINAL DOCKED STATE:
    ________________________


Run:   269 / 512
Time taken for this run:   0.002s

DOCKED: MODEL        269
DOCKED: USER    Run = 269
DOCKED: USER
DOCKED: USER    Estimated Free Energy of Binding    =  -3.76 kcal/mol  [=(1)+(2)+(3)-(4)]
DOCKED: USER
DOCKED: USER    (1) Final Intermolecular Energy     =  -5.25 kcal/mol
DOCKED: USER        vdW + Hbond + desolv Energy     =  -5.25 kcal/mol
DOCKED: USER        Electrostatic Energy            =  +0.00 kcal/mol
DOCKED: USER        Moving Ligand-Fixed Receptor    =  -5.25 kcal/mol
DOCKED: USER        Moving Ligand-Moving Receptor   =  +0.00 kcal/mol
DOCKED: USER    (2) Final Total Internal Energy     =  -1.45 kcal/mol
DOCKED: USER    (3) Torsional Free Energy           =  +1.49 kcal/mol
DOCKED: USER    (4) Unbound System's Energy         =  -1.45 kcal/mol
DOCKED: USER
DOCKED: USER
DOCKED: REMARK  5 active torsions:
DOCKED: REMARK  status: ('A' for Active; 'I' for Inactive)
DOCKED: REMARK    1  A    between atoms: C_2  and  C_19 
DOCKED: REMARK    2  A    between atoms: C_2  and  C_11 
DOCKED: REMARK    3  A    between atoms: C_19  and  C_20 
DOCKED: REMARK    4  A    between atoms: C_20  and  C_21 
DOCKED: REMARK    5  A    between atoms: C_21  and  N_22 
DOCKED: USER                              x       y       z     vdW  Elec       q    Type
DOCKED: USER                           _______ _______ _______ _____ _____    ______ ____
DOCKED: ROOT
DOCKED: ATOM      1  O   UNL     1     -38.845 -16.742  14.249 -0.01 -0.00    -0.346 OA 
DOCKED: ATOM      2  C   UNL     1     -37.682 -17.066  13.422 -0.09 +0.00    +0.130 C  
DOCKED: ATOM      3  C   UNL     1     -38.269 -17.789  12.244 -0.18 +0.00    +0.004 A  
DOCKED: ATOM      4  C   UNL     1     -39.654 -17.782  12.334 -0.13 +0.00    +0.006 A  
DOCKED: ATOM      5  C   UNL     1     -40.074 -17.054  13.552 -0.04 +0.00    +0.169 C  
DOCKED: ATOM      6  C   UNL     1     -37.629 -18.394  11.172 -0.25 -0.00    -0.001 A  
DOCKED: ATOM      7  C   UNL     1     -40.442 -18.379  11.365 -0.19 +0.00    +0.008 A  
DOCKED: ATOM      8  C   UNL     1     -38.410 -19.005  10.189 -0.39 +0.00    +0.010 A  
DOCKED: ATOM      9  C   UNL     1     -39.810 -18.997  10.286 -0.27 +0.00    +0.068 A  
DOCKED: ATOM     10  N   UNL     1     -41.230 -20.135   8.441 -2.18 -0.00    -0.191 NA 
DOCKED: ATOM     11  C   UNL     1     -40.593 -19.625   9.269 -0.16 +0.00    +0.101 C  
DOCKED: ENDROOT
DOCKED: BRANCH   2  12
DOCKED: ATOM     12  C   UNL     1     -36.989 -15.766  13.034 -0.07 +0.00    +0.038 C  
DOCKED: BRANCH  12  13
DOCKED: ATOM     13  C   UNL     1     -37.946 -14.578  13.116 -0.03 +0.00    +0.038 C  
DOCKED: BRANCH  13  14
DOCKED: ATOM     14  C   UNL     1     -38.127 -13.923  11.748 -0.04 +0.00    +0.251 C  
DOCKED: BRANCH  14  15
DOCKED: ATOM     15  N   UNL     1     -37.901 -14.897  10.686 -0.14 +0.00    +0.141 N  
DOCKED: ATOM     16  C   UNL     1     -39.113 -15.077   9.885 -0.16 +0.00    +0.285 C  
DOCKED: ATOM     17  C   UNL     1     -36.787 -14.480   9.833 -0.09 +0.00    +0.285 C  
DOCKED: ENDBRANCH  14  15
DOCKED: ENDBRANCH  13  14
DOCKED: ENDBRANCH  12  13
DOCKED: ENDBRANCH   2  12
DOCKED: BRANCH   2  18
DOCKED: ATOM     18  C   UNL     1     -36.787 -17.929  14.246 -0.11 +0.00    +0.006 A  
DOCKED: ATOM     19  C   UNL     1     -35.403 -17.812  14.127 -0.10 +0.00    +0.001 A  
DOCKED: ATOM     20  C   UNL     1     -34.567 -18.620  14.898 -0.12 +0.00    +0.029 A  
DOCKED: ATOM     21  C   UNL     1     -35.115 -19.542  15.788 -0.13 +0.00    +0.140 A  
DOCKED: ATOM     22  C   UNL     1     -36.500 -19.659  15.907 -0.16 +0.00    +0.029 A  
DOCKED: ATOM     23  F   UNL     1     -34.312 -20.316  16.530 -0.07 -0.00    -0.204 F  
DOCKED: ATOM     24  C   UNL     1     -37.337 -18.852  15.135 -0.15 +0.00    +0.001 A  
DOCKED: ENDBRANCH   2  18
DOCKED: TORSDOF 5
DOCKED: TER
DOCKED: ENDMDL
________________________________________________________________________________


    FINAL DOCKED STATE:
    ________________________


Run:   270 / 512
Time taken for this run:   0.002s

DOCKED: MODEL        270
DOCKED: USER    Run = 270
DOCKED: USER
DOCKED: USER    Estimated Free Energy of Binding    =  -4.79 kcal/mol  [=(1)+(2)+(3)-(4)]
DOCKED: USER
DOCKED: USER    (1) Final Intermolecular Energy     =  -6.28 kcal/mol
DOCKED: USER        vdW + Hbond + desolv Energy     =  -6.28 kcal/mol
DOCKED: USER        Electrostatic Energy            =  +0.00 kcal/mol
DOCKED: USER        Moving Ligand-Fixed Receptor    =  -6.28 kcal/mol
DOCKED: USER        Moving Ligand-Moving Receptor   =  +0.00 kcal/mol
DOCKED: USER    (2) Final Total Internal Energy     =  -1.03 kcal/mol
DOCKED: USER    (3) Torsional Free Energy           =  +1.49 kcal/mol
DOCKED: USER    (4) Unbound System's Energy         =  -1.03 kcal/mol
DOCKED: USER
DOCKED: USER
DOCKED: REMARK  5 active torsions:
DOCKED: REMARK  status: ('A' for Active; 'I' for Inactive)
DOCKED: REMARK    1  A    between atoms: C_2  and  C_19 
DOCKED: REMARK    2  A    between atoms: C_2  and  C_11 
DOCKED: REMARK    3  A    between atoms: C_19  and  C_20 
DOCKED: REMARK    4  A    between atoms: C_20  and  C_21 
DOCKED: REMARK    5  A    between atoms: C_21  and  N_22 
DOCKED: USER                              x       y       z     vdW  Elec       q    Type
DOCKED: USER                           _______ _______ _______ _____ _____    ______ ____
DOCKED: ROOT
DOCKED: ATOM      1  O   UNL     1     -36.372 -15.931  11.910 -0.07 -0.00    -0.346 OA 
DOCKED: ATOM      2  C   UNL     1     -37.252 -15.102  11.085 -0.14 +0.00    +0.130 C  
DOCKED: ATOM      3  C   UNL     1     -38.179 -16.092  10.442 -0.22 +0.00    +0.004 A  
DOCKED: ATOM      4  C   UNL     1     -37.925 -17.362  10.939 -0.24 +0.00    +0.006 A  
DOCKED: ATOM      5  C   UNL     1     -36.837 -17.300  11.941 -0.17 +0.00    +0.169 C  
DOCKED: ATOM      6  C   UNL     1     -39.177 -15.884   9.500 -0.25 -0.00    -0.001 A  
DOCKED: ATOM      7  C   UNL     1     -38.649 -18.462  10.513 -0.34 +0.00    +0.008 A  
DOCKED: ATOM      8  C   UNL     1     -39.913 -16.983   9.056 -0.32 +0.00    +0.010 A  
DOCKED: ATOM      9  C   UNL     1     -39.651 -18.266   9.561 -0.31 +0.00    +0.068 A  
DOCKED: ATOM     10  N   UNL     1     -41.040 -20.285   8.720 -2.55 -0.00    -0.191 NA 
DOCKED: ATOM     11  C   UNL     1     -40.417 -19.379   9.097 -0.38 +0.00    +0.101 C  
DOCKED: ENDROOT
DOCKED: BRANCH   2  12
DOCKED: ATOM     12  C   UNL     1     -37.976 -14.115  11.993 -0.06 +0.00    +0.038 C  
DOCKED: BRANCH  12  13
DOCKED: ATOM     13  C   UNL     1     -39.483 -14.361  11.995 -0.07 +0.00    +0.038 C  
DOCKED: BRANCH  13  14
DOCKED: ATOM     14  C   UNL     1     -40.207 -13.345  11.114 -0.09 +0.00    +0.251 C  
DOCKED: BRANCH  14  15
DOCKED: ATOM     15  N   UNL     1     -41.422 -13.929  10.558 -0.18 +0.00    +0.141 N  
DOCKED: ATOM     16  C   UNL     1     -41.850 -15.082  11.352 -0.07 +0.00    +0.285 C  
DOCKED: ATOM     17  C   UNL     1     -42.492 -12.932  10.495 -0.13 +0.00    +0.285 C  
DOCKED: ENDBRANCH  14  15
DOCKED: ENDBRANCH  13  14
DOCKED: ENDBRANCH  12  13
DOCKED: ENDBRANCH   2  12
DOCKED: BRANCH   2  18
DOCKED: ATOM     18  C   UNL     1     -36.385 -14.392  10.100 -0.13 +0.00    +0.006 A  
DOCKED: ATOM     19  C   UNL     1     -34.999 -14.526  10.167 -0.10 +0.00    +0.001 A  
DOCKED: ATOM     20  C   UNL     1     -34.190 -13.861   9.245 -0.10 +0.00    +0.029 A  
DOCKED: ATOM     21  C   UNL     1     -34.767 -13.064   8.258 -0.08 +0.00    +0.140 A  
DOCKED: ATOM     22  C   UNL     1     -36.154 -12.930   8.191 -0.13 +0.00    +0.029 A  
DOCKED: ATOM     23  F   UNL     1     -33.990 -12.427   7.372 -0.00 -0.00    -0.204 F  
DOCKED: ATOM     24  C   UNL     1     -36.964 -13.594   9.113 -0.15 +0.00    +0.001 A  
DOCKED: ENDBRANCH   2  18
DOCKED: TORSDOF 5
DOCKED: TER
DOCKED: ENDMDL
________________________________________________________________________________


    FINAL DOCKED STATE:
    ________________________


Run:   271 / 512
Time taken for this run:   0.002s

DOCKED: MODEL        271
DOCKED: USER    Run = 271
DOCKED: USER
DOCKED: USER    Estimated Free Energy of Binding    =  -4.67 kcal/mol  [=(1)+(2)+(3)-(4)]
DOCKED: USER
DOCKED: USER    (1) Final Intermolecular Energy     =  -6.16 kcal/mol
DOCKED: USER        vdW + Hbond + desolv Energy     =  -6.16 kcal/mol
DOCKED: USER        Electrostatic Energy            =  +0.00 kcal/mol
DOCKED: USER        Moving Ligand-Fixed Receptor    =  -6.16 kcal/mol
DOCKED: USER        Moving Ligand-Moving Receptor   =  +0.00 kcal/mol
DOCKED: USER    (2) Final Total Internal Energy     =  -1.39 kcal/mol
DOCKED: USER    (3) Torsional Free Energy           =  +1.49 kcal/mol
DOCKED: USER    (4) Unbound System's Energy         =  -1.39 kcal/mol
DOCKED: USER
DOCKED: USER
DOCKED: REMARK  5 active torsions:
DOCKED: REMARK  status: ('A' for Active; 'I' for Inactive)
DOCKED: REMARK    1  A    between atoms: C_2  and  C_19 
DOCKED: REMARK    2  A    between atoms: C_2  and  C_11 
DOCKED: REMARK    3  A    between atoms: C_19  and  C_20 
DOCKED: REMARK    4  A    between atoms: C_20  and  C_21 
DOCKED: REMARK    5  A    between atoms: C_21  and  N_22 
DOCKED: USER                              x       y       z     vdW  Elec       q    Type
DOCKED: USER                           _______ _______ _______ _____ _____    ______ ____
DOCKED: ROOT
DOCKED: ATOM      1  O   UNL     1     -38.770 -13.902  10.586 -0.06 -0.00    -0.346 OA 
DOCKED: ATOM      2  C   UNL     1     -40.154 -14.104  11.018 -0.14 +0.00    +0.130 C  
DOCKED: ATOM      3  C   UNL     1     -40.474 -15.497  10.559 -0.21 +0.00    +0.004 A  
DOCKED: ATOM      4  C   UNL     1     -39.340 -16.082  10.013 -0.27 +0.00    +0.006 A  
DOCKED: ATOM      5  C   UNL     1     -38.204 -15.135  10.082 -0.19 +0.00    +0.169 C  
DOCKED: ATOM      6  C   UNL     1     -41.670 -16.196  10.631 -0.20 -0.00    -0.001 A  
DOCKED: ATOM      7  C   UNL     1     -39.362 -17.374   9.518 -0.34 +0.00    +0.008 A  
DOCKED: ATOM      8  C   UNL     1     -41.710 -17.499  10.132 -0.22 +0.00    +0.010 A  
DOCKED: ATOM      9  C   UNL     1     -40.561 -18.085   9.579 -0.26 +0.00    +0.068 A  
DOCKED: ATOM     10  N   UNL     1     -40.669 -20.508   8.666 -2.58 -0.00    -0.191 NA 
DOCKED: ATOM     11  C   UNL     1     -40.621 -19.421   9.075 -0.36 +0.00    +0.101 C  
DOCKED: ENDROOT
DOCKED: BRANCH   2  12
DOCKED: ATOM     12  C   UNL     1     -40.214 -13.949  12.533 -0.04 +0.00    +0.038 C  
DOCKED: BRANCH  12  13
DOCKED: ATOM     13  C   UNL     1     -40.244 -15.307  13.231 -0.04 +0.00    +0.038 C  
DOCKED: BRANCH  13  14
DOCKED: ATOM     14  C   UNL     1     -38.830 -15.843  13.450 -0.02 +0.00    +0.251 C  
DOCKED: BRANCH  14  15
DOCKED: ATOM     15  N   UNL     1     -38.864 -17.283  13.682 -0.05 +0.00    +0.141 N  
DOCKED: ATOM     16  C   UNL     1     -40.244 -17.766  13.728 -0.04 +0.00    +0.285 C  
DOCKED: ATOM     17  C   UNL     1     -38.113 -17.990  12.643 -0.09 +0.00    +0.285 C  
DOCKED: ENDBRANCH  14  15
DOCKED: ENDBRANCH  13  14
DOCKED: ENDBRANCH  12  13
DOCKED: ENDBRANCH   2  12
DOCKED: BRANCH   2  18
DOCKED: ATOM     18  C   UNL     1     -40.979 -13.064  10.337 -0.20 +0.00    +0.006 A  
DOCKED: ATOM     19  C   UNL     1     -40.360 -12.065   9.586 -0.18 +0.00    +0.001 A  
DOCKED: ATOM     20  C   UNL     1     -41.133 -11.093   8.950 -0.15 +0.00    +0.029 A  
DOCKED: ATOM     21  C   UNL     1     -42.522 -11.121   9.065 -0.10 +0.00    +0.140 A  
DOCKED: ATOM     22  C   UNL     1     -43.140 -12.120   9.817 -0.19 +0.00    +0.029 A  
DOCKED: ATOM     23  F   UNL     1     -43.264 -10.189   8.453 -0.03 -0.00    -0.204 F  
DOCKED: ATOM     24  C   UNL     1     -42.368 -13.093  10.454 -0.21 +0.00    +0.001 A  
DOCKED: ENDBRANCH   2  18
DOCKED: TORSDOF 5
DOCKED: TER
DOCKED: ENDMDL
________________________________________________________________________________


    FINAL DOCKED STATE:
    ________________________


Run:   272 / 512
Time taken for this run:   0.002s

DOCKED: MODEL        272
DOCKED: USER    Run = 272
DOCKED: USER
DOCKED: USER    Estimated Free Energy of Binding    =  -4.12 kcal/mol  [=(1)+(2)+(3)-(4)]
DOCKED: USER
DOCKED: USER    (1) Final Intermolecular Energy     =  -5.61 kcal/mol
DOCKED: USER        vdW + Hbond + desolv Energy     =  -5.61 kcal/mol
DOCKED: USER        Electrostatic Energy            =  +0.00 kcal/mol
DOCKED: USER        Moving Ligand-Fixed Receptor    =  -5.61 kcal/mol
DOCKED: USER        Moving Ligand-Moving Receptor   =  +0.00 kcal/mol
DOCKED: USER    (2) Final Total Internal Energy     =  -1.14 kcal/mol
DOCKED: USER    (3) Torsional Free Energy           =  +1.49 kcal/mol
DOCKED: USER    (4) Unbound System's Energy         =  -1.14 kcal/mol
DOCKED: USER
DOCKED: USER
DOCKED: REMARK  5 active torsions:
DOCKED: REMARK  status: ('A' for Active; 'I' for Inactive)
DOCKED: REMARK    1  A    between atoms: C_2  and  C_19 
DOCKED: REMARK    2  A    between atoms: C_2  and  C_11 
DOCKED: REMARK    3  A    between atoms: C_19  and  C_20 
DOCKED: REMARK    4  A    between atoms: C_20  and  C_21 
DOCKED: REMARK    5  A    between atoms: C_21  and  N_22 
DOCKED: USER                              x       y       z     vdW  Elec       q    Type
DOCKED: USER                           _______ _______ _______ _____ _____    ______ ____
DOCKED: ROOT
DOCKED: ATOM      1  O   UNL     1     -34.834 -10.927   2.920 -0.02 -0.00    -0.346 OA 
DOCKED: ATOM      2  C   UNL     1     -33.931 -10.783   1.778 -0.08 +0.00    +0.130 C  
DOCKED: ATOM      3  C   UNL     1     -34.684  -9.891   0.834 -0.16 +0.00    +0.004 A  
DOCKED: ATOM      4  C   UNL     1     -35.865  -9.472   1.430 -0.26 +0.00    +0.006 A  
DOCKED: ATOM      5  C   UNL     1     -35.968 -10.038   2.794 -0.21 +0.00    +0.169 C  
DOCKED: ATOM      6  C   UNL     1     -34.346  -9.475  -0.445 -0.15 -0.00    -0.001 A  
DOCKED: ATOM      7  C   UNL     1     -36.746  -8.632   0.771 -0.28 +0.00    +0.008 A  
DOCKED: ATOM      8  C   UNL     1     -35.226  -8.631  -1.125 -0.21 +0.00    +0.010 A  
DOCKED: ATOM      9  C   UNL     1     -36.420  -8.211  -0.519 -0.13 +0.00    +0.068 A  
DOCKED: ATOM     10  N   UNL     1     -38.029  -6.640  -1.805 -2.37 -0.00    -0.191 NA 
DOCKED: ATOM     11  C   UNL     1     -37.308  -7.345  -1.229 -0.40 +0.00    +0.101 C  
DOCKED: ENDROOT
DOCKED: BRANCH   2  12
DOCKED: ATOM     12  C   UNL     1     -32.628 -10.163   2.268 -0.03 +0.00    +0.038 C  
DOCKED: BRANCH  12  13
DOCKED: ATOM     13  C   UNL     1     -32.826  -8.705   2.680 -0.09 +0.00    +0.038 C  
DOCKED: BRANCH  13  14
DOCKED: ATOM     14  C   UNL     1     -32.034  -7.765   1.773 -0.03 +0.00    +0.251 C  
DOCKED: BRANCH  14  15
DOCKED: ATOM     15  N   UNL     1     -32.331  -6.375   2.100 -0.08 +0.00    +0.141 N  
DOCKED: ATOM     16  C   UNL     1     -31.453  -5.471   1.356 -0.02 +0.00    +0.285 C  
DOCKED: ATOM     17  C   UNL     1     -33.734  -6.067   1.818 -0.11 +0.00    +0.285 C  
DOCKED: ENDBRANCH  14  15
DOCKED: ENDBRANCH  13  14
DOCKED: ENDBRANCH  12  13
DOCKED: ENDBRANCH   2  12
DOCKED: BRANCH   2  18
DOCKED: ATOM     18  C   UNL     1     -33.702 -12.151   1.228 -0.10 +0.00    +0.006 A  
DOCKED: ATOM     19  C   UNL     1     -33.142 -13.142   2.034 -0.08 +0.00    +0.001 A  
DOCKED: ATOM     20  C   UNL     1     -32.928 -14.421   1.518 -0.13 +0.00    +0.029 A  
DOCKED: ATOM     21  C   UNL     1     -33.275 -14.707   0.198 -0.17 +0.00    +0.140 A  
DOCKED: ATOM     22  C   UNL     1     -33.835 -13.716  -0.607 -0.21 +0.00    +0.029 A  
DOCKED: ATOM     23  F   UNL     1     -33.071 -15.935  -0.296 -0.10 -0.00    -0.204 F  
DOCKED: ATOM     24  C   UNL     1     -34.049 -12.436  -0.092 -0.17 +0.00    +0.001 A  
DOCKED: ENDBRANCH   2  18
DOCKED: TORSDOF 5
DOCKED: TER
DOCKED: ENDMDL
________________________________________________________________________________


    FINAL DOCKED STATE:
    ________________________


Run:   273 / 512
Time taken for this run:   0.002s

DOCKED: MODEL        273
DOCKED: USER    Run = 273
DOCKED: USER
DOCKED: USER    Estimated Free Energy of Binding    =  -5.76 kcal/mol  [=(1)+(2)+(3)-(4)]
DOCKED: USER
DOCKED: USER    (1) Final Intermolecular Energy     =  -7.25 kcal/mol
DOCKED: USER        vdW + Hbond + desolv Energy     =  -7.25 kcal/mol
DOCKED: USER        Electrostatic Energy            =  +0.00 kcal/mol
DOCKED: USER        Moving Ligand-Fixed Receptor    =  -7.25 kcal/mol
DOCKED: USER        Moving Ligand-Moving Receptor   =  +0.00 kcal/mol
DOCKED: USER    (2) Final Total Internal Energy     =  -1.41 kcal/mol
DOCKED: USER    (3) Torsional Free Energy           =  +1.49 kcal/mol
DOCKED: USER    (4) Unbound System's Energy         =  -1.41 kcal/mol
DOCKED: USER
DOCKED: USER
DOCKED: REMARK  5 active torsions:
DOCKED: REMARK  status: ('A' for Active; 'I' for Inactive)
DOCKED: REMARK    1  A    between atoms: C_2  and  C_19 
DOCKED: REMARK    2  A    between atoms: C_2  and  C_11 
DOCKED: REMARK    3  A    between atoms: C_19  and  C_20 
DOCKED: REMARK    4  A    between atoms: C_20  and  C_21 
DOCKED: REMARK    5  A    between atoms: C_21  and  N_22 
DOCKED: USER                              x       y       z     vdW  Elec       q    Type
DOCKED: USER                           _______ _______ _______ _____ _____    ______ ____
DOCKED: ROOT
DOCKED: ATOM      1  O   UNL     1     -38.794 -16.196  11.122 -0.06 -0.00    -0.346 OA 
DOCKED: ATOM      2  C   UNL     1     -38.551 -17.638  11.184 -0.23 +0.00    +0.130 C  
DOCKED: ATOM      3  C   UNL     1     -39.080 -18.147   9.874 -0.34 +0.00    +0.004 A  
DOCKED: ATOM      4  C   UNL     1     -39.488 -17.080   9.088 -0.34 +0.00    +0.006 A  
DOCKED: ATOM      5  C   UNL     1     -39.249 -15.807   9.805 -0.23 +0.00    +0.169 C  
DOCKED: ATOM      6  C   UNL     1     -39.181 -19.451   9.412 -0.39 -0.00    -0.001 A  
DOCKED: ATOM      7  C   UNL     1     -40.012 -17.276   7.821 +0.07 +0.00    +0.008 A  
DOCKED: ATOM      8  C   UNL     1     -39.711 -19.666   8.139 -0.47 +0.00    +0.010 A  
DOCKED: ATOM      9  C   UNL     1     -40.124 -18.584   7.348 -0.42 +0.00    +0.068 A  
DOCKED: ATOM     10  N   UNL     1     -41.100 -19.018   4.987 -2.96 -0.00    -0.191 NA 
DOCKED: ATOM     11  C   UNL     1     -40.663 -18.823   6.046 -0.41 +0.00    +0.101 C  
DOCKED: ENDROOT
DOCKED: BRANCH   2  12
DOCKED: ATOM     12  C   UNL     1     -37.053 -17.868  11.349 -0.24 +0.00    +0.038 C  
DOCKED: BRANCH  12  13
DOCKED: ATOM     13  C   UNL     1     -36.481 -17.020  12.483 -0.18 +0.00    +0.038 C  
DOCKED: BRANCH  13  14
DOCKED: ATOM     14  C   UNL     1     -35.553 -15.934  11.943 -0.09 +0.00    +0.251 C  
DOCKED: BRANCH  14  15
DOCKED: ATOM     15  N   UNL     1     -36.127 -14.614  12.175 -0.04 +0.00    +0.141 N  
DOCKED: ATOM     16  C   UNL     1     -36.638 -14.047  10.926 -0.08 +0.00    +0.285 C  
DOCKED: ATOM     17  C   UNL     1     -37.195 -14.684  13.174 -0.01 +0.00    +0.285 C  
DOCKED: ENDBRANCH  14  15
DOCKED: ENDBRANCH  13  14
DOCKED: ENDBRANCH  12  13
DOCKED: ENDBRANCH   2  12
DOCKED: BRANCH   2  18
DOCKED: ATOM     18  C   UNL     1     -39.308 -18.158  12.359 -0.17 +0.00    +0.006 A  
DOCKED: ATOM     19  C   UNL     1     -38.843 -19.278  13.047 -0.22 +0.00    +0.001 A  
DOCKED: ATOM     20  C   UNL     1     -39.553 -19.764  14.146 -0.17 +0.00    +0.029 A  
DOCKED: ATOM     21  C   UNL     1     -40.725 -19.130  14.555 -0.10 +0.00    +0.140 A  
DOCKED: ATOM     22  C   UNL     1     -41.189 -18.010  13.867 -0.08 +0.00    +0.029 A  
DOCKED: ATOM     23  F   UNL     1     -41.404 -19.596  15.611 -0.02 -0.00    -0.204 F  
DOCKED: ATOM     24  C   UNL     1     -40.480 -17.523  12.767 -0.09 +0.00    +0.001 A  
DOCKED: ENDBRANCH   2  18
DOCKED: TORSDOF 5
DOCKED: TER
DOCKED: ENDMDL
________________________________________________________________________________


    FINAL DOCKED STATE:
    ________________________


Run:   274 / 512
Time taken for this run:   0.002s

DOCKED: MODEL        274
DOCKED: USER    Run = 274
DOCKED: USER
DOCKED: USER    Estimated Free Energy of Binding    =  -3.57 kcal/mol  [=(1)+(2)+(3)-(4)]
DOCKED: USER
DOCKED: USER    (1) Final Intermolecular Energy     =  -5.06 kcal/mol
DOCKED: USER        vdW + Hbond + desolv Energy     =  -5.06 kcal/mol
DOCKED: USER        Electrostatic Energy            =  +0.00 kcal/mol
DOCKED: USER        Moving Ligand-Fixed Receptor    =  -5.06 kcal/mol
DOCKED: USER        Moving Ligand-Moving Receptor   =  +0.00 kcal/mol
DOCKED: USER    (2) Final Total Internal Energy     =  -1.38 kcal/mol
DOCKED: USER    (3) Torsional Free Energy           =  +1.49 kcal/mol
DOCKED: USER    (4) Unbound System's Energy         =  -1.38 kcal/mol
DOCKED: USER
DOCKED: USER
DOCKED: REMARK  5 active torsions:
DOCKED: REMARK  status: ('A' for Active; 'I' for Inactive)
DOCKED: REMARK    1  A    between atoms: C_2  and  C_19 
DOCKED: REMARK    2  A    between atoms: C_2  and  C_11 
DOCKED: REMARK    3  A    between atoms: C_19  and  C_20 
DOCKED: REMARK    4  A    between atoms: C_20  and  C_21 
DOCKED: REMARK    5  A    between atoms: C_21  and  N_22 
DOCKED: USER                              x       y       z     vdW  Elec       q    Type
DOCKED: USER                           _______ _______ _______ _____ _____    ______ ____
DOCKED: ROOT
DOCKED: ATOM      1  O   UNL     1     -41.414 -14.432  12.091 -0.01 -0.00    -0.346 OA 
DOCKED: ATOM      2  C   UNL     1     -40.317 -14.269  11.136 -0.13 +0.00    +0.130 C  
DOCKED: ATOM      3  C   UNL     1     -40.264 -15.588  10.421 -0.22 +0.00    +0.004 A  
DOCKED: ATOM      4  C   UNL     1     -41.309 -16.394  10.851 -0.17 +0.00    +0.006 A  
DOCKED: ATOM      5  C   UNL     1     -42.121 -15.671  11.855 -0.07 +0.00    +0.169 C  
DOCKED: ATOM      6  C   UNL     1     -39.370 -16.035   9.459 -0.27 -0.00    -0.001 A  
DOCKED: ATOM      7  C   UNL     1     -41.493 -17.668  10.341 -0.21 +0.00    +0.008 A  
DOCKED: ATOM      8  C   UNL     1     -39.540 -17.319   8.938 -0.35 +0.00    +0.010 A  
DOCKED: ATOM      9  C   UNL     1     -40.596 -18.131   9.377 -0.28 +0.00    +0.068 A  
DOCKED: ATOM     10  N   UNL     1     -40.886 -20.507   8.385 -2.39 -0.00    -0.191 NA 
DOCKED: ATOM     11  C   UNL     1     -40.756 -19.442   8.830 -0.39 +0.00    +0.101 C  
DOCKED: ENDROOT
DOCKED: BRANCH   2  12
DOCKED: ATOM     12  C   UNL     1     -40.651 -13.105  10.211 -0.21 +0.00    +0.038 C  
DOCKED: BRANCH  12  13
DOCKED: ATOM     13  C   UNL     1     -40.808 -11.801  10.990 -0.09 +0.00    +0.038 C  
DOCKED: BRANCH  13  14
DOCKED: ATOM     14  C   UNL     1     -42.271 -11.367  11.046 -0.05 +0.00    +0.251 C  
DOCKED: BRANCH  14  15
DOCKED: ATOM     15  N   UNL     1     -42.638 -10.997  12.408 -0.02 +0.00    +0.141 N  
DOCKED: ATOM     16  C   UNL     1     -43.974 -11.498  12.736 +0.00 +0.00    +0.285 C  
DOCKED: ATOM     17  C   UNL     1     -41.655 -11.509  13.364 -0.00 +0.00    +0.285 C  
DOCKED: ENDBRANCH  14  15
DOCKED: ENDBRANCH  13  14
DOCKED: ENDBRANCH  12  13
DOCKED: ENDBRANCH   2  12
DOCKED: BRANCH   2  18
DOCKED: ATOM     18  C   UNL     1     -39.085 -13.989  11.931 -0.06 +0.00    +0.006 A  
DOCKED: ATOM     19  C   UNL     1     -37.872 -13.765  11.281 -0.09 +0.00    +0.001 A  
DOCKED: ATOM     20  C   UNL     1     -36.721 -13.504  12.025 -0.04 +0.00    +0.029 A  
DOCKED: ATOM     21  C   UNL     1     -36.785 -13.465  13.417 -0.01 +0.00    +0.140 A  
DOCKED: ATOM     22  C   UNL     1     -37.999 -13.689  14.067 -0.01 +0.00    +0.029 A  
DOCKED: ATOM     23  F   UNL     1     -35.680 -13.212  14.131 +0.00 -0.00    -0.204 F  
DOCKED: ATOM     24  C   UNL     1     -39.150 -13.951  13.323 -0.02 +0.00    +0.001 A  
DOCKED: ENDBRANCH   2  18
DOCKED: TORSDOF 5
DOCKED: TER
DOCKED: ENDMDL
________________________________________________________________________________


    FINAL DOCKED STATE:
    ________________________


Run:   275 / 512
Time taken for this run:   0.002s

DOCKED: MODEL        275
DOCKED: USER    Run = 275
DOCKED: USER
DOCKED: USER    Estimated Free Energy of Binding    =  -4.39 kcal/mol  [=(1)+(2)+(3)-(4)]
DOCKED: USER
DOCKED: USER    (1) Final Intermolecular Energy     =  -5.88 kcal/mol
DOCKED: USER        vdW + Hbond + desolv Energy     =  -5.88 kcal/mol
DOCKED: USER        Electrostatic Energy            =  +0.00 kcal/mol
DOCKED: USER        Moving Ligand-Fixed Receptor    =  -5.88 kcal/mol
DOCKED: USER        Moving Ligand-Moving Receptor   =  +0.00 kcal/mol
DOCKED: USER    (2) Final Total Internal Energy     =  -1.29 kcal/mol
DOCKED: USER    (3) Torsional Free Energy           =  +1.49 kcal/mol
DOCKED: USER    (4) Unbound System's Energy         =  -1.29 kcal/mol
DOCKED: USER
DOCKED: USER
DOCKED: REMARK  5 active torsions:
DOCKED: REMARK  status: ('A' for Active; 'I' for Inactive)
DOCKED: REMARK    1  A    between atoms: C_2  and  C_19 
DOCKED: REMARK    2  A    between atoms: C_2  and  C_11 
DOCKED: REMARK    3  A    between atoms: C_19  and  C_20 
DOCKED: REMARK    4  A    between atoms: C_20  and  C_21 
DOCKED: REMARK    5  A    between atoms: C_21  and  N_22 
DOCKED: USER                              x       y       z     vdW  Elec       q    Type
DOCKED: USER                           _______ _______ _______ _____ _____    ______ ____
DOCKED: ROOT
DOCKED: ATOM      1  O   UNL     1     -38.348 -13.736  10.376 -0.06 -0.00    -0.346 OA 
DOCKED: ATOM      2  C   UNL     1     -39.760 -13.732  10.761 -0.14 +0.00    +0.130 C  
DOCKED: ATOM      3  C   UNL     1     -40.245 -15.096  10.361 -0.22 +0.00    +0.004 A  
DOCKED: ATOM      4  C   UNL     1     -39.179 -15.851   9.892 -0.27 +0.00    +0.006 A  
DOCKED: ATOM      5  C   UNL     1     -37.932 -15.057   9.959 -0.17 +0.00    +0.169 C  
DOCKED: ATOM      6  C   UNL     1     -41.524 -15.629  10.419 -0.22 -0.00    -0.001 A  
DOCKED: ATOM      7  C   UNL     1     -39.355 -17.156   9.462 -0.34 +0.00    +0.008 A  
DOCKED: ATOM      8  C   UNL     1     -41.718 -16.942   9.985 -0.22 +0.00    +0.010 A  
DOCKED: ATOM      9  C   UNL     1     -40.638 -17.701   9.510 -0.26 +0.00    +0.068 A  
DOCKED: ATOM     10  N   UNL     1     -41.032 -20.136   8.718 -2.56 -0.00    -0.191 NA 
DOCKED: ATOM     11  C   UNL     1     -40.856 -19.044   9.072 -0.36 +0.00    +0.101 C  
DOCKED: ENDROOT
DOCKED: BRANCH   2  12
DOCKED: ATOM     12  C   UNL     1     -39.851 -13.487  12.262 -0.05 +0.00    +0.038 C  
DOCKED: BRANCH  12  13
DOCKED: ATOM     13  C   UNL     1     -39.860 -11.994  12.583 -0.02 +0.00    +0.038 C  
DOCKED: BRANCH  13  14
DOCKED: ATOM     14  C   UNL     1     -38.774 -11.643  13.598 -0.00 +0.00    +0.251 C  
DOCKED: BRANCH  14  15
DOCKED: ATOM     15  N   UNL     1     -37.763 -10.790  12.985 -0.00 +0.00    +0.141 N  
DOCKED: ATOM     16  C   UNL     1     -37.171 -11.447  11.819 -0.01 +0.00    +0.285 C  
DOCKED: ATOM     17  C   UNL     1     -38.340  -9.500  12.602 +0.00 +0.00    +0.285 C  
DOCKED: ENDBRANCH  14  15
DOCKED: ENDBRANCH  13  14
DOCKED: ENDBRANCH  12  13
DOCKED: ENDBRANCH   2  12
DOCKED: BRANCH   2  18
DOCKED: ATOM     18  C   UNL     1     -40.418 -12.634   9.995 -0.19 +0.00    +0.006 A  
DOCKED: ATOM     19  C   UNL     1     -39.652 -11.787   9.194 -0.14 +0.00    +0.001 A  
DOCKED: ATOM     20  C   UNL     1     -40.269 -10.759   8.479 -0.16 +0.00    +0.029 A  
DOCKED: ATOM     21  C   UNL     1     -41.649 -10.581   8.565 -0.11 +0.00    +0.140 A  
DOCKED: ATOM     22  C   UNL     1     -42.414 -11.428   9.365 -0.15 +0.00    +0.029 A  
DOCKED: ATOM     23  F   UNL     1     -42.240  -9.596   7.876 -0.02 -0.00    -0.204 F  
DOCKED: ATOM     24  C   UNL     1     -41.798 -12.456  10.082 -0.21 +0.00    +0.001 A  
DOCKED: ENDBRANCH   2  18
DOCKED: TORSDOF 5
DOCKED: TER
DOCKED: ENDMDL
________________________________________________________________________________


    FINAL DOCKED STATE:
    ________________________


Run:   276 / 512
Time taken for this run:   0.002s

DOCKED: MODEL        276
DOCKED: USER    Run = 276
DOCKED: USER
DOCKED: USER    Estimated Free Energy of Binding    =  -3.87 kcal/mol  [=(1)+(2)+(3)-(4)]
DOCKED: USER
DOCKED: USER    (1) Final Intermolecular Energy     =  -5.36 kcal/mol
DOCKED: USER        vdW + Hbond + desolv Energy     =  -5.36 kcal/mol
DOCKED: USER        Electrostatic Energy            =  +0.00 kcal/mol
DOCKED: USER        Moving Ligand-Fixed Receptor    =  -5.36 kcal/mol
DOCKED: USER        Moving Ligand-Moving Receptor   =  +0.00 kcal/mol
DOCKED: USER    (2) Final Total Internal Energy     =  -1.59 kcal/mol
DOCKED: USER    (3) Torsional Free Energy           =  +1.49 kcal/mol
DOCKED: USER    (4) Unbound System's Energy         =  -1.59 kcal/mol
DOCKED: USER
DOCKED: USER
DOCKED: REMARK  5 active torsions:
DOCKED: REMARK  status: ('A' for Active; 'I' for Inactive)
DOCKED: REMARK    1  A    between atoms: C_2  and  C_19 
DOCKED: REMARK    2  A    between atoms: C_2  and  C_11 
DOCKED: REMARK    3  A    between atoms: C_19  and  C_20 
DOCKED: REMARK    4  A    between atoms: C_20  and  C_21 
DOCKED: REMARK    5  A    between atoms: C_21  and  N_22 
DOCKED: USER                              x       y       z     vdW  Elec       q    Type
DOCKED: USER                           _______ _______ _______ _____ _____    ______ ____
DOCKED: ROOT
DOCKED: ATOM      1  O   UNL     1     -39.994 -13.643  10.497 -0.08 -0.00    -0.346 OA 
DOCKED: ATOM      2  C   UNL     1     -38.691 -14.287  10.666 -0.15 +0.00    +0.130 C  
DOCKED: ATOM      3  C   UNL     1     -38.947 -15.718  10.293 -0.24 +0.00    +0.004 A  
DOCKED: ATOM      4  C   UNL     1     -40.252 -15.858   9.845 -0.26 +0.00    +0.006 A  
DOCKED: ATOM      5  C   UNL     1     -40.937 -14.547   9.876 -0.15 +0.00    +0.169 C  
DOCKED: ATOM      6  C   UNL     1     -38.089 -16.808  10.337 -0.17 -0.00    -0.001 A  
DOCKED: ATOM      7  C   UNL     1     -40.744 -17.084   9.431 -0.26 +0.00    +0.008 A  
DOCKED: ATOM      8  C   UNL     1     -38.572 -18.052   9.928 -0.31 +0.00    +0.010 A  
DOCKED: ATOM      9  C   UNL     1     -39.893 -18.189   9.476 -0.31 +0.00    +0.068 A  
DOCKED: ATOM     10  N   UNL     1     -40.756 -20.511   8.718 -2.60 -0.00    -0.191 NA 
DOCKED: ATOM     11  C   UNL     1     -40.369 -19.470   9.059 -0.34 +0.00    +0.101 C  
DOCKED: ENDROOT
DOCKED: BRANCH   2  12
DOCKED: ATOM     12  C   UNL     1     -37.691 -13.602   9.742 -0.17 +0.00    +0.038 C  
DOCKED: BRANCH  12  13
DOCKED: ATOM     13  C   UNL     1     -38.216 -12.254   9.253 -0.10 +0.00    +0.038 C  
DOCKED: BRANCH  13  14
DOCKED: ATOM     14  C   UNL     1     -37.948 -11.155  10.279 -0.03 +0.00    +0.251 C  
DOCKED: BRANCH  14  15
DOCKED: ATOM     15  N   UNL     1     -39.042 -11.081  11.241 -0.02 +0.00    +0.141 N  
DOCKED: ATOM     16  C   UNL     1     -38.671 -10.241  12.381 -0.00 +0.00    +0.285 C  
DOCKED: ATOM     17  C   UNL     1     -40.254 -10.564  10.603 -0.03 +0.00    +0.285 C  
DOCKED: ENDBRANCH  14  15
DOCKED: ENDBRANCH  13  14
DOCKED: ENDBRANCH  12  13
DOCKED: ENDBRANCH   2  12
DOCKED: BRANCH   2  18
DOCKED: ATOM     18  C   UNL     1     -38.304 -14.118  12.097 -0.05 +0.00    +0.006 A  
DOCKED: ATOM     19  C   UNL     1     -39.192 -14.486  13.107 -0.03 +0.00    +0.001 A  
DOCKED: ATOM     20  C   UNL     1     -38.828 -14.328  14.445 -0.00 +0.00    +0.029 A  
DOCKED: ATOM     21  C   UNL     1     -37.579 -13.803  14.771 -0.00 +0.00    +0.140 A  
DOCKED: ATOM     22  C   UNL     1     -36.691 -13.435  13.760 -0.01 +0.00    +0.029 A  
DOCKED: ATOM     23  F   UNL     1     -37.230 -13.653  16.055 +0.00 -0.00    -0.204 F  
DOCKED: ATOM     24  C   UNL     1     -37.054 -13.593  12.422 -0.03 +0.00    +0.001 A  
DOCKED: ENDBRANCH   2  18
DOCKED: TORSDOF 5
DOCKED: TER
DOCKED: ENDMDL
________________________________________________________________________________


    FINAL DOCKED STATE:
    ________________________


Run:   277 / 512
Time taken for this run:   0.002s

DOCKED: MODEL        277
DOCKED: USER    Run = 277
DOCKED: USER
DOCKED: USER    Estimated Free Energy of Binding    =  -4.53 kcal/mol  [=(1)+(2)+(3)-(4)]
DOCKED: USER
DOCKED: USER    (1) Final Intermolecular Energy     =  -6.02 kcal/mol
DOCKED: USER        vdW + Hbond + desolv Energy     =  -6.02 kcal/mol
DOCKED: USER        Electrostatic Energy            =  +0.00 kcal/mol
DOCKED: USER        Moving Ligand-Fixed Receptor    =  -6.02 kcal/mol
DOCKED: USER        Moving Ligand-Moving Receptor   =  +0.00 kcal/mol
DOCKED: USER    (2) Final Total Internal Energy     =  -1.42 kcal/mol
DOCKED: USER    (3) Torsional Free Energy           =  +1.49 kcal/mol
DOCKED: USER    (4) Unbound System's Energy         =  -1.42 kcal/mol
DOCKED: USER
DOCKED: USER
DOCKED: REMARK  5 active torsions:
DOCKED: REMARK  status: ('A' for Active; 'I' for Inactive)
DOCKED: REMARK    1  A    between atoms: C_2  and  C_19 
DOCKED: REMARK    2  A    between atoms: C_2  and  C_11 
DOCKED: REMARK    3  A    between atoms: C_19  and  C_20 
DOCKED: REMARK    4  A    between atoms: C_20  and  C_21 
DOCKED: REMARK    5  A    between atoms: C_21  and  N_22 
DOCKED: USER                              x       y       z     vdW  Elec       q    Type
DOCKED: USER                           _______ _______ _______ _____ _____    ______ ____
DOCKED: ROOT
DOCKED: ATOM      1  O   UNL     1     -39.288 -18.886  12.461 -0.08 -0.00    -0.346 OA 
DOCKED: ATOM      2  C   UNL     1     -39.118 -17.537  11.919 -0.14 +0.00    +0.130 C  
DOCKED: ATOM      3  C   UNL     1     -39.471 -17.685  10.467 -0.27 +0.00    +0.004 A  
DOCKED: ATOM      4  C   UNL     1     -39.912 -18.978  10.224 -0.31 +0.00    +0.006 A  
DOCKED: ATOM      5  C   UNL     1     -39.893 -19.760  11.480 -0.11 +0.00    +0.169 C  
DOCKED: ATOM      6  C   UNL     1     -39.418 -16.748   9.446 -0.32 -0.00    -0.001 A  
DOCKED: ATOM      7  C   UNL     1     -40.308 -19.378   8.959 -0.41 +0.00    +0.008 A  
DOCKED: ATOM      8  C   UNL     1     -39.810 -17.137   8.164 -0.12 +0.00    +0.010 A  
DOCKED: ATOM      9  C   UNL     1     -40.253 -18.446   7.922 -0.40 +0.00    +0.068 A  
DOCKED: ATOM     10  N   UNL     1     -40.978 -19.134   5.532 -2.24 -0.00    -0.191 NA 
DOCKED: ATOM     11  C   UNL     1     -40.652 -18.826   6.604 -0.51 +0.00    +0.101 C  
DOCKED: ENDROOT
DOCKED: BRANCH   2  12
DOCKED: ATOM     12  C   UNL     1     -40.055 -16.595  12.665 -0.08 +0.00    +0.038 C  
DOCKED: BRANCH  12  13
DOCKED: ATOM     13  C   UNL     1     -41.481 -16.684  12.124 -0.10 +0.00    +0.038 C  
DOCKED: BRANCH  13  14
DOCKED: ATOM     14  C   UNL     1     -42.408 -17.364  13.130 -0.02 +0.00    +0.251 C  
DOCKED: BRANCH  14  15
DOCKED: ATOM     15  N   UNL     1     -43.348 -18.240  12.441 -0.07 +0.00    +0.141 N  
DOCKED: ATOM     16  C   UNL     1     -43.171 -18.150  10.991 -0.07 +0.00    +0.285 C  
DOCKED: ATOM     17  C   UNL     1     -43.184 -19.625  12.888 -0.07 +0.00    +0.285 C  
DOCKED: ENDBRANCH  14  15
DOCKED: ENDBRANCH  13  14
DOCKED: ENDBRANCH  12  13
DOCKED: ENDBRANCH   2  12
DOCKED: BRANCH   2  18
DOCKED: ATOM     18  C   UNL     1     -37.690 -17.158  12.134 -0.17 +0.00    +0.006 A  
DOCKED: ATOM     19  C   UNL     1     -37.371 -16.098  12.982 -0.08 +0.00    +0.001 A  
DOCKED: ATOM     20  C   UNL     1     -36.036 -15.745  13.182 -0.06 +0.00    +0.029 A  
DOCKED: ATOM     21  C   UNL     1     -35.023 -16.451  12.535 -0.09 +0.00    +0.140 A  
DOCKED: ATOM     22  C   UNL     1     -35.343 -17.511  11.687 -0.14 +0.00    +0.029 A  
DOCKED: ATOM     23  F   UNL     1     -33.742 -16.112  12.729 -0.01 -0.00    -0.204 F  
DOCKED: ATOM     24  C   UNL     1     -36.678 -17.865  11.486 -0.14 +0.00    +0.001 A  
DOCKED: ENDBRANCH   2  18
DOCKED: TORSDOF 5
DOCKED: TER
DOCKED: ENDMDL
________________________________________________________________________________


    FINAL DOCKED STATE:
    ________________________


Run:   278 / 512
Time taken for this run:   0.002s

DOCKED: MODEL        278
DOCKED: USER    Run = 278
DOCKED: USER
DOCKED: USER    Estimated Free Energy of Binding    =  -3.56 kcal/mol  [=(1)+(2)+(3)-(4)]
DOCKED: USER
DOCKED: USER    (1) Final Intermolecular Energy     =  -5.05 kcal/mol
DOCKED: USER        vdW + Hbond + desolv Energy     =  -5.05 kcal/mol
DOCKED: USER        Electrostatic Energy            =  +0.00 kcal/mol
DOCKED: USER        Moving Ligand-Fixed Receptor    =  -5.05 kcal/mol
DOCKED: USER        Moving Ligand-Moving Receptor   =  +0.00 kcal/mol
DOCKED: USER    (2) Final Total Internal Energy     =  -1.59 kcal/mol
DOCKED: USER    (3) Torsional Free Energy           =  +1.49 kcal/mol
DOCKED: USER    (4) Unbound System's Energy         =  -1.59 kcal/mol
DOCKED: USER
DOCKED: USER
DOCKED: REMARK  5 active torsions:
DOCKED: REMARK  status: ('A' for Active; 'I' for Inactive)
DOCKED: REMARK    1  A    between atoms: C_2  and  C_19 
DOCKED: REMARK    2  A    between atoms: C_2  and  C_11 
DOCKED: REMARK    3  A    between atoms: C_19  and  C_20 
DOCKED: REMARK    4  A    between atoms: C_20  and  C_21 
DOCKED: REMARK    5  A    between atoms: C_21  and  N_22 
DOCKED: USER                              x       y       z     vdW  Elec       q    Type
DOCKED: USER                           _______ _______ _______ _____ _____    ______ ____
DOCKED: ROOT
DOCKED: ATOM      1  O   UNL     1     -37.480 -14.400  11.002 -0.05 -0.00    -0.346 OA 
DOCKED: ATOM      2  C   UNL     1     -37.337 -15.438  12.023 -0.09 +0.00    +0.130 C  
DOCKED: ATOM      3  C   UNL     1     -38.125 -16.593  11.475 -0.18 +0.00    +0.004 A  
DOCKED: ATOM      4  C   UNL     1     -38.585 -16.282  10.203 -0.26 +0.00    +0.006 A  
DOCKED: ATOM      5  C   UNL     1     -38.130 -14.926   9.821 -0.19 +0.00    +0.169 C  
DOCKED: ATOM      6  C   UNL     1     -38.403 -17.824  12.050 -0.19 -0.00    -0.001 A  
DOCKED: ATOM      7  C   UNL     1     -39.337 -17.183   9.468 -0.34 +0.00    +0.008 A  
DOCKED: ATOM      8  C   UNL     1     -39.164 -18.741  11.324 -0.27 +0.00    +0.010 A  
DOCKED: ATOM      9  C   UNL     1     -39.628 -18.422  10.040 -0.28 +0.00    +0.068 A  
DOCKED: ATOM     10  N   UNL     1     -41.035 -20.150   8.717 -2.56 -0.00    -0.191 NA 
DOCKED: ATOM     11  C   UNL     1     -40.405 -19.375   9.311 -0.33 +0.00    +0.101 C  
DOCKED: ENDROOT
DOCKED: BRANCH   2  12
DOCKED: ATOM     12  C   UNL     1     -35.855 -15.755  12.185 -0.12 +0.00    +0.038 C  
DOCKED: BRANCH  12  13
DOCKED: ATOM     13  C   UNL     1     -34.982 -14.617  11.661 -0.08 +0.00    +0.038 C  
DOCKED: BRANCH  13  14
DOCKED: ATOM     14  C   UNL     1     -34.751 -13.560  12.739 -0.01 +0.00    +0.251 C  
DOCKED: BRANCH  14  15
DOCKED: ATOM     15  N   UNL     1     -35.727 -12.484  12.611 -0.01 +0.00    +0.141 N  
DOCKED: ATOM     16  C   UNL     1     -35.498 -11.457  13.628 -0.00 +0.00    +0.285 C  
DOCKED: ATOM     17  C   UNL     1     -35.672 -11.894  11.273 -0.01 +0.00    +0.285 C  
DOCKED: ENDBRANCH  14  15
DOCKED: ENDBRANCH  13  14
DOCKED: ENDBRANCH  12  13
DOCKED: ENDBRANCH   2  12
DOCKED: BRANCH   2  18
DOCKED: ATOM     18  C   UNL     1     -37.912 -14.890  13.286 -0.03 +0.00    +0.006 A  
DOCKED: ATOM     19  C   UNL     1     -38.860 -13.869  13.234 -0.02 +0.00    +0.001 A  
DOCKED: ATOM     20  C   UNL     1     -39.397 -13.357  14.416 -0.00 +0.00    +0.029 A  
DOCKED: ATOM     21  C   UNL     1     -38.985 -13.866  15.647 +0.00 +0.00    +0.140 A  
DOCKED: ATOM     22  C   UNL     1     -38.037 -14.887  15.698 -0.00 +0.00    +0.029 A  
DOCKED: ATOM     23  F   UNL     1     -39.501 -13.375  16.781 +0.00 -0.00    -0.204 F  
DOCKED: ATOM     24  C   UNL     1     -37.499 -15.400  14.516 -0.02 +0.00    +0.001 A  
DOCKED: ENDBRANCH   2  18
DOCKED: TORSDOF 5
DOCKED: TER
DOCKED: ENDMDL
________________________________________________________________________________


    FINAL DOCKED STATE:
    ________________________


Run:   279 / 512
Time taken for this run:   0.002s

DOCKED: MODEL        279
DOCKED: USER    Run = 279
DOCKED: USER
DOCKED: USER    Estimated Free Energy of Binding    =  -5.31 kcal/mol  [=(1)+(2)+(3)-(4)]
DOCKED: USER
DOCKED: USER    (1) Final Intermolecular Energy     =  -6.80 kcal/mol
DOCKED: USER        vdW + Hbond + desolv Energy     =  -6.80 kcal/mol
DOCKED: USER        Electrostatic Energy            =  +0.00 kcal/mol
DOCKED: USER        Moving Ligand-Fixed Receptor    =  -6.80 kcal/mol
DOCKED: USER        Moving Ligand-Moving Receptor   =  +0.00 kcal/mol
DOCKED: USER    (2) Final Total Internal Energy     =  -1.29 kcal/mol
DOCKED: USER    (3) Torsional Free Energy           =  +1.49 kcal/mol
DOCKED: USER    (4) Unbound System's Energy         =  -1.29 kcal/mol
DOCKED: USER
DOCKED: USER
DOCKED: REMARK  5 active torsions:
DOCKED: REMARK  status: ('A' for Active; 'I' for Inactive)
DOCKED: REMARK    1  A    between atoms: C_2  and  C_19 
DOCKED: REMARK    2  A    between atoms: C_2  and  C_11 
DOCKED: REMARK    3  A    between atoms: C_19  and  C_20 
DOCKED: REMARK    4  A    between atoms: C_20  and  C_21 
DOCKED: REMARK    5  A    between atoms: C_21  and  N_22 
DOCKED: USER                              x       y       z     vdW  Elec       q    Type
DOCKED: USER                           _______ _______ _______ _____ _____    ______ ____
DOCKED: ROOT
DOCKED: ATOM      1  O   UNL     1     -38.505 -15.986  11.191 -0.06 -0.00    -0.346 OA 
DOCKED: ATOM      2  C   UNL     1     -38.217 -17.418  11.274 -0.22 +0.00    +0.130 C  
DOCKED: ATOM      3  C   UNL     1     -38.817 -17.979  10.018 -0.33 +0.00    +0.004 A  
DOCKED: ATOM      4  C   UNL     1     -39.307 -16.945   9.232 -0.31 +0.00    +0.006 A  
DOCKED: ATOM      5  C   UNL     1     -39.057 -15.647   9.898 -0.23 +0.00    +0.169 C  
DOCKED: ATOM      6  C   UNL     1     -38.911 -19.298   9.598 -0.42 -0.00    -0.001 A  
DOCKED: ATOM      7  C   UNL     1     -39.908 -17.192   8.010 -0.09 +0.00    +0.008 A  
DOCKED: ATOM      8  C   UNL     1     -39.519 -19.563   8.370 -0.46 +0.00    +0.010 A  
DOCKED: ATOM      9  C   UNL     1     -40.015 -18.515   7.580 -0.40 +0.00    +0.068 A  
DOCKED: ATOM     10  N   UNL     1     -41.133 -19.042   5.303 -2.59 -0.00    -0.191 NA 
DOCKED: ATOM     11  C   UNL     1     -40.632 -18.806   6.324 -0.47 +0.00    +0.101 C  
DOCKED: ENDROOT
DOCKED: BRANCH   2  12
DOCKED: ATOM     12  C   UNL     1     -36.705 -17.603  11.344 -0.17 +0.00    +0.038 C  
DOCKED: BRANCH  12  13
DOCKED: ATOM     13  C   UNL     1     -36.217 -17.660  12.790 -0.10 +0.00    +0.038 C  
DOCKED: BRANCH  13  14
DOCKED: ATOM     14  C   UNL     1     -35.612 -16.324  13.219 -0.06 +0.00    +0.251 C  
DOCKED: BRANCH  14  15
DOCKED: ATOM     15  N   UNL     1     -35.744 -15.341  12.150 -0.07 +0.00    +0.141 N  
DOCKED: ATOM     16  C   UNL     1     -36.220 -14.063  12.680 -0.02 +0.00    +0.285 C  
DOCKED: ATOM     17  C   UNL     1     -34.468 -15.160  11.456 -0.06 +0.00    +0.285 C  
DOCKED: ENDBRANCH  14  15
DOCKED: ENDBRANCH  13  14
DOCKED: ENDBRANCH  12  13
DOCKED: ENDBRANCH   2  12
DOCKED: BRANCH   2  18
DOCKED: ATOM     18  C   UNL     1     -38.879 -17.925  12.512 -0.15 +0.00    +0.006 A  
DOCKED: ATOM     19  C   UNL     1     -39.299 -17.029  13.494 -0.07 +0.00    +0.001 A  
DOCKED: ATOM     20  C   UNL     1     -39.918 -17.505  14.651 -0.05 +0.00    +0.029 A  
DOCKED: ATOM     21  C   UNL     1     -40.116 -18.874  14.823 -0.09 +0.00    +0.140 A  
DOCKED: ATOM     22  C   UNL     1     -39.695 -19.770  13.840 -0.13 +0.00    +0.029 A  
DOCKED: ATOM     23  F   UNL     1     -40.712 -19.330  15.933 -0.01 -0.00    -0.204 F  
DOCKED: ATOM     24  C   UNL     1     -39.076 -19.295  12.683 -0.25 +0.00    +0.001 A  
DOCKED: ENDBRANCH   2  18
DOCKED: TORSDOF 5
DOCKED: TER
DOCKED: ENDMDL
________________________________________________________________________________


    FINAL DOCKED STATE:
    ________________________


Run:   280 / 512
Time taken for this run:   0.002s

DOCKED: MODEL        280
DOCKED: USER    Run = 280
DOCKED: USER
DOCKED: USER    Estimated Free Energy of Binding    =  -3.69 kcal/mol  [=(1)+(2)+(3)-(4)]
DOCKED: USER
DOCKED: USER    (1) Final Intermolecular Energy     =  -5.18 kcal/mol
DOCKED: USER        vdW + Hbond + desolv Energy     =  -5.18 kcal/mol
DOCKED: USER        Electrostatic Energy            =  +0.00 kcal/mol
DOCKED: USER        Moving Ligand-Fixed Receptor    =  -5.18 kcal/mol
DOCKED: USER        Moving Ligand-Moving Receptor   =  +0.00 kcal/mol
DOCKED: USER    (2) Final Total Internal Energy     =  -1.40 kcal/mol
DOCKED: USER    (3) Torsional Free Energy           =  +1.49 kcal/mol
DOCKED: USER    (4) Unbound System's Energy         =  -1.40 kcal/mol
DOCKED: USER
DOCKED: USER
DOCKED: REMARK  5 active torsions:
DOCKED: REMARK  status: ('A' for Active; 'I' for Inactive)
DOCKED: REMARK    1  A    between atoms: C_2  and  C_19 
DOCKED: REMARK    2  A    between atoms: C_2  and  C_11 
DOCKED: REMARK    3  A    between atoms: C_19  and  C_20 
DOCKED: REMARK    4  A    between atoms: C_20  and  C_21 
DOCKED: REMARK    5  A    between atoms: C_21  and  N_22 
DOCKED: USER                              x       y       z     vdW  Elec       q    Type
DOCKED: USER                           _______ _______ _______ _____ _____    ______ ____
DOCKED: ROOT
DOCKED: ATOM      1  O   UNL     1     -32.209 -13.920   3.979 +0.01 -0.00    -0.346 OA 
DOCKED: ATOM      2  C   UNL     1     -33.479 -14.583   3.679 -0.13 +0.00    +0.130 C  
DOCKED: ATOM      3  C   UNL     1     -33.465 -15.800   4.558 -0.19 +0.00    +0.004 A  
DOCKED: ATOM      4  C   UNL     1     -32.340 -15.777   5.370 -0.09 +0.00    +0.006 A  
DOCKED: ATOM      5  C   UNL     1     -31.549 -14.556   5.099 -0.02 +0.00    +0.169 C  
DOCKED: ATOM      6  C   UNL     1     -34.381 -16.839   4.641 -0.28 -0.00    -0.001 A  
DOCKED: ATOM      7  C   UNL     1     -32.089 -16.787   6.284 -0.13 +0.00    +0.008 A  
DOCKED: ATOM      8  C   UNL     1     -34.140 -17.867   5.555 -0.29 +0.00    +0.010 A  
DOCKED: ATOM      9  C   UNL     1     -33.000 -17.840   6.372 -0.23 +0.00    +0.068 A  
DOCKED: ATOM     10  N   UNL     1     -32.587 -19.761   8.061 -2.03 -0.00    -0.191 NA 
DOCKED: ATOM     11  C   UNL     1     -32.772 -18.900   7.303 -0.28 +0.00    +0.101 C  
DOCKED: ENDROOT
DOCKED: BRANCH   2  12
DOCKED: ATOM     12  C   UNL     1     -34.615 -13.624   4.012 -0.18 +0.00    +0.038 C  
DOCKED: BRANCH  12  13
DOCKED: ATOM     13  C   UNL     1     -34.234 -12.684   5.154 -0.07 +0.00    +0.038 C  
DOCKED: BRANCH  13  14
DOCKED: ATOM     14  C   UNL     1     -35.118 -12.919   6.377 -0.09 +0.00    +0.251 C  
DOCKED: BRANCH  14  15
DOCKED: ATOM     15  N   UNL     1     -34.306 -12.978   7.586 -0.06 +0.00    +0.141 N  
DOCKED: ATOM     16  C   UNL     1     -34.334 -14.323   8.163 -0.05 +0.00    +0.285 C  
DOCKED: ATOM     17  C   UNL     1     -32.927 -12.578   7.301 -0.01 +0.00    +0.285 C  
DOCKED: ENDBRANCH  14  15
DOCKED: ENDBRANCH  13  14
DOCKED: ENDBRANCH  12  13
DOCKED: ENDBRANCH   2  12
DOCKED: BRANCH   2  18
DOCKED: ATOM     18  C   UNL     1     -33.463 -14.916   2.225 -0.17 +0.00    +0.006 A  
DOCKED: ATOM     19  C   UNL     1     -34.233 -14.172   1.332 -0.20 +0.00    +0.001 A  
DOCKED: ATOM     20  C   UNL     1     -34.218 -14.485  -0.028 -0.24 +0.00    +0.029 A  
DOCKED: ATOM     21  C   UNL     1     -33.434 -15.540  -0.493 -0.19 +0.00    +0.140 A  
DOCKED: ATOM     22  C   UNL     1     -32.665 -16.284   0.401 -0.10 +0.00    +0.029 A  
DOCKED: ATOM     23  F   UNL     1     -33.419 -15.839  -1.798 -0.08 -0.00    -0.204 F  
DOCKED: ATOM     24  C   UNL     1     -32.679 -15.972   1.762 -0.07 +0.00    +0.001 A  
DOCKED: ENDBRANCH   2  18
DOCKED: TORSDOF 5
DOCKED: TER
DOCKED: ENDMDL
________________________________________________________________________________


    FINAL DOCKED STATE:
    ________________________


Run:   281 / 512
Time taken for this run:   0.002s

DOCKED: MODEL        281
DOCKED: USER    Run = 281
DOCKED: USER
DOCKED: USER    Estimated Free Energy of Binding    =  -5.73 kcal/mol  [=(1)+(2)+(3)-(4)]
DOCKED: USER
DOCKED: USER    (1) Final Intermolecular Energy     =  -7.23 kcal/mol
DOCKED: USER        vdW + Hbond + desolv Energy     =  -7.23 kcal/mol
DOCKED: USER        Electrostatic Energy            =  +0.00 kcal/mol
DOCKED: USER        Moving Ligand-Fixed Receptor    =  -7.23 kcal/mol
DOCKED: USER        Moving Ligand-Moving Receptor   =  +0.00 kcal/mol
DOCKED: USER    (2) Final Total Internal Energy     =  -1.50 kcal/mol
DOCKED: USER    (3) Torsional Free Energy           =  +1.49 kcal/mol
DOCKED: USER    (4) Unbound System's Energy         =  -1.50 kcal/mol
DOCKED: USER
DOCKED: USER
DOCKED: REMARK  5 active torsions:
DOCKED: REMARK  status: ('A' for Active; 'I' for Inactive)
DOCKED: REMARK    1  A    between atoms: C_2  and  C_19 
DOCKED: REMARK    2  A    between atoms: C_2  and  C_11 
DOCKED: REMARK    3  A    between atoms: C_19  and  C_20 
DOCKED: REMARK    4  A    between atoms: C_20  and  C_21 
DOCKED: REMARK    5  A    between atoms: C_21  and  N_22 
DOCKED: USER                              x       y       z     vdW  Elec       q    Type
DOCKED: USER                           _______ _______ _______ _____ _____    ______ ____
DOCKED: ROOT
DOCKED: ATOM      1  O   UNL     1     -38.057 -19.088  11.095 -0.19 -0.00    -0.346 OA 
DOCKED: ATOM      2  C   UNL     1     -39.195 -18.170  11.151 -0.22 +0.00    +0.130 C  
DOCKED: ATOM      3  C   UNL     1     -39.817 -18.286   9.789 -0.34 +0.00    +0.004 A  
DOCKED: ATOM      4  C   UNL     1     -39.161 -19.264   9.057 -0.43 +0.00    +0.006 A  
DOCKED: ATOM      5  C   UNL     1     -38.083 -19.865   9.875 -0.27 +0.00    +0.169 C  
DOCKED: ATOM      6  C   UNL     1     -40.887 -17.588   9.247 -0.30 -0.00    -0.001 A  
DOCKED: ATOM      7  C   UNL     1     -39.544 -19.576   7.764 -0.39 +0.00    +0.008 A  
DOCKED: ATOM      8  C   UNL     1     -41.282 -17.888   7.942 -0.03 +0.00    +0.010 A  
DOCKED: ATOM      9  C   UNL     1     -40.614 -18.877   7.205 -0.45 +0.00    +0.068 A  
DOCKED: ATOM     10  N   UNL     1     -41.377 -19.411   4.787 -2.87 -0.00    -0.191 NA 
DOCKED: ATOM     11  C   UNL     1     -41.035 -19.171   5.871 -0.30 +0.00    +0.101 C  
DOCKED: ENDROOT
DOCKED: BRANCH   2  12
DOCKED: ATOM     12  C   UNL     1     -40.126 -18.624  12.269 -0.21 +0.00    +0.038 C  
DOCKED: BRANCH  12  13
DOCKED: ATOM     13  C   UNL     1     -39.580 -19.859  12.982 -0.21 +0.00    +0.038 C  
DOCKED: BRANCH  13  14
DOCKED: ATOM     14  C   UNL     1     -38.967 -19.490  14.331 -0.16 +0.00    +0.251 C  
DOCKED: BRANCH  14  15
DOCKED: ATOM     15  N   UNL     1     -38.493 -18.111  14.312 -0.09 +0.00    +0.141 N  
DOCKED: ATOM     16  C   UNL     1     -39.071 -17.352  15.422 -0.02 +0.00    +0.285 C  
DOCKED: ATOM     17  C   UNL     1     -37.031 -18.067  14.374 -0.06 +0.00    +0.285 C  
DOCKED: ENDBRANCH  14  15
DOCKED: ENDBRANCH  13  14
DOCKED: ENDBRANCH  12  13
DOCKED: ENDBRANCH   2  12
DOCKED: BRANCH   2  18
DOCKED: ATOM     18  C   UNL     1     -38.646 -16.810  11.426 -0.18 +0.00    +0.006 A  
DOCKED: ATOM     19  C   UNL     1     -37.272 -16.584  11.347 -0.19 +0.00    +0.001 A  
DOCKED: ATOM     20  C   UNL     1     -36.760 -15.312  11.605 -0.12 +0.00    +0.029 A  
DOCKED: ATOM     21  C   UNL     1     -37.621 -14.268  11.940 -0.05 +0.00    +0.140 A  
DOCKED: ATOM     22  C   UNL     1     -38.995 -14.495  12.018 -0.06 +0.00    +0.029 A  
DOCKED: ATOM     23  F   UNL     1     -37.129 -13.047  12.185 -0.00 -0.00    -0.204 F  
DOCKED: ATOM     24  C   UNL     1     -39.509 -15.767  11.761 -0.10 +0.00    +0.001 A  
DOCKED: ENDBRANCH   2  18
DOCKED: TORSDOF 5
DOCKED: TER
DOCKED: ENDMDL
________________________________________________________________________________


    FINAL DOCKED STATE:
    ________________________


Run:   282 / 512
Time taken for this run:   0.002s

DOCKED: MODEL        282
DOCKED: USER    Run = 282
DOCKED: USER
DOCKED: USER    Estimated Free Energy of Binding    =  -4.62 kcal/mol  [=(1)+(2)+(3)-(4)]
DOCKED: USER
DOCKED: USER    (1) Final Intermolecular Energy     =  -6.11 kcal/mol
DOCKED: USER        vdW + Hbond + desolv Energy     =  -6.11 kcal/mol
DOCKED: USER        Electrostatic Energy            =  +0.00 kcal/mol
DOCKED: USER        Moving Ligand-Fixed Receptor    =  -6.11 kcal/mol
DOCKED: USER        Moving Ligand-Moving Receptor   =  +0.00 kcal/mol
DOCKED: USER    (2) Final Total Internal Energy     =  -1.46 kcal/mol
DOCKED: USER    (3) Torsional Free Energy           =  +1.49 kcal/mol
DOCKED: USER    (4) Unbound System's Energy         =  -1.46 kcal/mol
DOCKED: USER
DOCKED: USER
DOCKED: REMARK  5 active torsions:
DOCKED: REMARK  status: ('A' for Active; 'I' for Inactive)
DOCKED: REMARK    1  A    between atoms: C_2  and  C_19 
DOCKED: REMARK    2  A    between atoms: C_2  and  C_11 
DOCKED: REMARK    3  A    between atoms: C_19  and  C_20 
DOCKED: REMARK    4  A    between atoms: C_20  and  C_21 
DOCKED: REMARK    5  A    between atoms: C_21  and  N_22 
DOCKED: USER                              x       y       z     vdW  Elec       q    Type
DOCKED: USER                           _______ _______ _______ _____ _____    ______ ____
DOCKED: ROOT
DOCKED: ATOM      1  O   UNL     1     -37.512 -10.164   5.047 -0.10 -0.00    -0.346 OA 
DOCKED: ATOM      2  C   UNL     1     -36.237 -10.269   4.336 -0.19 +0.00    +0.130 C  
DOCKED: ATOM      3  C   UNL     1     -36.521  -9.654   2.996 -0.28 +0.00    +0.004 A  
DOCKED: ATOM      4  C   UNL     1     -37.810  -9.142   2.981 -0.14 +0.00    +0.006 A  
DOCKED: ATOM      5  C   UNL     1     -38.456  -9.367   4.294 -0.22 +0.00    +0.169 C  
DOCKED: ATOM      6  C   UNL     1     -35.699  -9.546   1.884 -0.24 -0.00    -0.001 A  
DOCKED: ATOM      7  C   UNL     1     -38.322  -8.512   1.860 -0.08 +0.00    +0.008 A  
DOCKED: ATOM      8  C   UNL     1     -36.202  -8.918   0.743 -0.26 +0.00    +0.010 A  
DOCKED: ATOM      9  C   UNL     1     -37.507  -8.403   0.732 -0.25 +0.00    +0.068 A  
DOCKED: ATOM     10  N   UNL     1     -38.408  -7.237  -1.399 -2.43 -0.00    -0.191 NA 
DOCKED: ATOM     11  C   UNL     1     -38.004  -7.761  -0.444 -0.30 +0.00    +0.101 C  
DOCKED: ENDROOT
DOCKED: BRANCH   2  12
DOCKED: ATOM     12  C   UNL     1     -35.179  -9.509   5.127 -0.17 +0.00    +0.038 C  
DOCKED: BRANCH  12  13
DOCKED: ATOM     13  C   UNL     1     -35.805  -8.708   6.267 -0.15 +0.00    +0.038 C  
DOCKED: BRANCH  13  14
DOCKED: ATOM     14  C   UNL     1     -35.336  -9.227   7.625 -0.08 +0.00    +0.251 C  
DOCKED: BRANCH  14  15
DOCKED: ATOM     15  N   UNL     1     -36.394  -9.998   8.266 -0.04 +0.00    +0.141 N  
DOCKED: ATOM     16  C   UNL     1     -37.701  -9.386   8.019 -0.05 +0.00    +0.285 C  
DOCKED: ATOM     17  C   UNL     1     -36.384 -11.382   7.789 -0.05 +0.00    +0.285 C  
DOCKED: ENDBRANCH  14  15
DOCKED: ENDBRANCH  13  14
DOCKED: ENDBRANCH  12  13
DOCKED: ENDBRANCH   2  12
DOCKED: BRANCH   2  18
DOCKED: ATOM     18  C   UNL     1     -35.905 -11.722   4.251 -0.16 +0.00    +0.006 A  
DOCKED: ATOM     19  C   UNL     1     -34.593 -12.122   3.999 -0.09 +0.00    +0.001 A  
DOCKED: ATOM     20  C   UNL     1     -34.283 -13.481   3.919 -0.13 +0.00    +0.029 A  
DOCKED: ATOM     21  C   UNL     1     -35.285 -14.435   4.091 -0.21 +0.00    +0.140 A  
DOCKED: ATOM     22  C   UNL     1     -36.596 -14.034   4.343 -0.14 +0.00    +0.029 A  
DOCKED: ATOM     23  F   UNL     1     -34.987 -15.739   4.016 -0.11 -0.00    -0.204 F  
DOCKED: ATOM     24  C   UNL     1     -36.907 -12.675   4.422 -0.22 +0.00    +0.001 A  
DOCKED: ENDBRANCH   2  18
DOCKED: TORSDOF 5
DOCKED: TER
DOCKED: ENDMDL
________________________________________________________________________________


    FINAL DOCKED STATE:
    ________________________


Run:   283 / 512
Time taken for this run:   0.002s

DOCKED: MODEL        283
DOCKED: USER    Run = 283
DOCKED: USER
DOCKED: USER    Estimated Free Energy of Binding    =  -4.16 kcal/mol  [=(1)+(2)+(3)-(4)]
DOCKED: USER
DOCKED: USER    (1) Final Intermolecular Energy     =  -5.65 kcal/mol
DOCKED: USER        vdW + Hbond + desolv Energy     =  -5.65 kcal/mol
DOCKED: USER        Electrostatic Energy            =  +0.00 kcal/mol
DOCKED: USER        Moving Ligand-Fixed Receptor    =  -5.65 kcal/mol
DOCKED: USER        Moving Ligand-Moving Receptor   =  +0.00 kcal/mol
DOCKED: USER    (2) Final Total Internal Energy     =  -1.44 kcal/mol
DOCKED: USER    (3) Torsional Free Energy           =  +1.49 kcal/mol
DOCKED: USER    (4) Unbound System's Energy         =  -1.44 kcal/mol
DOCKED: USER
DOCKED: USER
DOCKED: REMARK  5 active torsions:
DOCKED: REMARK  status: ('A' for Active; 'I' for Inactive)
DOCKED: REMARK    1  A    between atoms: C_2  and  C_19 
DOCKED: REMARK    2  A    between atoms: C_2  and  C_11 
DOCKED: REMARK    3  A    between atoms: C_19  and  C_20 
DOCKED: REMARK    4  A    between atoms: C_20  and  C_21 
DOCKED: REMARK    5  A    between atoms: C_21  and  N_22 
DOCKED: USER                              x       y       z     vdW  Elec       q    Type
DOCKED: USER                           _______ _______ _______ _____ _____    ______ ____
DOCKED: ROOT
DOCKED: ATOM      1  O   UNL     1     -36.767 -15.678  12.043 -0.05 -0.00    -0.346 OA 
DOCKED: ATOM      2  C   UNL     1     -37.880 -14.968  11.410 -0.11 +0.00    +0.130 C  
DOCKED: ATOM      3  C   UNL     1     -38.628 -16.047  10.682 -0.22 +0.00    +0.004 A  
DOCKED: ATOM      4  C   UNL     1     -38.059 -17.281  10.963 -0.25 +0.00    +0.006 A  
DOCKED: ATOM      5  C   UNL     1     -36.920 -17.109  11.893 -0.17 +0.00    +0.169 C  
DOCKED: ATOM      6  C   UNL     1     -39.731 -15.946   9.847 -0.28 -0.00    -0.001 A  
DOCKED: ATOM      7  C   UNL     1     -38.566 -18.449  10.420 -0.34 +0.00    +0.008 A  
DOCKED: ATOM      8  C   UNL     1     -40.251 -17.114   9.287 -0.31 +0.00    +0.010 A  
DOCKED: ATOM      9  C   UNL     1     -39.671 -18.359   9.573 -0.31 +0.00    +0.068 A  
DOCKED: ATOM     10  N   UNL     1     -40.665 -20.509   8.522 -2.49 -0.00    -0.191 NA 
DOCKED: ATOM     11  C   UNL     1     -40.219 -19.545   8.993 -0.33 +0.00    +0.101 C  
DOCKED: ENDROOT
DOCKED: BRANCH   2  12
DOCKED: ATOM     12  C   UNL     1     -38.711 -14.303  12.501 -0.05 +0.00    +0.038 C  
DOCKED: BRANCH  12  13
DOCKED: ATOM     13  C   UNL     1     -38.218 -14.695  13.893 -0.02 +0.00    +0.038 C  
DOCKED: BRANCH  13  14
DOCKED: ATOM     14  C   UNL     1     -38.911 -15.966  14.383 -0.01 +0.00    +0.251 C  
DOCKED: BRANCH  14  15
DOCKED: ATOM     15  N   UNL     1     -40.144 -16.191  13.638 -0.02 +0.00    +0.141 N  
DOCKED: ATOM     16  C   UNL     1     -40.383 -17.624  13.457 -0.03 +0.00    +0.285 C  
DOCKED: ATOM     17  C   UNL     1     -41.279 -15.569  14.320 -0.00 +0.00    +0.285 C  
DOCKED: ENDBRANCH  14  15
DOCKED: ENDBRANCH  13  14
DOCKED: ENDBRANCH  12  13
DOCKED: ENDBRANCH   2  12
DOCKED: BRANCH   2  18
DOCKED: ATOM     18  C   UNL     1     -37.284 -13.953  10.493 -0.14 +0.00    +0.006 A  
DOCKED: ATOM     19  C   UNL     1     -38.010 -12.813  10.150 -0.12 +0.00    +0.001 A  
DOCKED: ATOM     20  C   UNL     1     -37.452 -11.864   9.292 -0.09 +0.00    +0.029 A  
DOCKED: ATOM     21  C   UNL     1     -36.170 -12.057   8.779 -0.07 +0.00    +0.140 A  
DOCKED: ATOM     22  C   UNL     1     -35.444 -13.197   9.123 -0.11 +0.00    +0.029 A  
DOCKED: ATOM     23  F   UNL     1     -35.634 -11.145   7.957 -0.00 -0.00    -0.204 F  
DOCKED: ATOM     24  C   UNL     1     -36.002 -14.146   9.981 -0.13 +0.00    +0.001 A  
DOCKED: ENDBRANCH   2  18
DOCKED: TORSDOF 5
DOCKED: TER
DOCKED: ENDMDL
________________________________________________________________________________


    FINAL DOCKED STATE:
    ________________________


Run:   284 / 512
Time taken for this run:   0.002s

DOCKED: MODEL        284
DOCKED: USER    Run = 284
DOCKED: USER
DOCKED: USER    Estimated Free Energy of Binding    =  -4.20 kcal/mol  [=(1)+(2)+(3)-(4)]
DOCKED: USER
DOCKED: USER    (1) Final Intermolecular Energy     =  -5.69 kcal/mol
DOCKED: USER        vdW + Hbond + desolv Energy     =  -5.69 kcal/mol
DOCKED: USER        Electrostatic Energy            =  +0.00 kcal/mol
DOCKED: USER        Moving Ligand-Fixed Receptor    =  -5.69 kcal/mol
DOCKED: USER        Moving Ligand-Moving Receptor   =  +0.00 kcal/mol
DOCKED: USER    (2) Final Total Internal Energy     =  -1.57 kcal/mol
DOCKED: USER    (3) Torsional Free Energy           =  +1.49 kcal/mol
DOCKED: USER    (4) Unbound System's Energy         =  -1.57 kcal/mol
DOCKED: USER
DOCKED: USER
DOCKED: REMARK  5 active torsions:
DOCKED: REMARK  status: ('A' for Active; 'I' for Inactive)
DOCKED: REMARK    1  A    between atoms: C_2  and  C_19 
DOCKED: REMARK    2  A    between atoms: C_2  and  C_11 
DOCKED: REMARK    3  A    between atoms: C_19  and  C_20 
DOCKED: REMARK    4  A    between atoms: C_20  and  C_21 
DOCKED: REMARK    5  A    between atoms: C_21  and  N_22 
DOCKED: USER                              x       y       z     vdW  Elec       q    Type
DOCKED: USER                           _______ _______ _______ _____ _____    ______ ____
DOCKED: ROOT
DOCKED: ATOM      1  O   UNL     1     -35.447 -10.071   3.529 -0.06 -0.00    -0.346 OA 
DOCKED: ATOM      2  C   UNL     1     -34.308  -9.680   2.698 -0.11 +0.00    +0.130 C  
DOCKED: ATOM      3  C   UNL     1     -34.939  -8.989   1.524 -0.19 +0.00    +0.004 A  
DOCKED: ATOM      4  C   UNL     1     -36.310  -8.894   1.720 -0.29 +0.00    +0.006 A  
DOCKED: ATOM      5  C   UNL     1     -36.674  -9.495   3.023 -0.23 +0.00    +0.169 C  
DOCKED: ATOM      6  C   UNL     1     -34.347  -8.475   0.380 -0.15 -0.00    -0.001 A  
DOCKED: ATOM      7  C   UNL     1     -37.132  -8.290   0.784 -0.36 +0.00    +0.008 A  
DOCKED: ATOM      8  C   UNL     1     -35.163  -7.867  -0.576 -0.24 +0.00    +0.010 A  
DOCKED: ATOM      9  C   UNL     1     -36.548  -7.775  -0.375 -0.34 +0.00    +0.068 A  
DOCKED: ATOM     10  N   UNL     1     -38.033  -6.635  -2.166 -2.56 -0.00    -0.191 NA 
DOCKED: ATOM     11  C   UNL     1     -37.367  -7.147  -1.363 -0.38 +0.00    +0.101 C  
DOCKED: ENDROOT
DOCKED: BRANCH   2  12
DOCKED: ATOM     12  C   UNL     1     -33.408  -8.760   3.514 -0.14 +0.00    +0.038 C  
DOCKED: BRANCH  12  13
DOCKED: ATOM     13  C   UNL     1     -33.718  -8.858   5.006 -0.12 +0.00    +0.038 C  
DOCKED: BRANCH  13  14
DOCKED: ATOM     14  C   UNL     1     -33.080 -10.103   5.620 -0.04 +0.00    +0.251 C  
DOCKED: BRANCH  14  15
DOCKED: ATOM     15  N   UNL     1     -34.071 -10.862   6.373 -0.03 +0.00    +0.141 N  
DOCKED: ATOM     16  C   UNL     1     -35.290 -10.075   6.562 -0.07 +0.00    +0.285 C  
DOCKED: ATOM     17  C   UNL     1     -34.380 -12.122   5.693 -0.03 +0.00    +0.285 C  
DOCKED: ENDBRANCH  14  15
DOCKED: ENDBRANCH  13  14
DOCKED: ENDBRANCH  12  13
DOCKED: ENDBRANCH   2  12
DOCKED: BRANCH   2  18
DOCKED: ATOM     18  C   UNL     1     -33.594 -10.934   2.319 -0.05 +0.00    +0.006 A  
DOCKED: ATOM     19  C   UNL     1     -32.218 -10.912   2.094 -0.01 +0.00    +0.001 A  
DOCKED: ATOM     20  C   UNL     1     -31.552 -12.086   1.739 -0.01 +0.00    +0.029 A  
DOCKED: ATOM     21  C   UNL     1     -32.261 -13.279   1.610 -0.03 +0.00    +0.140 A  
DOCKED: ATOM     22  C   UNL     1     -33.637 -13.300   1.836 -0.13 +0.00    +0.029 A  
DOCKED: ATOM     23  F   UNL     1     -31.621 -14.405   1.272 -0.00 -0.00    -0.204 F  
DOCKED: ATOM     24  C   UNL     1     -34.305 -12.127   2.190 -0.13 +0.00    +0.001 A  
DOCKED: ENDBRANCH   2  18
DOCKED: TORSDOF 5
DOCKED: TER
DOCKED: ENDMDL
________________________________________________________________________________


    FINAL DOCKED STATE:
    ________________________


Run:   285 / 512
Time taken for this run:   0.002s

DOCKED: MODEL        285
DOCKED: USER    Run = 285
DOCKED: USER
DOCKED: USER    Estimated Free Energy of Binding    =  -4.14 kcal/mol  [=(1)+(2)+(3)-(4)]
DOCKED: USER
DOCKED: USER    (1) Final Intermolecular Energy     =  -5.63 kcal/mol
DOCKED: USER        vdW + Hbond + desolv Energy     =  -5.63 kcal/mol
DOCKED: USER        Electrostatic Energy            =  +0.00 kcal/mol
DOCKED: USER        Moving Ligand-Fixed Receptor    =  -5.63 kcal/mol
DOCKED: USER        Moving Ligand-Moving Receptor   =  +0.00 kcal/mol
DOCKED: USER    (2) Final Total Internal Energy     =  -1.33 kcal/mol
DOCKED: USER    (3) Torsional Free Energy           =  +1.49 kcal/mol
DOCKED: USER    (4) Unbound System's Energy         =  -1.33 kcal/mol
DOCKED: USER
DOCKED: USER
DOCKED: REMARK  5 active torsions:
DOCKED: REMARK  status: ('A' for Active; 'I' for Inactive)
DOCKED: REMARK    1  A    between atoms: C_2  and  C_19 
DOCKED: REMARK    2  A    between atoms: C_2  and  C_11 
DOCKED: REMARK    3  A    between atoms: C_19  and  C_20 
DOCKED: REMARK    4  A    between atoms: C_20  and  C_21 
DOCKED: REMARK    5  A    between atoms: C_21  and  N_22 
DOCKED: USER                              x       y       z     vdW  Elec       q    Type
DOCKED: USER                           _______ _______ _______ _____ _____    ______ ____
DOCKED: ROOT
DOCKED: ATOM      1  O   UNL     1     -32.384  -5.983   1.355 -0.02 -0.00    -0.346 OA 
DOCKED: ATOM      2  C   UNL     1     -32.425  -5.675  -0.075 -0.09 +0.00    +0.130 C  
DOCKED: ATOM      3  C   UNL     1     -33.805  -6.095  -0.493 -0.13 +0.00    +0.004 A  
DOCKED: ATOM      4  C   UNL     1     -34.526  -6.503   0.620 -0.23 +0.00    +0.006 A  
DOCKED: ATOM      5  C   UNL     1     -33.692  -6.371   1.835 -0.15 +0.00    +0.169 C  
DOCKED: ATOM      6  C   UNL     1     -34.379  -6.104  -1.756 -0.19 -0.00    -0.001 A  
DOCKED: ATOM      7  C   UNL     1     -35.837  -6.935   0.511 -0.32 +0.00    +0.008 A  
DOCKED: ATOM      8  C   UNL     1     -35.699  -6.542  -1.883 -0.34 +0.00    +0.010 A  
DOCKED: ATOM      9  C   UNL     1     -36.424  -6.955  -0.755 -0.39 +0.00    +0.068 A  
DOCKED: ATOM     10  N   UNL     1     -38.872  -7.757  -1.026 -2.37 -0.00    -0.191 NA 
DOCKED: ATOM     11  C   UNL     1     -37.774  -7.398  -0.905 -0.32 +0.00    +0.101 C  
DOCKED: ENDROOT
DOCKED: BRANCH   2  12
DOCKED: ATOM     12  C   UNL     1     -32.179  -4.182  -0.255 -0.15 +0.00    +0.038 C  
DOCKED: BRANCH  12  13
DOCKED: ATOM     13  C   UNL     1     -32.277  -3.437   1.075 -0.13 +0.00    +0.038 C  
DOCKED: BRANCH  13  14
DOCKED: ATOM     14  C   UNL     1     -33.606  -2.693   1.192 -0.13 +0.00    +0.251 C  
DOCKED: BRANCH  14  15
DOCKED: ATOM     15  N   UNL     1     -34.345  -3.155   2.361 -0.23 +0.00    +0.141 N  
DOCKED: ATOM     16  C   UNL     1     -33.693  -2.708   3.593 -0.12 +0.00    +0.285 C  
DOCKED: ATOM     17  C   UNL     1     -35.729  -2.680   2.318 -0.24 +0.00    +0.285 C  
DOCKED: ENDBRANCH  14  15
DOCKED: ENDBRANCH  13  14
DOCKED: ENDBRANCH  12  13
DOCKED: ENDBRANCH   2  12
DOCKED: BRANCH   2  18
DOCKED: ATOM     18  C   UNL     1     -31.350  -6.480  -0.726 -0.04 +0.00    +0.006 A  
DOCKED: ATOM     19  C   UNL     1     -30.156  -5.869  -1.106 -0.02 +0.00    +0.001 A  
DOCKED: ATOM     20  C   UNL     1     -29.152  -6.623  -1.715 -0.01 +0.00    +0.029 A  
DOCKED: ATOM     21  C   UNL     1     -29.343  -7.985  -1.942 +0.00 +0.00    +0.140 A  
DOCKED: ATOM     22  C   UNL     1     -30.537  -8.596  -1.560 -0.00 +0.00    +0.029 A  
DOCKED: ATOM     23  F   UNL     1     -28.378  -8.709  -2.524 +0.00 -0.00    -0.204 F  
DOCKED: ATOM     24  C   UNL     1     -31.543  -7.842  -0.952 -0.02 +0.00    +0.001 A  
DOCKED: ENDBRANCH   2  18
DOCKED: TORSDOF 5
DOCKED: TER
DOCKED: ENDMDL
________________________________________________________________________________


    FINAL DOCKED STATE:
    ________________________


Run:   286 / 512
Time taken for this run:   0.002s

DOCKED: MODEL        286
DOCKED: USER    Run = 286
DOCKED: USER
DOCKED: USER    Estimated Free Energy of Binding    =  -3.72 kcal/mol  [=(1)+(2)+(3)-(4)]
DOCKED: USER
DOCKED: USER    (1) Final Intermolecular Energy     =  -5.21 kcal/mol
DOCKED: USER        vdW + Hbond + desolv Energy     =  -5.21 kcal/mol
DOCKED: USER        Electrostatic Energy            =  +0.00 kcal/mol
DOCKED: USER        Moving Ligand-Fixed Receptor    =  -5.21 kcal/mol
DOCKED: USER        Moving Ligand-Moving Receptor   =  +0.00 kcal/mol
DOCKED: USER    (2) Final Total Internal Energy     =  -1.55 kcal/mol
DOCKED: USER    (3) Torsional Free Energy           =  +1.49 kcal/mol
DOCKED: USER    (4) Unbound System's Energy         =  -1.55 kcal/mol
DOCKED: USER
DOCKED: USER
DOCKED: REMARK  5 active torsions:
DOCKED: REMARK  status: ('A' for Active; 'I' for Inactive)
DOCKED: REMARK    1  A    between atoms: C_2  and  C_19 
DOCKED: REMARK    2  A    between atoms: C_2  and  C_11 
DOCKED: REMARK    3  A    between atoms: C_19  and  C_20 
DOCKED: REMARK    4  A    between atoms: C_20  and  C_21 
DOCKED: REMARK    5  A    between atoms: C_21  and  N_22 
DOCKED: USER                              x       y       z     vdW  Elec       q    Type
DOCKED: USER                           _______ _______ _______ _____ _____    ______ ____
DOCKED: ROOT
DOCKED: ATOM      1  O   UNL     1     -31.166 -17.095   1.982 -0.01 -0.00    -0.346 OA 
DOCKED: ATOM      2  C   UNL     1     -31.390 -16.163   3.087 -0.06 +0.00    +0.130 C  
DOCKED: ATOM      3  C   UNL     1     -31.901 -17.036   4.196 -0.11 +0.00    +0.004 A  
DOCKED: ATOM      4  C   UNL     1     -31.867 -18.365   3.798 -0.14 +0.00    +0.006 A  
DOCKED: ATOM      5  C   UNL     1     -31.328 -18.463   2.423 -0.09 +0.00    +0.169 C  
DOCKED: ATOM      6  C   UNL     1     -32.349 -16.683   5.461 -0.14 -0.00    -0.001 A  
DOCKED: ATOM      7  C   UNL     1     -32.282 -19.381   4.642 -0.24 +0.00    +0.008 A  
DOCKED: ATOM      8  C   UNL     1     -32.775 -17.696   6.322 -0.24 +0.00    +0.010 A  
DOCKED: ATOM      9  C   UNL     1     -32.740 -19.038   5.914 -0.29 +0.00    +0.068 A  
DOCKED: ATOM     10  N   UNL     1     -33.532 -20.894   7.540 -2.66 -0.00    -0.191 NA 
DOCKED: ATOM     11  C   UNL     1     -33.178 -20.062   6.810 -0.40 +0.00    +0.101 C  
DOCKED: ENDROOT
DOCKED: BRANCH   2  12
DOCKED: ATOM     12  C   UNL     1     -30.066 -15.488   3.425 -0.01 +0.00    +0.038 C  
DOCKED: BRANCH  12  13
DOCKED: ATOM     13  C   UNL     1     -29.006 -15.779   2.365 -0.00 +0.00    +0.038 C  
DOCKED: BRANCH  13  14
DOCKED: ATOM     14  C   UNL     1     -28.795 -14.573   1.452 -0.00 +0.00    +0.251 C  
DOCKED: BRANCH  14  15
DOCKED: ATOM     15  N   UNL     1     -29.966 -14.366   0.607 -0.00 +0.00    +0.141 N  
DOCKED: ATOM     16  C   UNL     1     -29.858 -13.103  -0.124 +0.00 +0.00    +0.285 C  
DOCKED: ATOM     17  C   UNL     1     -30.130 -15.481  -0.327 -0.01 +0.00    +0.285 C  
DOCKED: ENDBRANCH  14  15
DOCKED: ENDBRANCH  13  14
DOCKED: ENDBRANCH  12  13
DOCKED: ENDBRANCH   2  12
DOCKED: BRANCH   2  18
DOCKED: ATOM     18  C   UNL     1     -32.398 -15.166   2.620 -0.11 +0.00    +0.006 A  
DOCKED: ATOM     19  C   UNL     1     -33.152 -15.422   1.475 -0.12 +0.00    +0.001 A  
DOCKED: ATOM     20  C   UNL     1     -34.094 -14.490   1.039 -0.18 +0.00    +0.029 A  
DOCKED: ATOM     21  C   UNL     1     -34.281 -13.304   1.748 -0.17 +0.00    +0.140 A  
DOCKED: ATOM     22  C   UNL     1     -33.526 -13.048   2.893 -0.08 +0.00    +0.029 A  
DOCKED: ATOM     23  F   UNL     1     -35.186 -12.410   1.330 -0.09 -0.00    -0.204 F  
DOCKED: ATOM     24  C   UNL     1     -32.584 -13.980   3.329 -0.06 +0.00    +0.001 A  
DOCKED: ENDBRANCH   2  18
DOCKED: TORSDOF 5
DOCKED: TER
DOCKED: ENDMDL
________________________________________________________________________________


    FINAL DOCKED STATE:
    ________________________


Run:   287 / 512
Time taken for this run:   0.002s

DOCKED: MODEL        287
DOCKED: USER    Run = 287
DOCKED: USER
DOCKED: USER    Estimated Free Energy of Binding    =  -5.51 kcal/mol  [=(1)+(2)+(3)-(4)]
DOCKED: USER
DOCKED: USER    (1) Final Intermolecular Energy     =  -7.00 kcal/mol
DOCKED: USER        vdW + Hbond + desolv Energy     =  -7.00 kcal/mol
DOCKED: USER        Electrostatic Energy            =  +0.00 kcal/mol
DOCKED: USER        Moving Ligand-Fixed Receptor    =  -7.00 kcal/mol
DOCKED: USER        Moving Ligand-Moving Receptor   =  +0.00 kcal/mol
DOCKED: USER    (2) Final Total Internal Energy     =  -0.95 kcal/mol
DOCKED: USER    (3) Torsional Free Energy           =  +1.49 kcal/mol
DOCKED: USER    (4) Unbound System's Energy         =  -0.95 kcal/mol
DOCKED: USER
DOCKED: USER
DOCKED: REMARK  5 active torsions:
DOCKED: REMARK  status: ('A' for Active; 'I' for Inactive)
DOCKED: REMARK    1  A    between atoms: C_2  and  C_19 
DOCKED: REMARK    2  A    between atoms: C_2  and  C_11 
DOCKED: REMARK    3  A    between atoms: C_19  and  C_20 
DOCKED: REMARK    4  A    between atoms: C_20  and  C_21 
DOCKED: REMARK    5  A    between atoms: C_21  and  N_22 
DOCKED: USER                              x       y       z     vdW  Elec       q    Type
DOCKED: USER                           _______ _______ _______ _____ _____    ______ ____
DOCKED: ROOT
DOCKED: ATOM      1  O   UNL     1     -42.442 -17.443  11.538 -0.00 -0.00    -0.346 OA 
DOCKED: ATOM      2  C   UNL     1     -41.013 -17.224  11.310 -0.12 +0.00    +0.130 C  
DOCKED: ATOM      3  C   UNL     1     -40.815 -17.610   9.872 -0.26 +0.00    +0.004 A  
DOCKED: ATOM      4  C   UNL     1     -42.041 -17.916   9.299 -0.28 +0.00    +0.006 A  
DOCKED: ATOM      5  C   UNL     1     -43.120 -17.745  10.297 -0.18 +0.00    +0.169 C  
DOCKED: ATOM      6  C   UNL     1     -39.646 -17.674   9.129 -0.37 -0.00    -0.001 A  
DOCKED: ATOM      7  C   UNL     1     -42.140 -18.299   7.972 -0.23 +0.00    +0.008 A  
DOCKED: ATOM      8  C   UNL     1     -39.728 -18.062   7.791 -0.21 +0.00    +0.010 A  
DOCKED: ATOM      9  C   UNL     1     -40.969 -18.373   7.215 -0.34 +0.00    +0.068 A  
DOCKED: ATOM     10  N   UNL     1     -41.088 -19.085   4.727 -2.98 -0.00    -0.191 NA 
DOCKED: ATOM     11  C   UNL     1     -41.035 -18.766   5.843 -0.27 +0.00    +0.101 C  
DOCKED: ENDROOT
DOCKED: BRANCH   2  12
DOCKED: ATOM     12  C   UNL     1     -40.701 -15.757  11.578 -0.12 +0.00    +0.038 C  
DOCKED: BRANCH  12  13
DOCKED: ATOM     13  C   UNL     1     -39.278 -15.402  11.149 -0.16 +0.00    +0.038 C  
DOCKED: BRANCH  13  14
DOCKED: ATOM     14  C   UNL     1     -39.286 -14.468   9.940 -0.14 +0.00    +0.251 C  
DOCKED: BRANCH  14  15
DOCKED: ATOM     15  N   UNL     1     -38.267 -13.436  10.090 -0.12 +0.00    +0.141 N  
DOCKED: ATOM     16  C   UNL     1     -37.911 -13.263  11.500 -0.04 +0.00    +0.285 C  
DOCKED: ATOM     17  C   UNL     1     -37.078 -13.768   9.304 -0.11 +0.00    +0.285 C  
DOCKED: ENDBRANCH  14  15
DOCKED: ENDBRANCH  13  14
DOCKED: ENDBRANCH  12  13
DOCKED: ENDBRANCH   2  12
DOCKED: BRANCH   2  18
DOCKED: ATOM     18  C   UNL     1     -40.278 -18.113  12.257 -0.14 +0.00    +0.006 A  
DOCKED: ATOM     19  C   UNL     1     -40.260 -17.816  13.619 -0.09 +0.00    +0.001 A  
DOCKED: ATOM     20  C   UNL     1     -39.572 -18.647  14.504 -0.13 +0.00    +0.029 A  
DOCKED: ATOM     21  C   UNL     1     -38.905 -19.774  14.025 -0.18 +0.00    +0.140 A  
DOCKED: ATOM     22  C   UNL     1     -38.924 -20.071  12.663 -0.15 +0.00    +0.029 A  
DOCKED: ATOM     23  F   UNL     1     -38.247 -20.574  14.875 -0.10 -0.00    -0.204 F  
DOCKED: ATOM     24  C   UNL     1     -39.611 -19.239  11.777 -0.27 +0.00    +0.001 A  
DOCKED: ENDBRANCH   2  18
DOCKED: TORSDOF 5
DOCKED: TER
DOCKED: ENDMDL
________________________________________________________________________________


    FINAL DOCKED STATE:
    ________________________


Run:   288 / 512
Time taken for this run:   0.002s

DOCKED: MODEL        288
DOCKED: USER    Run = 288
DOCKED: USER
DOCKED: USER    Estimated Free Energy of Binding    =  -4.14 kcal/mol  [=(1)+(2)+(3)-(4)]
DOCKED: USER
DOCKED: USER    (1) Final Intermolecular Energy     =  -5.63 kcal/mol
DOCKED: USER        vdW + Hbond + desolv Energy     =  -5.63 kcal/mol
DOCKED: USER        Electrostatic Energy            =  +0.00 kcal/mol
DOCKED: USER        Moving Ligand-Fixed Receptor    =  -5.63 kcal/mol
DOCKED: USER        Moving Ligand-Moving Receptor   =  +0.00 kcal/mol
DOCKED: USER    (2) Final Total Internal Energy     =  -1.46 kcal/mol
DOCKED: USER    (3) Torsional Free Energy           =  +1.49 kcal/mol
DOCKED: USER    (4) Unbound System's Energy         =  -1.46 kcal/mol
DOCKED: USER
DOCKED: USER
DOCKED: REMARK  5 active torsions:
DOCKED: REMARK  status: ('A' for Active; 'I' for Inactive)
DOCKED: REMARK    1  A    between atoms: C_2  and  C_19 
DOCKED: REMARK    2  A    between atoms: C_2  and  C_11 
DOCKED: REMARK    3  A    between atoms: C_19  and  C_20 
DOCKED: REMARK    4  A    between atoms: C_20  and  C_21 
DOCKED: REMARK    5  A    between atoms: C_21  and  N_22 
DOCKED: USER                              x       y       z     vdW  Elec       q    Type
DOCKED: USER                           _______ _______ _______ _____ _____    ______ ____
DOCKED: ROOT
DOCKED: ATOM      1  O   UNL     1     -37.371 -14.743  11.236 -0.05 -0.00    -0.346 OA 
DOCKED: ATOM      2  C   UNL     1     -38.785 -14.381  11.137 -0.12 +0.00    +0.130 C  
DOCKED: ATOM      3  C   UNL     1     -39.435 -15.617  10.586 -0.22 +0.00    +0.004 A  
DOCKED: ATOM      4  C   UNL     1     -38.495 -16.632  10.483 -0.25 +0.00    +0.006 A  
DOCKED: ATOM      5  C   UNL     1     -37.181 -16.151  10.964 -0.09 +0.00    +0.169 C  
DOCKED: ATOM      6  C   UNL     1     -40.755 -15.828  10.217 -0.24 -0.00    -0.001 A  
DOCKED: ATOM      7  C   UNL     1     -38.839 -17.886  10.006 -0.32 +0.00    +0.008 A  
DOCKED: ATOM      8  C   UNL     1     -41.116 -17.086   9.730 -0.24 +0.00    +0.010 A  
DOCKED: ATOM      9  C   UNL     1     -40.162 -18.109   9.626 -0.28 +0.00    +0.068 A  
DOCKED: ATOM     10  N   UNL     1     -40.867 -20.433   8.722 -2.56 -0.00    -0.191 NA 
DOCKED: ATOM     11  C   UNL     1     -40.551 -19.391   9.127 -0.36 +0.00    +0.101 C  
DOCKED: ENDROOT
DOCKED: BRANCH   2  12
DOCKED: ATOM     12  C   UNL     1     -39.288 -14.016  12.529 -0.04 +0.00    +0.038 C  
DOCKED: BRANCH  12  13
DOCKED: ATOM     13  C   UNL     1     -38.129 -13.762  13.491 -0.02 +0.00    +0.038 C  
DOCKED: BRANCH  13  14
DOCKED: ATOM     14  C   UNL     1     -37.491 -12.398  13.237 -0.00 +0.00    +0.251 C  
DOCKED: BRANCH  14  15
DOCKED: ATOM     15  N   UNL     1     -36.117 -12.558  12.777 -0.01 +0.00    +0.141 N  
DOCKED: ATOM     16  C   UNL     1     -35.559 -11.271  12.360 -0.00 +0.00    +0.285 C  
DOCKED: ATOM     17  C   UNL     1     -35.288 -13.153  13.827 -0.00 +0.00    +0.285 C  
DOCKED: ENDBRANCH  14  15
DOCKED: ENDBRANCH  13  14
DOCKED: ENDBRANCH  12  13
DOCKED: ENDBRANCH   2  12
DOCKED: BRANCH   2  18
DOCKED: ATOM     18  C   UNL     1     -38.873 -13.215  10.210 -0.15 +0.00    +0.006 A  
DOCKED: ATOM     19  C   UNL     1     -37.718 -12.711   9.612 -0.12 +0.00    +0.001 A  
DOCKED: ATOM     20  C   UNL     1     -37.802 -11.621   8.746 -0.09 +0.00    +0.029 A  
DOCKED: ATOM     21  C   UNL     1     -39.039 -11.036   8.478 -0.10 +0.00    +0.140 A  
DOCKED: ATOM     22  C   UNL     1     -40.194 -11.540   9.076 -0.16 +0.00    +0.029 A  
DOCKED: ATOM     23  F   UNL     1     -39.119  -9.990   7.645 -0.03 -0.00    -0.204 F  
DOCKED: ATOM     24  C   UNL     1     -40.111 -12.631   9.944 -0.18 +0.00    +0.001 A  
DOCKED: ENDBRANCH   2  18
DOCKED: TORSDOF 5
DOCKED: TER
DOCKED: ENDMDL
________________________________________________________________________________


    FINAL DOCKED STATE:
    ________________________


Run:   289 / 512
Time taken for this run:   0.002s

DOCKED: MODEL        289
DOCKED: USER    Run = 289
DOCKED: USER
DOCKED: USER    Estimated Free Energy of Binding    =  -4.18 kcal/mol  [=(1)+(2)+(3)-(4)]
DOCKED: USER
DOCKED: USER    (1) Final Intermolecular Energy     =  -5.67 kcal/mol
DOCKED: USER        vdW + Hbond + desolv Energy     =  -5.67 kcal/mol
DOCKED: USER        Electrostatic Energy            =  +0.00 kcal/mol
DOCKED: USER        Moving Ligand-Fixed Receptor    =  -5.67 kcal/mol
DOCKED: USER        Moving Ligand-Moving Receptor   =  +0.00 kcal/mol
DOCKED: USER    (2) Final Total Internal Energy     =  -1.43 kcal/mol
DOCKED: USER    (3) Torsional Free Energy           =  +1.49 kcal/mol
DOCKED: USER    (4) Unbound System's Energy         =  -1.43 kcal/mol
DOCKED: USER
DOCKED: USER
DOCKED: REMARK  5 active torsions:
DOCKED: REMARK  status: ('A' for Active; 'I' for Inactive)
DOCKED: REMARK    1  A    between atoms: C_2  and  C_19 
DOCKED: REMARK    2  A    between atoms: C_2  and  C_11 
DOCKED: REMARK    3  A    between atoms: C_19  and  C_20 
DOCKED: REMARK    4  A    between atoms: C_20  and  C_21 
DOCKED: REMARK    5  A    between atoms: C_21  and  N_22 
DOCKED: USER                              x       y       z     vdW  Elec       q    Type
DOCKED: USER                           _______ _______ _______ _____ _____    ______ ____
DOCKED: ROOT
DOCKED: ATOM      1  O   UNL     1     -36.715 -15.545  11.682 -0.06 -0.00    -0.346 OA 
DOCKED: ATOM      2  C   UNL     1     -37.987 -14.912  11.332 -0.12 +0.00    +0.130 C  
DOCKED: ATOM      3  C   UNL     1     -38.766 -16.013  10.671 -0.22 +0.00    +0.004 A  
DOCKED: ATOM      4  C   UNL     1     -38.047 -17.198  10.736 -0.24 +0.00    +0.006 A  
DOCKED: ATOM      5  C   UNL     1     -36.768 -16.971  11.445 -0.13 +0.00    +0.169 C  
DOCKED: ATOM      6  C   UNL     1     -40.016 -15.971  10.070 -0.26 -0.00    -0.001 A  
DOCKED: ATOM      7  C   UNL     1     -38.546 -18.374  10.202 -0.34 +0.00    +0.008 A  
DOCKED: ATOM      8  C   UNL     1     -40.531 -17.147   9.523 -0.29 +0.00    +0.010 A  
DOCKED: ATOM      9  C   UNL     1     -39.799 -18.343   9.590 -0.31 +0.00    +0.068 A  
DOCKED: ATOM     10  N   UNL     1     -40.787 -20.510   8.569 -2.51 -0.00    -0.191 NA 
DOCKED: ATOM     11  C   UNL     1     -40.344 -19.538   9.026 -0.32 +0.00    +0.101 C  
DOCKED: ENDROOT
DOCKED: BRANCH   2  12
DOCKED: ATOM     12  C   UNL     1     -38.643 -14.408  12.612 -0.04 +0.00    +0.038 C  
DOCKED: BRANCH  12  13
DOCKED: ATOM     13  C   UNL     1     -38.479 -15.409  13.754 -0.03 +0.00    +0.038 C  
DOCKED: BRANCH  13  14
DOCKED: ATOM     14  C   UNL     1     -39.805 -15.643  14.475 -0.00 +0.00    +0.251 C  
DOCKED: BRANCH  14  15
DOCKED: ATOM     15  N   UNL     1     -40.213 -17.037  14.347 -0.02 +0.00    +0.141 N  
DOCKED: ATOM     16  C   UNL     1     -41.238 -17.181  13.312 -0.01 +0.00    +0.285 C  
DOCKED: ATOM     17  C   UNL     1     -39.060 -17.885  14.041 -0.05 +0.00    +0.285 C  
DOCKED: ENDBRANCH  14  15
DOCKED: ENDBRANCH  13  14
DOCKED: ENDBRANCH  12  13
DOCKED: ENDBRANCH   2  12
DOCKED: BRANCH   2  18
DOCKED: ATOM     18  C   UNL     1     -37.674 -13.784  10.407 -0.15 +0.00    +0.006 A  
DOCKED: ATOM     19  C   UNL     1     -36.673 -13.928   9.447 -0.16 +0.00    +0.001 A  
DOCKED: ATOM     20  C   UNL     1     -36.381 -12.872   8.583 -0.13 +0.00    +0.029 A  
DOCKED: ATOM     21  C   UNL     1     -37.090 -11.676   8.679 -0.07 +0.00    +0.140 A  
DOCKED: ATOM     22  C   UNL     1     -38.092 -11.533   9.639 -0.09 +0.00    +0.029 A  
DOCKED: ATOM     23  F   UNL     1     -36.811 -10.663   7.848 -0.01 -0.00    -0.204 F  
DOCKED: ATOM     24  C   UNL     1     -38.384 -12.588  10.504 -0.10 +0.00    +0.001 A  
DOCKED: ENDBRANCH   2  18
DOCKED: TORSDOF 5
DOCKED: TER
DOCKED: ENDMDL
________________________________________________________________________________


    FINAL DOCKED STATE:
    ________________________


Run:   290 / 512
Time taken for this run:   0.002s

DOCKED: MODEL        290
DOCKED: USER    Run = 290
DOCKED: USER
DOCKED: USER    Estimated Free Energy of Binding    =  -5.73 kcal/mol  [=(1)+(2)+(3)-(4)]
DOCKED: USER
DOCKED: USER    (1) Final Intermolecular Energy     =  -7.22 kcal/mol
DOCKED: USER        vdW + Hbond + desolv Energy     =  -7.22 kcal/mol
DOCKED: USER        Electrostatic Energy            =  +0.00 kcal/mol
DOCKED: USER        Moving Ligand-Fixed Receptor    =  -7.22 kcal/mol
DOCKED: USER        Moving Ligand-Moving Receptor   =  +0.00 kcal/mol
DOCKED: USER    (2) Final Total Internal Energy     =  -1.31 kcal/mol
DOCKED: USER    (3) Torsional Free Energy           =  +1.49 kcal/mol
DOCKED: USER    (4) Unbound System's Energy         =  -1.31 kcal/mol
DOCKED: USER
DOCKED: USER
DOCKED: REMARK  5 active torsions:
DOCKED: REMARK  status: ('A' for Active; 'I' for Inactive)
DOCKED: REMARK    1  A    between atoms: C_2  and  C_19 
DOCKED: REMARK    2  A    between atoms: C_2  and  C_11 
DOCKED: REMARK    3  A    between atoms: C_19  and  C_20 
DOCKED: REMARK    4  A    between atoms: C_20  and  C_21 
DOCKED: REMARK    5  A    between atoms: C_21  and  N_22 
DOCKED: USER                              x       y       z     vdW  Elec       q    Type
DOCKED: USER                           _______ _______ _______ _____ _____    ______ ____
DOCKED: ROOT
DOCKED: ATOM      1  O   UNL     1     -39.162 -16.280  11.420 -0.03 -0.00    -0.346 OA 
DOCKED: ATOM      2  C   UNL     1     -38.753 -17.683  11.341 -0.21 +0.00    +0.130 C  
DOCKED: ATOM      3  C   UNL     1     -39.203 -18.113   9.975 -0.34 +0.00    +0.004 A  
DOCKED: ATOM      4  C   UNL     1     -39.723 -17.024   9.290 -0.33 +0.00    +0.006 A  
DOCKED: ATOM      5  C   UNL     1     -39.643 -15.813  10.138 -0.22 +0.00    +0.169 C  
DOCKED: ATOM      6  C   UNL     1     -39.146 -19.366   9.381 -0.43 -0.00    -0.001 A  
DOCKED: ATOM      7  C   UNL     1     -40.205 -17.148   7.999 +0.28 +0.00    +0.008 A  
DOCKED: ATOM      8  C   UNL     1     -39.632 -19.508   8.080 -0.46 +0.00    +0.010 A  
DOCKED: ATOM      9  C   UNL     1     -40.159 -18.405   7.393 -0.40 +0.00    +0.068 A  
DOCKED: ATOM     10  N   UNL     1     -41.048 -18.702   4.978 -3.13 -0.00    -0.191 NA 
DOCKED: ATOM     11  C   UNL     1     -40.650 -18.569   6.061 -0.43 +0.00    +0.101 C  
DOCKED: ENDROOT
DOCKED: BRANCH   2  12
DOCKED: ATOM     12  C   UNL     1     -37.241 -17.756  11.518 -0.26 +0.00    +0.038 C  
DOCKED: BRANCH  12  13
DOCKED: ATOM     13  C   UNL     1     -36.594 -16.383  11.349 -0.15 +0.00    +0.038 C  
DOCKED: BRANCH  13  14
DOCKED: ATOM     14  C   UNL     1     -36.181 -15.800  12.700 -0.06 +0.00    +0.251 C  
DOCKED: BRANCH  14  15
DOCKED: ATOM     15  N   UNL     1     -36.104 -16.854  13.705 -0.07 +0.00    +0.141 N  
DOCKED: ATOM     16  C   UNL     1     -34.743 -17.385  13.792 -0.06 +0.00    +0.285 C  
DOCKED: ATOM     17  C   UNL     1     -36.539 -16.354  15.010 -0.02 +0.00    +0.285 C  
DOCKED: ENDBRANCH  14  15
DOCKED: ENDBRANCH  13  14
DOCKED: ENDBRANCH  12  13
DOCKED: ENDBRANCH   2  12
DOCKED: BRANCH   2  18
DOCKED: ATOM     18  C   UNL     1     -39.459 -18.406  12.440 -0.18 +0.00    +0.006 A  
DOCKED: ATOM     19  C   UNL     1     -40.849 -18.514  12.422 -0.16 +0.00    +0.001 A  
DOCKED: ATOM     20  C   UNL     1     -41.507 -19.189  13.450 -0.15 +0.00    +0.029 A  
DOCKED: ATOM     21  C   UNL     1     -40.776 -19.755  14.493 -0.00 +0.00    +0.140 A  
DOCKED: ATOM     22  C   UNL     1     -39.386 -19.647  14.510 -0.20 +0.00    +0.029 A  
DOCKED: ATOM     23  F   UNL     1     -41.409 -20.405  15.479 -0.03 -0.00    -0.204 F  
DOCKED: ATOM     24  C   UNL     1     -38.726 -18.971  13.483 -0.20 +0.00    +0.001 A  
DOCKED: ENDBRANCH   2  18
DOCKED: TORSDOF 5
DOCKED: TER
DOCKED: ENDMDL
________________________________________________________________________________


    FINAL DOCKED STATE:
    ________________________


Run:   291 / 512
Time taken for this run:   0.002s

DOCKED: MODEL        291
DOCKED: USER    Run = 291
DOCKED: USER
DOCKED: USER    Estimated Free Energy of Binding    =  -3.52 kcal/mol  [=(1)+(2)+(3)-(4)]
DOCKED: USER
DOCKED: USER    (1) Final Intermolecular Energy     =  -5.01 kcal/mol
DOCKED: USER        vdW + Hbond + desolv Energy     =  -5.01 kcal/mol
DOCKED: USER        Electrostatic Energy            =  +0.00 kcal/mol
DOCKED: USER        Moving Ligand-Fixed Receptor    =  -5.01 kcal/mol
DOCKED: USER        Moving Ligand-Moving Receptor   =  +0.00 kcal/mol
DOCKED: USER    (2) Final Total Internal Energy     =  -1.29 kcal/mol
DOCKED: USER    (3) Torsional Free Energy           =  +1.49 kcal/mol
DOCKED: USER    (4) Unbound System's Energy         =  -1.29 kcal/mol
DOCKED: USER
DOCKED: USER
DOCKED: REMARK  5 active torsions:
DOCKED: REMARK  status: ('A' for Active; 'I' for Inactive)
DOCKED: REMARK    1  A    between atoms: C_2  and  C_19 
DOCKED: REMARK    2  A    between atoms: C_2  and  C_11 
DOCKED: REMARK    3  A    between atoms: C_19  and  C_20 
DOCKED: REMARK    4  A    between atoms: C_20  and  C_21 
DOCKED: REMARK    5  A    between atoms: C_21  and  N_22 
DOCKED: USER                              x       y       z     vdW  Elec       q    Type
DOCKED: USER                           _______ _______ _______ _____ _____    ______ ____
DOCKED: ROOT
DOCKED: ATOM      1  O   UNL     1     -38.332 -15.515  13.467 -0.00 -0.00    -0.346 OA 
DOCKED: ATOM      2  C   UNL     1     -37.267 -16.115  12.662 -0.09 +0.00    +0.130 C  
DOCKED: ATOM      3  C   UNL     1     -37.992 -17.079  11.768 -0.19 +0.00    +0.004 A  
DOCKED: ATOM      4  C   UNL     1     -39.360 -16.960  11.966 -0.12 +0.00    +0.006 A  
DOCKED: ATOM      5  C   UNL     1     -39.633 -15.917  12.979 -0.03 +0.00    +0.169 C  
DOCKED: ATOM      6  C   UNL     1     -37.482 -17.980  10.845 -0.14 -0.00    -0.001 A  
DOCKED: ATOM      7  C   UNL     1     -40.261 -17.736  11.256 -0.16 +0.00    +0.008 A  
DOCKED: ATOM      8  C   UNL     1     -38.377 -18.773  10.125 -0.35 +0.00    +0.010 A  
DOCKED: ATOM      9  C   UNL     1     -39.759 -18.651  10.329 -0.26 +0.00    +0.068 A  
DOCKED: ATOM     10  N   UNL     1     -41.393 -20.134   8.971 -2.34 -0.00    -0.191 NA 
DOCKED: ATOM     11  C   UNL     1     -40.660 -19.470   9.581 -0.17 +0.00    +0.101 C  
DOCKED: ENDROOT
DOCKED: BRANCH   2  12
DOCKED: ATOM     12  C   UNL     1     -36.561 -15.006  11.891 -0.10 +0.00    +0.038 C  
DOCKED: BRANCH  12  13
DOCKED: ATOM     13  C   UNL     1     -37.283 -14.691  10.583 -0.17 +0.00    +0.038 C  
DOCKED: BRANCH  13  14
DOCKED: ATOM     14  C   UNL     1     -37.560 -13.194  10.454 -0.09 +0.00    +0.251 C  
DOCKED: BRANCH  14  15
DOCKED: ATOM     15  N   UNL     1     -38.987 -12.928  10.599 -0.09 +0.00    +0.141 N  
DOCKED: ATOM     16  C   UNL     1     -39.312 -11.583  10.124 -0.07 +0.00    +0.285 C  
DOCKED: ATOM     17  C   UNL     1     -39.774 -13.927   9.874 -0.12 +0.00    +0.285 C  
DOCKED: ENDBRANCH  14  15
DOCKED: ENDBRANCH  13  14
DOCKED: ENDBRANCH  12  13
DOCKED: ENDBRANCH   2  12
DOCKED: BRANCH   2  18
DOCKED: ATOM     18  C   UNL     1     -36.333 -16.791  13.610 -0.09 +0.00    +0.006 A  
DOCKED: ATOM     19  C   UNL     1     -36.806 -17.786  14.464 -0.11 +0.00    +0.001 A  
DOCKED: ATOM     20  C   UNL     1     -35.931 -18.416  15.350 -0.11 +0.00    +0.029 A  
DOCKED: ATOM     21  C   UNL     1     -34.586 -18.053  15.379 -0.06 +0.00    +0.140 A  
DOCKED: ATOM     22  C   UNL     1     -34.113 -17.058  14.523 -0.05 +0.00    +0.029 A  
DOCKED: ATOM     23  F   UNL     1     -33.746 -18.660  16.228 -0.01 -0.00    -0.204 F  
DOCKED: ATOM     24  C   UNL     1     -34.987 -16.426  13.638 -0.07 +0.00    +0.001 A  
DOCKED: ENDBRANCH   2  18
DOCKED: TORSDOF 5
DOCKED: TER
DOCKED: ENDMDL
________________________________________________________________________________


    FINAL DOCKED STATE:
    ________________________


Run:   292 / 512
Time taken for this run:   0.002s

DOCKED: MODEL        292
DOCKED: USER    Run = 292
DOCKED: USER
DOCKED: USER    Estimated Free Energy of Binding    =  -3.80 kcal/mol  [=(1)+(2)+(3)-(4)]
DOCKED: USER
DOCKED: USER    (1) Final Intermolecular Energy     =  -5.30 kcal/mol
DOCKED: USER        vdW + Hbond + desolv Energy     =  -5.30 kcal/mol
DOCKED: USER        Electrostatic Energy            =  +0.00 kcal/mol
DOCKED: USER        Moving Ligand-Fixed Receptor    =  -5.30 kcal/mol
DOCKED: USER        Moving Ligand-Moving Receptor   =  +0.00 kcal/mol
DOCKED: USER    (2) Final Total Internal Energy     =  -1.13 kcal/mol
DOCKED: USER    (3) Torsional Free Energy           =  +1.49 kcal/mol
DOCKED: USER    (4) Unbound System's Energy         =  -1.13 kcal/mol
DOCKED: USER
DOCKED: USER
DOCKED: REMARK  5 active torsions:
DOCKED: REMARK  status: ('A' for Active; 'I' for Inactive)
DOCKED: REMARK    1  A    between atoms: C_2  and  C_19 
DOCKED: REMARK    2  A    between atoms: C_2  and  C_11 
DOCKED: REMARK    3  A    between atoms: C_19  and  C_20 
DOCKED: REMARK    4  A    between atoms: C_20  and  C_21 
DOCKED: REMARK    5  A    between atoms: C_21  and  N_22 
DOCKED: USER                              x       y       z     vdW  Elec       q    Type
DOCKED: USER                           _______ _______ _______ _____ _____    ______ ____
DOCKED: ROOT
DOCKED: ATOM      1  O   UNL     1     -32.532 -13.849   4.674 +0.01 -0.00    -0.346 OA 
DOCKED: ATOM      2  C   UNL     1     -33.511 -14.680   3.971 -0.13 +0.00    +0.130 C  
DOCKED: ATOM      3  C   UNL     1     -33.493 -15.976   4.729 -0.21 +0.00    +0.004 A  
DOCKED: ATOM      4  C   UNL     1     -32.660 -15.860   5.833 -0.13 +0.00    +0.006 A  
DOCKED: ATOM      5  C   UNL     1     -32.089 -14.495   5.890 -0.03 +0.00    +0.169 C  
DOCKED: ATOM      6  C   UNL     1     -34.167 -17.160   4.468 -0.09 -0.00    -0.001 A  
DOCKED: ATOM      7  C   UNL     1     -32.471 -16.916   6.708 -0.17 +0.00    +0.008 A  
DOCKED: ATOM      8  C   UNL     1     -33.984 -18.236   5.338 -0.31 +0.00    +0.010 A  
DOCKED: ATOM      9  C   UNL     1     -33.140 -18.114   6.452 -0.25 +0.00    +0.068 A  
DOCKED: ATOM     10  N   UNL     1     -32.825 -20.129   8.050 -2.13 -0.00    -0.191 NA 
DOCKED: ATOM     11  C   UNL     1     -32.966 -19.226   7.333 -0.20 +0.00    +0.101 C  
DOCKED: ENDROOT
DOCKED: BRANCH   2  12
DOCKED: ATOM     12  C   UNL     1     -34.864 -13.981   4.024 -0.23 +0.00    +0.038 C  
DOCKED: BRANCH  12  13
DOCKED: ATOM     13  C   UNL     1     -35.682 -14.441   5.229 -0.30 +0.00    +0.038 C  
DOCKED: BRANCH  13  14
DOCKED: ATOM     14  C   UNL     1     -35.271 -13.687   6.492 -0.12 +0.00    +0.251 C  
DOCKED: BRANCH  14  15
DOCKED: ATOM     15  N   UNL     1     -36.275 -12.688   6.836 -0.09 +0.00    +0.141 N  
DOCKED: ATOM     16  C   UNL     1     -36.239 -12.392   8.269 -0.07 +0.00    +0.285 C  
DOCKED: ATOM     17  C   UNL     1     -36.072 -11.463   6.060 -0.06 +0.00    +0.285 C  
DOCKED: ENDBRANCH  14  15
DOCKED: ENDBRANCH  13  14
DOCKED: ENDBRANCH  12  13
DOCKED: ENDBRANCH   2  12
DOCKED: BRANCH   2  18
DOCKED: ATOM     18  C   UNL     1     -33.032 -14.822   2.565 -0.14 +0.00    +0.006 A  
DOCKED: ATOM     19  C   UNL     1     -31.803 -15.426   2.305 -0.08 +0.00    +0.001 A  
DOCKED: ATOM     20  C   UNL     1     -31.357 -15.558   0.989 -0.07 +0.00    +0.029 A  
DOCKED: ATOM     21  C   UNL     1     -32.140 -15.086  -0.063 -0.09 +0.00    +0.140 A  
DOCKED: ATOM     22  C   UNL     1     -33.369 -14.482   0.197 -0.20 +0.00    +0.029 A  
DOCKED: ATOM     23  F   UNL     1     -31.712 -15.214  -1.326 -0.00 -0.00    -0.204 F  
DOCKED: ATOM     24  C   UNL     1     -33.816 -14.349   1.513 -0.20 +0.00    +0.001 A  
DOCKED: ENDBRANCH   2  18
DOCKED: TORSDOF 5
DOCKED: TER
DOCKED: ENDMDL
________________________________________________________________________________


    FINAL DOCKED STATE:
    ________________________


Run:   293 / 512
Time taken for this run:   0.002s

DOCKED: MODEL        293
DOCKED: USER    Run = 293
DOCKED: USER
DOCKED: USER    Estimated Free Energy of Binding    =  -4.36 kcal/mol  [=(1)+(2)+(3)-(4)]
DOCKED: USER
DOCKED: USER    (1) Final Intermolecular Energy     =  -5.85 kcal/mol
DOCKED: USER        vdW + Hbond + desolv Energy     =  -5.85 kcal/mol
DOCKED: USER        Electrostatic Energy            =  +0.00 kcal/mol
DOCKED: USER        Moving Ligand-Fixed Receptor    =  -5.85 kcal/mol
DOCKED: USER        Moving Ligand-Moving Receptor   =  +0.00 kcal/mol
DOCKED: USER    (2) Final Total Internal Energy     =  -1.28 kcal/mol
DOCKED: USER    (3) Torsional Free Energy           =  +1.49 kcal/mol
DOCKED: USER    (4) Unbound System's Energy         =  -1.28 kcal/mol
DOCKED: USER
DOCKED: USER
DOCKED: REMARK  5 active torsions:
DOCKED: REMARK  status: ('A' for Active; 'I' for Inactive)
DOCKED: REMARK    1  A    between atoms: C_2  and  C_19 
DOCKED: REMARK    2  A    between atoms: C_2  and  C_11 
DOCKED: REMARK    3  A    between atoms: C_19  and  C_20 
DOCKED: REMARK    4  A    between atoms: C_20  and  C_21 
DOCKED: REMARK    5  A    between atoms: C_21  and  N_22 
DOCKED: USER                              x       y       z     vdW  Elec       q    Type
DOCKED: USER                           _______ _______ _______ _____ _____    ______ ____
DOCKED: ROOT
DOCKED: ATOM      1  O   UNL     1     -37.978 -15.635  12.865 -0.01 -0.00    -0.346 OA 
DOCKED: ATOM      2  C   UNL     1     -38.106 -15.043  11.532 -0.11 +0.00    +0.130 C  
DOCKED: ATOM      3  C   UNL     1     -38.732 -16.134  10.713 -0.22 +0.00    +0.004 A  
DOCKED: ATOM      4  C   UNL     1     -39.037 -17.214  11.528 -0.17 +0.00    +0.006 A  
DOCKED: ATOM      5  C   UNL     1     -38.652 -16.914  12.925 -0.07 +0.00    +0.169 C  
DOCKED: ATOM      6  C   UNL     1     -39.019 -16.163   9.356 -0.21 -0.00    -0.001 A  
DOCKED: ATOM      7  C   UNL     1     -39.632 -18.356  11.019 -0.24 +0.00    +0.008 A  
DOCKED: ATOM      8  C   UNL     1     -39.615 -17.309   8.826 -0.34 +0.00    +0.010 A  
DOCKED: ATOM      9  C   UNL     1     -39.920 -18.399   9.654 -0.30 +0.00    +0.068 A  
DOCKED: ATOM     10  N   UNL     1     -41.031 -20.509   8.640 -2.51 -0.00    -0.191 NA 
DOCKED: ATOM     11  C   UNL     1     -40.532 -19.563   9.095 -0.30 +0.00    +0.101 C  
DOCKED: ENDROOT
DOCKED: BRANCH   2  12
DOCKED: ATOM     12  C   UNL     1     -38.984 -13.802  11.639 -0.08 +0.00    +0.038 C  
DOCKED: BRANCH  12  13
DOCKED: ATOM     13  C   UNL     1     -40.447 -14.173  11.874 -0.08 +0.00    +0.038 C  
DOCKED: BRANCH  13  14
DOCKED: ATOM     14  C   UNL     1     -41.280 -13.949  10.614 -0.16 +0.00    +0.251 C  
DOCKED: BRANCH  14  15
DOCKED: ATOM     15  N   UNL     1     -42.621 -14.494  10.789 -0.16 +0.00    +0.141 N  
DOCKED: ATOM     16  C   UNL     1     -43.619 -13.615  10.177 -0.14 +0.00    +0.285 C  
DOCKED: ATOM     17  C   UNL     1     -42.711 -15.839  10.218 -0.12 +0.00    +0.285 C  
DOCKED: ENDBRANCH  14  15
DOCKED: ENDBRANCH  13  14
DOCKED: ENDBRANCH  12  13
DOCKED: ENDBRANCH   2  12
DOCKED: BRANCH   2  18
DOCKED: ATOM     18  C   UNL     1     -36.729 -14.691  11.077 -0.13 +0.00    +0.006 A  
DOCKED: ATOM     19  C   UNL     1     -35.632 -15.401  11.562 -0.12 +0.00    +0.001 A  
DOCKED: ATOM     20  C   UNL     1     -34.345 -15.071  11.136 -0.10 +0.00    +0.029 A  
DOCKED: ATOM     21  C   UNL     1     -34.157 -14.032  10.226 -0.07 +0.00    +0.140 A  
DOCKED: ATOM     22  C   UNL     1     -35.255 -13.322   9.741 -0.09 +0.00    +0.029 A  
DOCKED: ATOM     23  F   UNL     1     -32.922 -13.716   9.816 -0.01 -0.00    -0.204 F  
DOCKED: ATOM     24  C   UNL     1     -36.543 -13.651  10.167 -0.13 +0.00    +0.001 A  
DOCKED: ENDBRANCH   2  18
DOCKED: TORSDOF 5
DOCKED: TER
DOCKED: ENDMDL
________________________________________________________________________________


    FINAL DOCKED STATE:
    ________________________


Run:   294 / 512
Time taken for this run:   0.002s

DOCKED: MODEL        294
DOCKED: USER    Run = 294
DOCKED: USER
DOCKED: USER    Estimated Free Energy of Binding    =  -4.39 kcal/mol  [=(1)+(2)+(3)-(4)]
DOCKED: USER
DOCKED: USER    (1) Final Intermolecular Energy     =  -5.88 kcal/mol
DOCKED: USER        vdW + Hbond + desolv Energy     =  -5.88 kcal/mol
DOCKED: USER        Electrostatic Energy            =  +0.00 kcal/mol
DOCKED: USER        Moving Ligand-Fixed Receptor    =  -5.88 kcal/mol
DOCKED: USER        Moving Ligand-Moving Receptor   =  +0.00 kcal/mol
DOCKED: USER    (2) Final Total Internal Energy     =  -1.35 kcal/mol
DOCKED: USER    (3) Torsional Free Energy           =  +1.49 kcal/mol
DOCKED: USER    (4) Unbound System's Energy         =  -1.35 kcal/mol
DOCKED: USER
DOCKED: USER
DOCKED: REMARK  5 active torsions:
DOCKED: REMARK  status: ('A' for Active; 'I' for Inactive)
DOCKED: REMARK    1  A    between atoms: C_2  and  C_19 
DOCKED: REMARK    2  A    between atoms: C_2  and  C_11 
DOCKED: REMARK    3  A    between atoms: C_19  and  C_20 
DOCKED: REMARK    4  A    between atoms: C_20  and  C_21 
DOCKED: REMARK    5  A    between atoms: C_21  and  N_22 
DOCKED: USER                              x       y       z     vdW  Elec       q    Type
DOCKED: USER                           _______ _______ _______ _____ _____    ______ ____
DOCKED: ROOT
DOCKED: ATOM      1  O   UNL     1     -37.711 -14.455  10.955 -0.05 -0.00    -0.346 OA 
DOCKED: ATOM      2  C   UNL     1     -39.153 -14.229  11.073 -0.12 +0.00    +0.130 C  
DOCKED: ATOM      3  C   UNL     1     -39.759 -15.506  10.565 -0.21 +0.00    +0.004 A  
DOCKED: ATOM      4  C   UNL     1     -38.754 -16.421  10.286 -0.27 +0.00    +0.006 A  
DOCKED: ATOM      5  C   UNL     1     -37.434 -15.829  10.597 -0.09 +0.00    +0.169 C  
DOCKED: ATOM      6  C   UNL     1     -41.093 -15.834  10.375 -0.22 -0.00    -0.001 A  
DOCKED: ATOM      7  C   UNL     1     -39.045 -17.687   9.807 -0.33 +0.00    +0.008 A  
DOCKED: ATOM      8  C   UNL     1     -41.403 -17.105   9.889 -0.24 +0.00    +0.010 A  
DOCKED: ATOM      9  C   UNL     1     -40.384 -18.027   9.606 -0.27 +0.00    +0.068 A  
DOCKED: ATOM     10  N   UNL     1     -40.993 -20.380   8.709 -2.55 -0.00    -0.191 NA 
DOCKED: ATOM     11  C   UNL     1     -40.720 -19.324   9.111 -0.36 +0.00    +0.101 C  
DOCKED: ENDROOT
DOCKED: BRANCH   2  12
DOCKED: ATOM     12  C   UNL     1     -39.481 -13.958  12.536 -0.04 +0.00    +0.038 C  
DOCKED: BRANCH  12  13
DOCKED: ATOM     13  C   UNL     1     -39.915 -15.234  13.255 -0.04 +0.00    +0.038 C  
DOCKED: BRANCH  13  14
DOCKED: ATOM     14  C   UNL     1     -38.714 -15.955  13.866 -0.01 +0.00    +0.251 C  
DOCKED: BRANCH  14  15
DOCKED: ATOM     15  N   UNL     1     -38.688 -17.348  13.437 -0.06 +0.00    +0.141 N  
DOCKED: ATOM     16  C   UNL     1     -37.311 -17.795  13.219 -0.06 +0.00    +0.285 C  
DOCKED: ATOM     17  C   UNL     1     -39.349 -18.204  14.424 -0.06 +0.00    +0.285 C  
DOCKED: ENDBRANCH  14  15
DOCKED: ENDBRANCH  13  14
DOCKED: ENDBRANCH  12  13
DOCKED: ENDBRANCH   2  12
DOCKED: BRANCH   2  18
DOCKED: ATOM     18  C   UNL     1     -39.481 -13.050  10.219 -0.16 +0.00    +0.006 A  
DOCKED: ATOM     19  C   UNL     1     -40.811 -12.680  10.023 -0.20 +0.00    +0.001 A  
DOCKED: ATOM     20  C   UNL     1     -41.116 -11.577   9.225 -0.15 +0.00    +0.029 A  
DOCKED: ATOM     21  C   UNL     1     -40.092 -10.846   8.625 -0.13 +0.00    +0.140 A  
DOCKED: ATOM     22  C   UNL     1     -38.762 -11.216   8.822 -0.12 +0.00    +0.029 A  
DOCKED: ATOM     23  F   UNL     1     -40.385  -9.786   7.860 -0.03 -0.00    -0.204 F  
DOCKED: ATOM     24  C   UNL     1     -38.455 -12.319   9.620 -0.12 +0.00    +0.001 A  
DOCKED: ENDBRANCH   2  18
DOCKED: TORSDOF 5
DOCKED: TER
DOCKED: ENDMDL
________________________________________________________________________________


    FINAL DOCKED STATE:
    ________________________


Run:   295 / 512
Time taken for this run:   0.002s

DOCKED: MODEL        295
DOCKED: USER    Run = 295
DOCKED: USER
DOCKED: USER    Estimated Free Energy of Binding    =  -3.65 kcal/mol  [=(1)+(2)+(3)-(4)]
DOCKED: USER
DOCKED: USER    (1) Final Intermolecular Energy     =  -5.14 kcal/mol
DOCKED: USER        vdW + Hbond + desolv Energy     =  -5.14 kcal/mol
DOCKED: USER        Electrostatic Energy            =  +0.00 kcal/mol
DOCKED: USER        Moving Ligand-Fixed Receptor    =  -5.14 kcal/mol
DOCKED: USER        Moving Ligand-Moving Receptor   =  +0.00 kcal/mol
DOCKED: USER    (2) Final Total Internal Energy     =  -1.31 kcal/mol
DOCKED: USER    (3) Torsional Free Energy           =  +1.49 kcal/mol
DOCKED: USER    (4) Unbound System's Energy         =  -1.31 kcal/mol
DOCKED: USER
DOCKED: USER
DOCKED: REMARK  5 active torsions:
DOCKED: REMARK  status: ('A' for Active; 'I' for Inactive)
DOCKED: REMARK    1  A    between atoms: C_2  and  C_19 
DOCKED: REMARK    2  A    between atoms: C_2  and  C_11 
DOCKED: REMARK    3  A    between atoms: C_19  and  C_20 
DOCKED: REMARK    4  A    between atoms: C_20  and  C_21 
DOCKED: REMARK    5  A    between atoms: C_21  and  N_22 
DOCKED: USER                              x       y       z     vdW  Elec       q    Type
DOCKED: USER                           _______ _______ _______ _____ _____    ______ ____
DOCKED: ROOT
DOCKED: ATOM      1  O   UNL     1     -30.245 -15.685   3.988 +0.01 -0.00    -0.346 OA 
DOCKED: ATOM      2  C   UNL     1     -31.680 -15.556   3.732 -0.05 +0.00    +0.130 C  
DOCKED: ATOM      3  C   UNL     1     -32.286 -16.692   4.505 -0.12 +0.00    +0.004 A  
DOCKED: ATOM      4  C   UNL     1     -31.298 -17.345   5.227 -0.08 +0.00    +0.006 A  
DOCKED: ATOM      5  C   UNL     1     -29.991 -16.689   4.997 -0.02 +0.00    +0.169 C  
DOCKED: ATOM      6  C   UNL     1     -33.608 -17.106   4.572 -0.25 -0.00    -0.001 A  
DOCKED: ATOM      7  C   UNL     1     -31.593 -18.431   6.034 -0.16 +0.00    +0.008 A  
DOCKED: ATOM      8  C   UNL     1     -33.921 -18.203   5.378 -0.33 +0.00    +0.010 A  
DOCKED: ATOM      9  C   UNL     1     -32.919 -18.861   6.105 -0.29 +0.00    +0.068 A  
DOCKED: ATOM     10  N   UNL     1     -33.535 -20.890   7.594 -2.68 -0.00    -0.191 NA 
DOCKED: ATOM     11  C   UNL     1     -33.258 -19.980   6.926 -0.33 +0.00    +0.101 C  
DOCKED: ENDROOT
DOCKED: BRANCH   2  12
DOCKED: ATOM     12  C   UNL     1     -32.138 -14.190   4.228 -0.04 +0.00    +0.038 C  
DOCKED: BRANCH  12  13
DOCKED: ATOM     13  C   UNL     1     -30.949 -13.285   4.545 -0.01 +0.00    +0.038 C  
DOCKED: BRANCH  13  14
DOCKED: ATOM     14  C   UNL     1     -30.937 -12.055   3.640 -0.00 +0.00    +0.251 C  
DOCKED: BRANCH  14  15
DOCKED: ATOM     15  N   UNL     1     -29.600 -11.832   3.103 +0.00 +0.00    +0.141 N  
DOCKED: ATOM     16  C   UNL     1     -28.785 -11.067   4.048 +0.00 +0.00    +0.285 C  
DOCKED: ATOM     17  C   UNL     1     -28.952 -13.107   2.790 +0.00 +0.00    +0.285 C  
DOCKED: ENDBRANCH  14  15
DOCKED: ENDBRANCH  13  14
DOCKED: ENDBRANCH  12  13
DOCKED: ENDBRANCH   2  12
DOCKED: BRANCH   2  18
DOCKED: ATOM     18  C   UNL     1     -31.874 -15.687   2.258 -0.10 +0.00    +0.006 A  
DOCKED: ATOM     19  C   UNL     1     -31.064 -16.550   1.523 -0.08 +0.00    +0.001 A  
DOCKED: ATOM     20  C   UNL     1     -31.246 -16.671   0.144 -0.10 +0.00    +0.029 A  
DOCKED: ATOM     21  C   UNL     1     -32.238 -15.929  -0.495 -0.13 +0.00    +0.140 A  
DOCKED: ATOM     22  C   UNL     1     -33.049 -15.066   0.241 -0.19 +0.00    +0.029 A  
DOCKED: ATOM     23  F   UNL     1     -32.414 -16.047  -1.818 -0.04 -0.00    -0.204 F  
DOCKED: ATOM     24  C   UNL     1     -32.867 -14.944   1.620 -0.15 +0.00    +0.001 A  
DOCKED: ENDBRANCH   2  18
DOCKED: TORSDOF 5
DOCKED: TER
DOCKED: ENDMDL
________________________________________________________________________________


    FINAL DOCKED STATE:
    ________________________


Run:   296 / 512
Time taken for this run:   0.002s

DOCKED: MODEL        296
DOCKED: USER    Run = 296
DOCKED: USER
DOCKED: USER    Estimated Free Energy of Binding    =  -4.52 kcal/mol  [=(1)+(2)+(3)-(4)]
DOCKED: USER
DOCKED: USER    (1) Final Intermolecular Energy     =  -6.02 kcal/mol
DOCKED: USER        vdW + Hbond + desolv Energy     =  -6.02 kcal/mol
DOCKED: USER        Electrostatic Energy            =  +0.00 kcal/mol
DOCKED: USER        Moving Ligand-Fixed Receptor    =  -6.02 kcal/mol
DOCKED: USER        Moving Ligand-Moving Receptor   =  +0.00 kcal/mol
DOCKED: USER    (2) Final Total Internal Energy     =  -1.47 kcal/mol
DOCKED: USER    (3) Torsional Free Energy           =  +1.49 kcal/mol
DOCKED: USER    (4) Unbound System's Energy         =  -1.47 kcal/mol
DOCKED: USER
DOCKED: USER
DOCKED: REMARK  5 active torsions:
DOCKED: REMARK  status: ('A' for Active; 'I' for Inactive)
DOCKED: REMARK    1  A    between atoms: C_2  and  C_19 
DOCKED: REMARK    2  A    between atoms: C_2  and  C_11 
DOCKED: REMARK    3  A    between atoms: C_19  and  C_20 
DOCKED: REMARK    4  A    between atoms: C_20  and  C_21 
DOCKED: REMARK    5  A    between atoms: C_21  and  N_22 
DOCKED: USER                              x       y       z     vdW  Elec       q    Type
DOCKED: USER                           _______ _______ _______ _____ _____    ______ ____
DOCKED: ROOT
DOCKED: ATOM      1  O   UNL     1     -37.419 -10.098   5.057 -0.09 -0.00    -0.346 OA 
DOCKED: ATOM      2  C   UNL     1     -36.115 -10.051   4.394 -0.18 +0.00    +0.130 C  
DOCKED: ATOM      3  C   UNL     1     -36.418  -9.462   3.047 -0.24 +0.00    +0.004 A  
DOCKED: ATOM      4  C   UNL     1     -37.757  -9.101   2.985 -0.13 +0.00    +0.006 A  
DOCKED: ATOM      5  C   UNL     1     -38.420  -9.410   4.272 -0.23 +0.00    +0.169 C  
DOCKED: ATOM      6  C   UNL     1     -35.574  -9.251   1.966 -0.24 -0.00    -0.001 A  
DOCKED: ATOM      7  C   UNL     1     -38.296  -8.525   1.848 -0.07 +0.00    +0.008 A  
DOCKED: ATOM      8  C   UNL     1     -36.104  -8.675   0.810 -0.29 +0.00    +0.010 A  
DOCKED: ATOM      9  C   UNL     1     -37.459  -8.314   0.752 -0.30 +0.00    +0.068 A  
DOCKED: ATOM     10  N   UNL     1     -38.409  -7.243  -1.407 -2.45 -0.00    -0.191 NA 
DOCKED: ATOM     11  C   UNL     1     -37.983  -7.724  -0.439 -0.30 +0.00    +0.101 C  
DOCKED: ENDROOT
DOCKED: BRANCH   2  12
DOCKED: ATOM     12  C   UNL     1     -35.181  -9.180   5.226 -0.16 +0.00    +0.038 C  
DOCKED: BRANCH  12  13
DOCKED: ATOM     13  C   UNL     1     -35.650  -9.089   6.677 -0.16 +0.00    +0.038 C  
DOCKED: BRANCH  13  14
DOCKED: ATOM     14  C   UNL     1     -35.372 -10.392   7.426 -0.04 +0.00    +0.251 C  
DOCKED: BRANCH  14  15
DOCKED: ATOM     15  N   UNL     1     -36.441 -10.666   8.379 -0.04 +0.00    +0.141 N  
DOCKED: ATOM     16  C   UNL     1     -37.689 -10.032   7.952 -0.06 +0.00    +0.285 C  
DOCKED: ATOM     17  C   UNL     1     -36.633 -12.109   8.537 -0.07 +0.00    +0.285 C  
DOCKED: ENDBRANCH  14  15
DOCKED: ENDBRANCH  13  14
DOCKED: ENDBRANCH  12  13
DOCKED: ENDBRANCH   2  12
DOCKED: BRANCH   2  18
DOCKED: ATOM     18  C   UNL     1     -35.614 -11.454   4.316 -0.13 +0.00    +0.006 A  
DOCKED: ATOM     19  C   UNL     1     -36.515 -12.518   4.343 -0.22 +0.00    +0.001 A  
DOCKED: ATOM     20  C   UNL     1     -36.046 -13.830   4.270 -0.23 +0.00    +0.029 A  
DOCKED: ATOM     21  C   UNL     1     -34.677 -14.076   4.169 -0.16 +0.00    +0.140 A  
DOCKED: ATOM     22  C   UNL     1     -33.777 -13.012   4.141 -0.07 +0.00    +0.029 A  
DOCKED: ATOM     23  F   UNL     1     -34.227 -15.336   4.097 -0.08 -0.00    -0.204 F  
DOCKED: ATOM     24  C   UNL     1     -34.245 -11.699   4.215 -0.06 +0.00    +0.001 A  
DOCKED: ENDBRANCH   2  18
DOCKED: TORSDOF 5
DOCKED: TER
DOCKED: ENDMDL
________________________________________________________________________________


    FINAL DOCKED STATE:
    ________________________


Run:   297 / 512
Time taken for this run:   0.002s

DOCKED: MODEL        297
DOCKED: USER    Run = 297
DOCKED: USER
DOCKED: USER    Estimated Free Energy of Binding    =  -4.21 kcal/mol  [=(1)+(2)+(3)-(4)]
DOCKED: USER
DOCKED: USER    (1) Final Intermolecular Energy     =  -5.70 kcal/mol
DOCKED: USER        vdW + Hbond + desolv Energy     =  -5.70 kcal/mol
DOCKED: USER        Electrostatic Energy            =  +0.00 kcal/mol
DOCKED: USER        Moving Ligand-Fixed Receptor    =  -5.70 kcal/mol
DOCKED: USER        Moving Ligand-Moving Receptor   =  +0.00 kcal/mol
DOCKED: USER    (2) Final Total Internal Energy     =  -1.35 kcal/mol
DOCKED: USER    (3) Torsional Free Energy           =  +1.49 kcal/mol
DOCKED: USER    (4) Unbound System's Energy         =  -1.35 kcal/mol
DOCKED: USER
DOCKED: USER
DOCKED: REMARK  5 active torsions:
DOCKED: REMARK  status: ('A' for Active; 'I' for Inactive)
DOCKED: REMARK    1  A    between atoms: C_2  and  C_19 
DOCKED: REMARK    2  A    between atoms: C_2  and  C_11 
DOCKED: REMARK    3  A    between atoms: C_19  and  C_20 
DOCKED: REMARK    4  A    between atoms: C_20  and  C_21 
DOCKED: REMARK    5  A    between atoms: C_21  and  N_22 
DOCKED: USER                              x       y       z     vdW  Elec       q    Type
DOCKED: USER                           _______ _______ _______ _____ _____    ______ ____
DOCKED: ROOT
DOCKED: ATOM      1  O   UNL     1     -37.588 -14.619  11.107 -0.05 -0.00    -0.346 OA 
DOCKED: ATOM      2  C   UNL     1     -39.030 -14.366  11.124 -0.12 +0.00    +0.130 C  
DOCKED: ATOM      3  C   UNL     1     -39.624 -15.635  10.587 -0.21 +0.00    +0.004 A  
DOCKED: ATOM      4  C   UNL     1     -38.620 -16.572  10.385 -0.26 +0.00    +0.006 A  
DOCKED: ATOM      5  C   UNL     1     -37.313 -16.001  10.780 -0.07 +0.00    +0.169 C  
DOCKED: ATOM      6  C   UNL     1     -40.949 -15.941  10.310 -0.23 -0.00    -0.001 A  
DOCKED: ATOM      7  C   UNL     1     -38.903 -17.837   9.898 -0.32 +0.00    +0.008 A  
DOCKED: ATOM      8  C   UNL     1     -41.249 -17.211   9.814 -0.25 +0.00    +0.010 A  
DOCKED: ATOM      9  C   UNL     1     -40.231 -18.154   9.610 -0.28 +0.00    +0.068 A  
DOCKED: ATOM     10  N   UNL     1     -40.823 -20.505   8.695 -2.57 -0.00    -0.191 NA 
DOCKED: ATOM     11  C   UNL     1     -40.557 -19.450   9.105 -0.34 +0.00    +0.101 C  
DOCKED: ENDROOT
DOCKED: BRANCH   2  12
DOCKED: ATOM     12  C   UNL     1     -39.451 -14.073  12.559 -0.04 +0.00    +0.038 C  
DOCKED: BRANCH  12  13
DOCKED: ATOM     13  C   UNL     1     -39.664 -15.362  13.350 -0.04 +0.00    +0.038 C  
DOCKED: BRANCH  13  14
DOCKED: ATOM     14  C   UNL     1     -40.988 -15.328  14.111 -0.00 +0.00    +0.251 C  
DOCKED: BRANCH  14  15
DOCKED: ATOM     15  N   UNL     1     -41.614 -16.644  14.100 -0.02 +0.00    +0.141 N  
DOCKED: ATOM     16  C   UNL     1     -42.675 -16.703  13.092 -0.00 +0.00    +0.285 C  
DOCKED: ATOM     17  C   UNL     1     -40.618 -17.687  13.849 -0.03 +0.00    +0.285 C  
DOCKED: ENDBRANCH  14  15
DOCKED: ENDBRANCH  13  14
DOCKED: ENDBRANCH  12  13
DOCKED: ENDBRANCH   2  12
DOCKED: BRANCH   2  18
DOCKED: ATOM     18  C   UNL     1     -39.276 -13.189  10.240 -0.16 +0.00    +0.006 A  
DOCKED: ATOM     19  C   UNL     1     -38.219 -12.611   9.537 -0.12 +0.00    +0.001 A  
DOCKED: ATOM     20  C   UNL     1     -38.451 -11.511   8.711 -0.09 +0.00    +0.029 A  
DOCKED: ATOM     21  C   UNL     1     -39.739 -10.990   8.589 -0.12 +0.00    +0.140 A  
DOCKED: ATOM     22  C   UNL     1     -40.795 -11.568   9.291 -0.16 +0.00    +0.029 A  
DOCKED: ATOM     23  F   UNL     1     -39.961  -9.935   7.794 -0.03 -0.00    -0.204 F  
DOCKED: ATOM     24  C   UNL     1     -40.564 -12.669  10.118 -0.19 +0.00    +0.001 A  
DOCKED: ENDBRANCH   2  18
DOCKED: TORSDOF 5
DOCKED: TER
DOCKED: ENDMDL
________________________________________________________________________________


    FINAL DOCKED STATE:
    ________________________


Run:   298 / 512
Time taken for this run:   0.002s

DOCKED: MODEL        298
DOCKED: USER    Run = 298
DOCKED: USER
DOCKED: USER    Estimated Free Energy of Binding    =  -3.77 kcal/mol  [=(1)+(2)+(3)-(4)]
DOCKED: USER
DOCKED: USER    (1) Final Intermolecular Energy     =  -5.26 kcal/mol
DOCKED: USER        vdW + Hbond + desolv Energy     =  -5.26 kcal/mol
DOCKED: USER        Electrostatic Energy            =  +0.00 kcal/mol
DOCKED: USER        Moving Ligand-Fixed Receptor    =  -5.26 kcal/mol
DOCKED: USER        Moving Ligand-Moving Receptor   =  +0.00 kcal/mol
DOCKED: USER    (2) Final Total Internal Energy     =  -1.46 kcal/mol
DOCKED: USER    (3) Torsional Free Energy           =  +1.49 kcal/mol
DOCKED: USER    (4) Unbound System's Energy         =  -1.46 kcal/mol
DOCKED: USER
DOCKED: USER
DOCKED: REMARK  5 active torsions:
DOCKED: REMARK  status: ('A' for Active; 'I' for Inactive)
DOCKED: REMARK    1  A    between atoms: C_2  and  C_19 
DOCKED: REMARK    2  A    between atoms: C_2  and  C_11 
DOCKED: REMARK    3  A    between atoms: C_19  and  C_20 
DOCKED: REMARK    4  A    between atoms: C_20  and  C_21 
DOCKED: REMARK    5  A    between atoms: C_21  and  N_22 
DOCKED: USER                              x       y       z     vdW  Elec       q    Type
DOCKED: USER                           _______ _______ _______ _____ _____    ______ ____
DOCKED: ROOT
DOCKED: ATOM      1  O   UNL     1     -38.138 -14.024  10.814 -0.04 -0.00    -0.346 OA 
DOCKED: ATOM      2  C   UNL     1     -37.416 -15.100  11.493 -0.11 +0.00    +0.130 C  
DOCKED: ATOM      3  C   UNL     1     -38.099 -16.349  11.015 -0.20 +0.00    +0.004 A  
DOCKED: ATOM      4  C   UNL     1     -39.053 -16.023  10.062 -0.27 +0.00    +0.006 A  
DOCKED: ATOM      5  C   UNL     1     -39.060 -14.561   9.837 -0.17 +0.00    +0.169 C  
DOCKED: ATOM      6  C   UNL     1     -37.884 -17.668  11.386 -0.25 -0.00    -0.001 A  
DOCKED: ATOM      7  C   UNL     1     -39.825 -16.998   9.453 -0.32 +0.00    +0.008 A  
DOCKED: ATOM      8  C   UNL     1     -38.657 -18.663  10.784 -0.33 +0.00    +0.010 A  
DOCKED: ATOM      9  C   UNL     1     -39.623 -18.329   9.823 -0.30 +0.00    +0.068 A  
DOCKED: ATOM     10  N   UNL     1     -41.038 -20.199   8.721 -2.56 -0.00    -0.191 NA 
DOCKED: ATOM     11  C   UNL     1     -40.404 -19.360   9.216 -0.35 +0.00    +0.101 C  
DOCKED: ENDROOT
DOCKED: BRANCH   2  12
DOCKED: ATOM     12  C   UNL     1     -35.949 -15.032  11.083 -0.13 +0.00    +0.038 C  
DOCKED: BRANCH  12  13
DOCKED: ATOM     13  C   UNL     1     -35.541 -13.607  10.711 -0.09 +0.00    +0.038 C  
DOCKED: BRANCH  13  14
DOCKED: ATOM     14  C   UNL     1     -35.410 -12.731  11.955 -0.01 +0.00    +0.251 C  
DOCKED: BRANCH  14  15
DOCKED: ATOM     15  N   UNL     1     -36.474 -11.734  11.988 -0.01 +0.00    +0.141 N  
DOCKED: ATOM     16  C   UNL     1     -36.499 -11.048  13.281 -0.00 +0.00    +0.285 C  
DOCKED: ATOM     17  C   UNL     1     -36.307 -10.766  10.903 -0.00 +0.00    +0.285 C  
DOCKED: ENDBRANCH  14  15
DOCKED: ENDBRANCH  13  14
DOCKED: ENDBRANCH  12  13
DOCKED: ENDBRANCH   2  12
DOCKED: BRANCH   2  18
DOCKED: ATOM     18  C   UNL     1     -37.576 -14.875  12.960 -0.04 +0.00    +0.006 A  
DOCKED: ATOM     19  C   UNL     1     -36.928 -15.711  13.868 -0.04 +0.00    +0.001 A  
DOCKED: ATOM     20  C   UNL     1     -37.078 -15.500  15.239 -0.01 +0.00    +0.029 A  
DOCKED: ATOM     21  C   UNL     1     -37.875 -14.452  15.699 -0.00 +0.00    +0.140 A  
DOCKED: ATOM     22  C   UNL     1     -38.522 -13.616  14.790 -0.00 +0.00    +0.029 A  
DOCKED: ATOM     23  F   UNL     1     -38.018 -14.248  17.015 +0.00 -0.00    -0.204 F  
DOCKED: ATOM     24  C   UNL     1     -38.373 -13.827  13.419 -0.02 +0.00    +0.001 A  
DOCKED: ENDBRANCH   2  18
DOCKED: TORSDOF 5
DOCKED: TER
DOCKED: ENDMDL
________________________________________________________________________________


    FINAL DOCKED STATE:
    ________________________


Run:   299 / 512
Time taken for this run:   0.002s

DOCKED: MODEL        299
DOCKED: USER    Run = 299
DOCKED: USER
DOCKED: USER    Estimated Free Energy of Binding    =  -4.07 kcal/mol  [=(1)+(2)+(3)-(4)]
DOCKED: USER
DOCKED: USER    (1) Final Intermolecular Energy     =  -5.56 kcal/mol
DOCKED: USER        vdW + Hbond + desolv Energy     =  -5.56 kcal/mol
DOCKED: USER        Electrostatic Energy            =  +0.00 kcal/mol
DOCKED: USER        Moving Ligand-Fixed Receptor    =  -5.56 kcal/mol
DOCKED: USER        Moving Ligand-Moving Receptor   =  +0.00 kcal/mol
DOCKED: USER    (2) Final Total Internal Energy     =  -1.31 kcal/mol
DOCKED: USER    (3) Torsional Free Energy           =  +1.49 kcal/mol
DOCKED: USER    (4) Unbound System's Energy         =  -1.31 kcal/mol
DOCKED: USER
DOCKED: USER
DOCKED: REMARK  5 active torsions:
DOCKED: REMARK  status: ('A' for Active; 'I' for Inactive)
DOCKED: REMARK    1  A    between atoms: C_2  and  C_19 
DOCKED: REMARK    2  A    between atoms: C_2  and  C_11 
DOCKED: REMARK    3  A    between atoms: C_19  and  C_20 
DOCKED: REMARK    4  A    between atoms: C_20  and  C_21 
DOCKED: REMARK    5  A    between atoms: C_21  and  N_22 
DOCKED: USER                              x       y       z     vdW  Elec       q    Type
DOCKED: USER                           _______ _______ _______ _____ _____    ______ ____
DOCKED: ROOT
DOCKED: ATOM      1  O   UNL     1     -30.756 -17.675   1.823 -0.00 -0.00    -0.346 OA 
DOCKED: ATOM      2  C   UNL     1     -31.263 -16.627   2.709 -0.07 +0.00    +0.130 C  
DOCKED: ATOM      3  C   UNL     1     -31.843 -17.385   3.868 -0.11 +0.00    +0.004 A  
DOCKED: ATOM      4  C   UNL     1     -31.591 -18.741   3.712 -0.13 +0.00    +0.006 A  
DOCKED: ATOM      5  C   UNL     1     -30.827 -18.970   2.465 -0.07 +0.00    +0.169 C  
DOCKED: ATOM      6  C   UNL     1     -32.529 -16.912   4.977 -0.16 -0.00    -0.001 A  
DOCKED: ATOM      7  C   UNL     1     -32.016 -19.665   4.650 -0.24 +0.00    +0.008 A  
DOCKED: ATOM      8  C   UNL     1     -32.968 -17.832   5.930 -0.27 +0.00    +0.010 A  
DOCKED: ATOM      9  C   UNL     1     -32.712 -19.202   5.767 -0.29 +0.00    +0.068 A  
DOCKED: ATOM     10  N   UNL     1     -33.537 -20.883   7.558 -2.67 -0.00    -0.191 NA 
DOCKED: ATOM     11  C   UNL     1     -33.168 -20.129   6.755 -0.41 +0.00    +0.101 C  
DOCKED: ENDROOT
DOCKED: BRANCH   2  12
DOCKED: ATOM     12  C   UNL     1     -30.099 -15.729   3.110 -0.01 +0.00    +0.038 C  
DOCKED: BRANCH  12  13
DOCKED: ATOM     13  C   UNL     1     -29.137 -15.510   1.944 -0.00 +0.00    +0.038 C  
DOCKED: BRANCH  13  14
DOCKED: ATOM     14  C   UNL     1     -29.091 -14.038   1.539 -0.00 +0.00    +0.251 C  
DOCKED: BRANCH  14  15
DOCKED: ATOM     15  N   UNL     1     -30.002 -13.255   2.366 -0.00 +0.00    +0.141 N  
DOCKED: ATOM     16  C   UNL     1     -29.255 -12.384   3.274 +0.00 +0.00    +0.285 C  
DOCKED: ATOM     17  C   UNL     1     -30.905 -12.462   1.530 +0.00 +0.00    +0.285 C  
DOCKED: ENDBRANCH  14  15
DOCKED: ENDBRANCH  13  14
DOCKED: ENDBRANCH  12  13
DOCKED: ENDBRANCH   2  12
DOCKED: BRANCH   2  18
DOCKED: ATOM     18  C   UNL     1     -32.290 -15.865   1.940 -0.12 +0.00    +0.006 A  
DOCKED: ATOM     19  C   UNL     1     -33.082 -14.916   2.585 -0.15 +0.00    +0.001 A  
DOCKED: ATOM     20  C   UNL     1     -34.043 -14.205   1.865 -0.19 +0.00    +0.029 A  
DOCKED: ATOM     21  C   UNL     1     -34.210 -14.443   0.501 -0.18 +0.00    +0.140 A  
DOCKED: ATOM     22  C   UNL     1     -33.417 -15.392  -0.144 -0.20 +0.00    +0.029 A  
DOCKED: ATOM     23  F   UNL     1     -35.130 -13.759  -0.190 -0.13 -0.00    -0.204 F  
DOCKED: ATOM     24  C   UNL     1     -32.456 -16.104   0.576 -0.15 +0.00    +0.001 A  
DOCKED: ENDBRANCH   2  18
DOCKED: TORSDOF 5
DOCKED: TER
DOCKED: ENDMDL
________________________________________________________________________________


    FINAL DOCKED STATE:
    ________________________


Run:   300 / 512
Time taken for this run:   0.002s

DOCKED: MODEL        300
DOCKED: USER    Run = 300
DOCKED: USER
DOCKED: USER    Estimated Free Energy of Binding    =  -4.86 kcal/mol  [=(1)+(2)+(3)-(4)]
DOCKED: USER
DOCKED: USER    (1) Final Intermolecular Energy     =  -6.35 kcal/mol
DOCKED: USER        vdW + Hbond + desolv Energy     =  -6.35 kcal/mol
DOCKED: USER        Electrostatic Energy            =  +0.00 kcal/mol
DOCKED: USER        Moving Ligand-Fixed Receptor    =  -6.35 kcal/mol
DOCKED: USER        Moving Ligand-Moving Receptor   =  +0.00 kcal/mol
DOCKED: USER    (2) Final Total Internal Energy     =  -0.90 kcal/mol
DOCKED: USER    (3) Torsional Free Energy           =  +1.49 kcal/mol
DOCKED: USER    (4) Unbound System's Energy         =  -0.90 kcal/mol
DOCKED: USER
DOCKED: USER
DOCKED: REMARK  5 active torsions:
DOCKED: REMARK  status: ('A' for Active; 'I' for Inactive)
DOCKED: REMARK    1  A    between atoms: C_2  and  C_19 
DOCKED: REMARK    2  A    between atoms: C_2  and  C_11 
DOCKED: REMARK    3  A    between atoms: C_19  and  C_20 
DOCKED: REMARK    4  A    between atoms: C_20  and  C_21 
DOCKED: REMARK    5  A    between atoms: C_21  and  N_22 
DOCKED: USER                              x       y       z     vdW  Elec       q    Type
DOCKED: USER                           _______ _______ _______ _____ _____    ______ ____
DOCKED: ROOT
DOCKED: ATOM      1  O   UNL     1     -37.491  -9.931   4.678 -0.12 -0.00    -0.346 OA 
DOCKED: ATOM      2  C   UNL     1     -36.176 -10.021   4.043 -0.20 +0.00    +0.130 C  
DOCKED: ATOM      3  C   UNL     1     -36.386  -9.404   2.691 -0.26 +0.00    +0.004 A  
DOCKED: ATOM      4  C   UNL     1     -37.678  -8.905   2.601 -0.10 +0.00    +0.006 A  
DOCKED: ATOM      5  C   UNL     1     -38.397  -9.142   3.872 -0.13 +0.00    +0.169 C  
DOCKED: ATOM      6  C   UNL     1     -35.501  -9.283   1.629 -0.23 -0.00    -0.001 A  
DOCKED: ATOM      7  C   UNL     1     -38.129  -8.277   1.453 -0.15 +0.00    +0.008 A  
DOCKED: ATOM      8  C   UNL     1     -35.942  -8.656   0.463 -0.27 +0.00    +0.010 A  
DOCKED: ATOM      9  C   UNL     1     -37.250  -8.155   0.376 -0.30 +0.00    +0.068 A  
DOCKED: ATOM     10  N   UNL     1     -38.036  -6.991  -1.802 -2.54 -0.00    -0.191 NA 
DOCKED: ATOM     11  C   UNL     1     -37.683  -7.513  -0.825 -0.32 +0.00    +0.101 C  
DOCKED: ENDROOT
DOCKED: BRANCH   2  12
DOCKED: ATOM     12  C   UNL     1     -35.175  -9.252   4.897 -0.17 +0.00    +0.038 C  
DOCKED: BRANCH  12  13
DOCKED: ATOM     13  C   UNL     1     -33.740  -9.681   4.596 -0.11 +0.00    +0.038 C  
DOCKED: BRANCH  13  14
DOCKED: ATOM     14  C   UNL     1     -33.045  -8.672   3.683 -0.09 +0.00    +0.251 C  
DOCKED: BRANCH  14  15
DOCKED: ATOM     15  N   UNL     1     -31.900  -8.078   4.362 -0.07 +0.00    +0.141 N  
DOCKED: ATOM     16  C   UNL     1     -30.663  -8.760   3.980 -0.01 +0.00    +0.285 C  
DOCKED: ATOM     17  C   UNL     1     -31.806  -6.649   4.061 -0.07 +0.00    +0.285 C  
DOCKED: ENDBRANCH  14  15
DOCKED: ENDBRANCH  13  14
DOCKED: ENDBRANCH  12  13
DOCKED: ENDBRANCH   2  12
DOCKED: BRANCH   2  18
DOCKED: ATOM     18  C   UNL     1     -35.823 -11.469   3.973 -0.16 +0.00    +0.006 A  
DOCKED: ATOM     19  C   UNL     1     -35.141 -11.967   2.864 -0.16 +0.00    +0.001 A  
DOCKED: ATOM     20  C   UNL     1     -34.812 -13.322   2.799 -0.17 +0.00    +0.029 A  
DOCKED: ATOM     21  C   UNL     1     -35.165 -14.176   3.843 -0.19 +0.00    +0.140 A  
DOCKED: ATOM     22  C   UNL     1     -35.847 -13.677   4.953 -0.23 +0.00    +0.029 A  
DOCKED: ATOM     23  F   UNL     1     -34.847 -15.475   3.782 -0.10 -0.00    -0.204 F  
DOCKED: ATOM     24  C   UNL     1     -36.177 -12.322   5.018 -0.17 +0.00    +0.001 A  
DOCKED: ENDBRANCH   2  18
DOCKED: TORSDOF 5
DOCKED: TER
DOCKED: ENDMDL
________________________________________________________________________________


    FINAL DOCKED STATE:
    ________________________


Run:   301 / 512
Time taken for this run:   0.002s

DOCKED: MODEL        301
DOCKED: USER    Run = 301
DOCKED: USER
DOCKED: USER    Estimated Free Energy of Binding    =  -4.25 kcal/mol  [=(1)+(2)+(3)-(4)]
DOCKED: USER
DOCKED: USER    (1) Final Intermolecular Energy     =  -5.74 kcal/mol
DOCKED: USER        vdW + Hbond + desolv Energy     =  -5.74 kcal/mol
DOCKED: USER        Electrostatic Energy            =  +0.00 kcal/mol
DOCKED: USER        Moving Ligand-Fixed Receptor    =  -5.74 kcal/mol
DOCKED: USER        Moving Ligand-Moving Receptor   =  +0.00 kcal/mol
DOCKED: USER    (2) Final Total Internal Energy     =  -1.26 kcal/mol
DOCKED: USER    (3) Torsional Free Energy           =  +1.49 kcal/mol
DOCKED: USER    (4) Unbound System's Energy         =  -1.26 kcal/mol
DOCKED: USER
DOCKED: USER
DOCKED: REMARK  5 active torsions:
DOCKED: REMARK  status: ('A' for Active; 'I' for Inactive)
DOCKED: REMARK    1  A    between atoms: C_2  and  C_19 
DOCKED: REMARK    2  A    between atoms: C_2  and  C_11 
DOCKED: REMARK    3  A    between atoms: C_19  and  C_20 
DOCKED: REMARK    4  A    between atoms: C_20  and  C_21 
DOCKED: REMARK    5  A    between atoms: C_21  and  N_22 
DOCKED: USER                              x       y       z     vdW  Elec       q    Type
DOCKED: USER                           _______ _______ _______ _____ _____    ______ ____
DOCKED: ROOT
DOCKED: ATOM      1  O   UNL     1     -35.987 -16.244  11.879 -0.08 -0.00    -0.346 OA 
DOCKED: ATOM      2  C   UNL     1     -36.950 -15.322  11.275 -0.13 +0.00    +0.130 C  
DOCKED: ATOM      3  C   UNL     1     -37.954 -16.227  10.623 -0.20 +0.00    +0.004 A  
DOCKED: ATOM      4  C   UNL     1     -37.655 -17.549  10.921 -0.22 +0.00    +0.006 A  
DOCKED: ATOM      5  C   UNL     1     -36.457 -17.609  11.788 -0.15 +0.00    +0.169 C  
DOCKED: ATOM      6  C   UNL     1     -39.052 -15.906   9.838 -0.28 -0.00    -0.001 A  
DOCKED: ATOM      7  C   UNL     1     -38.434 -18.589  10.445 -0.35 +0.00    +0.008 A  
DOCKED: ATOM      8  C   UNL     1     -39.846 -16.944   9.347 -0.32 +0.00    +0.010 A  
DOCKED: ATOM      9  C   UNL     1     -39.538 -18.279   9.649 -0.31 +0.00    +0.068 A  
DOCKED: ATOM     10  N   UNL     1     -41.034 -20.182   8.725 -2.56 -0.00    -0.191 NA 
DOCKED: ATOM     11  C   UNL     1     -40.363 -19.328   9.139 -0.37 +0.00    +0.101 C  
DOCKED: ENDROOT
DOCKED: BRANCH   2  12
DOCKED: ATOM     12  C   UNL     1     -37.554 -14.463  12.380 -0.06 +0.00    +0.038 C  
DOCKED: BRANCH  12  13
DOCKED: ATOM     13  C   UNL     1     -36.468 -13.805  13.230 -0.02 +0.00    +0.038 C  
DOCKED: BRANCH  13  14
DOCKED: ATOM     14  C   UNL     1     -36.084 -12.438  12.668 -0.01 +0.00    +0.251 C  
DOCKED: BRANCH  14  15
DOCKED: ATOM     15  N   UNL     1     -34.841 -11.972  13.272 -0.00 +0.00    +0.141 N  
DOCKED: ATOM     16  C   UNL     1     -34.515 -12.766  14.457 -0.00 +0.00    +0.285 C  
DOCKED: ATOM     17  C   UNL     1     -33.744 -12.029  12.305 -0.00 +0.00    +0.285 C  
DOCKED: ENDBRANCH  14  15
DOCKED: ENDBRANCH  13  14
DOCKED: ENDBRANCH  12  13
DOCKED: ENDBRANCH   2  12
DOCKED: BRANCH   2  18
DOCKED: ATOM     18  C   UNL     1     -36.197 -14.486  10.294 -0.13 +0.00    +0.006 A  
DOCKED: ATOM     19  C   UNL     1     -34.811 -14.601  10.201 -0.09 +0.00    +0.001 A  
DOCKED: ATOM     20  C   UNL     1     -34.108 -13.818   9.283 -0.09 +0.00    +0.029 A  
DOCKED: ATOM     21  C   UNL     1     -34.792 -12.924   8.461 -0.07 +0.00    +0.140 A  
DOCKED: ATOM     22  C   UNL     1     -36.179 -12.810   8.555 -0.12 +0.00    +0.029 A  
DOCKED: ATOM     23  F   UNL     1     -34.118 -12.174   7.580 -0.00 -0.00    -0.204 F  
DOCKED: ATOM     24  C   UNL     1     -36.883 -13.592   9.473 -0.16 +0.00    +0.001 A  
DOCKED: ENDBRANCH   2  18
DOCKED: TORSDOF 5
DOCKED: TER
DOCKED: ENDMDL
________________________________________________________________________________


    FINAL DOCKED STATE:
    ________________________


Run:   302 / 512
Time taken for this run:   0.002s

DOCKED: MODEL        302
DOCKED: USER    Run = 302
DOCKED: USER
DOCKED: USER    Estimated Free Energy of Binding    =  -4.06 kcal/mol  [=(1)+(2)+(3)-(4)]
DOCKED: USER
DOCKED: USER    (1) Final Intermolecular Energy     =  -5.55 kcal/mol
DOCKED: USER        vdW + Hbond + desolv Energy     =  -5.55 kcal/mol
DOCKED: USER        Electrostatic Energy            =  +0.00 kcal/mol
DOCKED: USER        Moving Ligand-Fixed Receptor    =  -5.55 kcal/mol
DOCKED: USER        Moving Ligand-Moving Receptor   =  +0.00 kcal/mol
DOCKED: USER    (2) Final Total Internal Energy     =  -1.16 kcal/mol
DOCKED: USER    (3) Torsional Free Energy           =  +1.49 kcal/mol
DOCKED: USER    (4) Unbound System's Energy         =  -1.16 kcal/mol
DOCKED: USER
DOCKED: USER
DOCKED: REMARK  5 active torsions:
DOCKED: REMARK  status: ('A' for Active; 'I' for Inactive)
DOCKED: REMARK    1  A    between atoms: C_2  and  C_19 
DOCKED: REMARK    2  A    between atoms: C_2  and  C_11 
DOCKED: REMARK    3  A    between atoms: C_19  and  C_20 
DOCKED: REMARK    4  A    between atoms: C_20  and  C_21 
DOCKED: REMARK    5  A    between atoms: C_21  and  N_22 
DOCKED: USER                              x       y       z     vdW  Elec       q    Type
DOCKED: USER                           _______ _______ _______ _____ _____    ______ ____
DOCKED: ROOT
DOCKED: ATOM      1  O   UNL     1     -37.372 -14.944  11.489 -0.04 -0.00    -0.346 OA 
DOCKED: ATOM      2  C   UNL     1     -38.749 -14.494  11.283 -0.11 +0.00    +0.130 C  
DOCKED: ATOM      3  C   UNL     1     -39.432 -15.689  10.684 -0.21 +0.00    +0.004 A  
DOCKED: ATOM      4  C   UNL     1     -38.553 -16.763  10.654 -0.24 +0.00    +0.006 A  
DOCKED: ATOM      5  C   UNL     1     -37.251 -16.362  11.232 -0.14 +0.00    +0.169 C  
DOCKED: ATOM      6  C   UNL     1     -40.731 -15.820  10.215 -0.24 -0.00    -0.001 A  
DOCKED: ATOM      7  C   UNL     1     -38.938 -17.995  10.152 -0.32 +0.00    +0.008 A  
DOCKED: ATOM      8  C   UNL     1     -41.133 -17.055   9.703 -0.24 +0.00    +0.010 A  
DOCKED: ATOM      9  C   UNL     1     -40.240 -18.136   9.672 -0.27 +0.00    +0.068 A  
DOCKED: ATOM     10  N   UNL     1     -41.019 -20.416   8.719 -2.55 -0.00    -0.191 NA 
DOCKED: ATOM     11  C   UNL     1     -40.669 -19.394   9.146 -0.36 +0.00    +0.101 C  
DOCKED: ENDROOT
DOCKED: BRANCH   2  12
DOCKED: ATOM     12  C   UNL     1     -39.332 -14.091  12.632 -0.04 +0.00    +0.038 C  
DOCKED: BRANCH  12  13
DOCKED: ATOM     13  C   UNL     1     -38.231 -13.771  13.641 -0.01 +0.00    +0.038 C  
DOCKED: BRANCH  13  14
DOCKED: ATOM     14  C   UNL     1     -38.680 -12.686  14.618 -0.00 +0.00    +0.251 C  
DOCKED: BRANCH  14  15
DOCKED: ATOM     15  N   UNL     1     -38.473 -11.364  14.038 +0.00 +0.00    +0.141 N  
DOCKED: ATOM     16  C   UNL     1     -39.721 -10.847  13.474 -0.00 +0.00    +0.285 C  
DOCKED: ATOM     17  C   UNL     1     -37.947 -10.437  15.042 +0.00 +0.00    +0.285 C  
DOCKED: ENDBRANCH  14  15
DOCKED: ENDBRANCH  13  14
DOCKED: ENDBRANCH  12  13
DOCKED: ENDBRANCH   2  12
DOCKED: BRANCH   2  18
DOCKED: ATOM     18  C   UNL     1     -38.693 -13.329  10.351 -0.14 +0.00    +0.006 A  
DOCKED: ATOM     19  C   UNL     1     -37.461 -12.867   9.888 -0.12 +0.00    +0.001 A  
DOCKED: ATOM     20  C   UNL     1     -37.410 -11.778   9.017 -0.10 +0.00    +0.029 A  
DOCKED: ATOM     21  C   UNL     1     -38.589 -11.154   8.610 -0.09 +0.00    +0.140 A  
DOCKED: ATOM     22  C   UNL     1     -39.820 -11.617   9.073 -0.14 +0.00    +0.029 A  
DOCKED: ATOM     23  F   UNL     1     -38.539 -10.110   7.773 -0.02 -0.00    -0.204 F  
DOCKED: ATOM     24  C   UNL     1     -39.872 -12.706   9.945 -0.17 +0.00    +0.001 A  
DOCKED: ENDBRANCH   2  18
DOCKED: TORSDOF 5
DOCKED: TER
DOCKED: ENDMDL
________________________________________________________________________________


    FINAL DOCKED STATE:
    ________________________


Run:   303 / 512
Time taken for this run:   0.002s

DOCKED: MODEL        303
DOCKED: USER    Run = 303
DOCKED: USER
DOCKED: USER    Estimated Free Energy of Binding    =  -5.78 kcal/mol  [=(1)+(2)+(3)-(4)]
DOCKED: USER
DOCKED: USER    (1) Final Intermolecular Energy     =  -7.27 kcal/mol
DOCKED: USER        vdW + Hbond + desolv Energy     =  -7.27 kcal/mol
DOCKED: USER        Electrostatic Energy            =  +0.00 kcal/mol
DOCKED: USER        Moving Ligand-Fixed Receptor    =  -7.27 kcal/mol
DOCKED: USER        Moving Ligand-Moving Receptor   =  +0.00 kcal/mol
DOCKED: USER    (2) Final Total Internal Energy     =  -1.20 kcal/mol
DOCKED: USER    (3) Torsional Free Energy           =  +1.49 kcal/mol
DOCKED: USER    (4) Unbound System's Energy         =  -1.20 kcal/mol
DOCKED: USER
DOCKED: USER
DOCKED: REMARK  5 active torsions:
DOCKED: REMARK  status: ('A' for Active; 'I' for Inactive)
DOCKED: REMARK    1  A    between atoms: C_2  and  C_19 
DOCKED: REMARK    2  A    between atoms: C_2  and  C_11 
DOCKED: REMARK    3  A    between atoms: C_19  and  C_20 
DOCKED: REMARK    4  A    between atoms: C_20  and  C_21 
DOCKED: REMARK    5  A    between atoms: C_21  and  N_22 
DOCKED: USER                              x       y       z     vdW  Elec       q    Type
DOCKED: USER                           _______ _______ _______ _____ _____    ______ ____
DOCKED: ROOT
DOCKED: ATOM      1  O   UNL     1     -38.978 -16.391  11.301 -0.04 -0.00    -0.346 OA 
DOCKED: ATOM      2  C   UNL     1     -38.547 -17.789  11.261 -0.23 +0.00    +0.130 C  
DOCKED: ATOM      3  C   UNL     1     -39.050 -18.282   9.935 -0.35 +0.00    +0.004 A  
DOCKED: ATOM      4  C   UNL     1     -39.620 -17.230   9.232 -0.35 +0.00    +0.006 A  
DOCKED: ATOM      5  C   UNL     1     -39.525 -15.985  10.025 -0.23 +0.00    +0.169 C  
DOCKED: ATOM      6  C   UNL     1     -38.996 -19.556   9.390 -0.37 -0.00    -0.001 A  
DOCKED: ATOM      7  C   UNL     1     -40.158 -17.415   7.969 -0.12 +0.00    +0.008 A  
DOCKED: ATOM      8  C   UNL     1     -39.538 -19.760   8.120 -0.44 +0.00    +0.010 A  
DOCKED: ATOM      9  C   UNL     1     -40.115 -18.694   7.413 -0.43 +0.00    +0.068 A  
DOCKED: ATOM     10  N   UNL     1     -41.107 -19.106   5.055 -2.81 -0.00    -0.191 NA 
DOCKED: ATOM     11  C   UNL     1     -40.662 -18.921   6.113 -0.44 +0.00    +0.101 C  
DOCKED: ENDROOT
DOCKED: BRANCH   2  12
DOCKED: ATOM     12  C   UNL     1     -37.028 -17.828  11.372 -0.23 +0.00    +0.038 C  
DOCKED: BRANCH  12  13
DOCKED: ATOM     13  C   UNL     1     -36.454 -16.444  11.668 -0.17 +0.00    +0.038 C  
DOCKED: BRANCH  13  14
DOCKED: ATOM     14  C   UNL     1     -36.690 -16.052  13.125 -0.05 +0.00    +0.251 C  
DOCKED: BRANCH  14  15
DOCKED: ATOM     15  N   UNL     1     -36.137 -14.729  13.390 -0.02 +0.00    +0.141 N  
DOCKED: ATOM     16  C   UNL     1     -34.711 -14.820  13.707 -0.01 +0.00    +0.285 C  
DOCKED: ATOM     17  C   UNL     1     -36.346 -13.843  12.243 -0.02 +0.00    +0.285 C  
DOCKED: ENDBRANCH  14  15
DOCKED: ENDBRANCH  13  14
DOCKED: ENDBRANCH  12  13
DOCKED: ENDBRANCH   2  12
DOCKED: BRANCH   2  18
DOCKED: ATOM     18  C   UNL     1     -39.189 -18.477  12.419 -0.19 +0.00    +0.006 A  
DOCKED: ATOM     19  C   UNL     1     -38.426 -18.826  13.532 -0.17 +0.00    +0.001 A  
DOCKED: ATOM     20  C   UNL     1     -39.028 -19.470  14.614 -0.21 +0.00    +0.029 A  
DOCKED: ATOM     21  C   UNL     1     -40.391 -19.763  14.581 -0.03 +0.00    +0.140 A  
DOCKED: ATOM     22  C   UNL     1     -41.153 -19.413  13.467 -0.15 +0.00    +0.029 A  
DOCKED: ATOM     23  F   UNL     1     -40.969 -20.379  15.621 -0.03 -0.00    -0.204 F  
DOCKED: ATOM     24  C   UNL     1     -40.552 -18.770  12.384 -0.18 +0.00    +0.001 A  
DOCKED: ENDBRANCH   2  18
DOCKED: TORSDOF 5
DOCKED: TER
DOCKED: ENDMDL
________________________________________________________________________________


    FINAL DOCKED STATE:
    ________________________


Run:   304 / 512
Time taken for this run:   0.002s

DOCKED: MODEL        304
DOCKED: USER    Run = 304
DOCKED: USER
DOCKED: USER    Estimated Free Energy of Binding    =  -4.22 kcal/mol  [=(1)+(2)+(3)-(4)]
DOCKED: USER
DOCKED: USER    (1) Final Intermolecular Energy     =  -5.71 kcal/mol
DOCKED: USER        vdW + Hbond + desolv Energy     =  -5.71 kcal/mol
DOCKED: USER        Electrostatic Energy            =  +0.00 kcal/mol
DOCKED: USER        Moving Ligand-Fixed Receptor    =  -5.71 kcal/mol
DOCKED: USER        Moving Ligand-Moving Receptor   =  +0.00 kcal/mol
DOCKED: USER    (2) Final Total Internal Energy     =  -1.09 kcal/mol
DOCKED: USER    (3) Torsional Free Energy           =  +1.49 kcal/mol
DOCKED: USER    (4) Unbound System's Energy         =  -1.09 kcal/mol
DOCKED: USER
DOCKED: USER
DOCKED: REMARK  5 active torsions:
DOCKED: REMARK  status: ('A' for Active; 'I' for Inactive)
DOCKED: REMARK    1  A    between atoms: C_2  and  C_19 
DOCKED: REMARK    2  A    between atoms: C_2  and  C_11 
DOCKED: REMARK    3  A    between atoms: C_19  and  C_20 
DOCKED: REMARK    4  A    between atoms: C_20  and  C_21 
DOCKED: REMARK    5  A    between atoms: C_21  and  N_22 
DOCKED: USER                              x       y       z     vdW  Elec       q    Type
DOCKED: USER                           _______ _______ _______ _____ _____    ______ ____
DOCKED: ROOT
DOCKED: ATOM      1  O   UNL     1     -42.822 -14.079  10.955 -0.07 -0.00    -0.346 OA 
DOCKED: ATOM      2  C   UNL     1     -41.358 -14.067  10.929 -0.16 +0.00    +0.130 C  
DOCKED: ATOM      3  C   UNL     1     -40.995 -15.450  10.472 -0.22 +0.00    +0.004 A  
DOCKED: ATOM      4  C   UNL     1     -42.148 -16.156  10.158 -0.21 +0.00    +0.006 A  
DOCKED: ATOM      5  C   UNL     1     -43.335 -15.298  10.369 -0.19 +0.00    +0.169 C  
DOCKED: ATOM      6  C   UNL     1     -39.744 -16.033  10.334 -0.24 -0.00    -0.001 A  
DOCKED: ATOM      7  C   UNL     1     -42.091 -17.462   9.702 -0.25 +0.00    +0.008 A  
DOCKED: ATOM      8  C   UNL     1     -39.670 -17.351   9.880 -0.31 +0.00    +0.010 A  
DOCKED: ATOM      9  C   UNL     1     -40.838 -18.061   9.565 -0.25 +0.00    +0.068 A  
DOCKED: ATOM     10  N   UNL     1     -40.666 -20.504   8.720 -2.61 -0.00    -0.191 NA 
DOCKED: ATOM     11  C   UNL     1     -40.744 -19.409   9.100 -0.36 +0.00    +0.101 C  
DOCKED: ENDROOT
DOCKED: BRANCH   2  12
DOCKED: ATOM     12  C   UNL     1     -40.902 -12.982   9.960 -0.23 +0.00    +0.038 C  
DOCKED: BRANCH  12  13
DOCKED: ATOM     13  C   UNL     1     -42.081 -12.149   9.461 -0.17 +0.00    +0.038 C  
DOCKED: BRANCH  13  14
DOCKED: ATOM     14  C   UNL     1     -42.124 -10.788  10.154 -0.07 +0.00    +0.251 C  
DOCKED: BRANCH  14  15
DOCKED: ATOM     15  N   UNL     1     -42.300  -9.725   9.171 -0.08 +0.00    +0.141 N  
DOCKED: ATOM     16  C   UNL     1     -41.250  -9.784   8.154 -0.09 +0.00    +0.285 C  
DOCKED: ATOM     17  C   UNL     1     -43.620  -9.815   8.544 -0.11 +0.00    +0.285 C  
DOCKED: ENDBRANCH  14  15
DOCKED: ENDBRANCH  13  14
DOCKED: ENDBRANCH  12  13
DOCKED: ENDBRANCH   2  12
DOCKED: BRANCH   2  18
DOCKED: ATOM     18  C   UNL     1     -40.900 -13.774  12.319 -0.05 +0.00    +0.006 A  
DOCKED: ATOM     19  C   UNL     1     -40.160 -12.622  12.581 -0.03 +0.00    +0.001 A  
DOCKED: ATOM     20  C   UNL     1     -39.732 -12.350  13.881 -0.00 +0.00    +0.029 A  
DOCKED: ATOM     21  C   UNL     1     -40.044 -13.229  14.916 +0.00 +0.00    +0.140 A  
DOCKED: ATOM     22  C   UNL     1     -40.784 -14.382  14.653 -0.00 +0.00    +0.029 A  
DOCKED: ATOM     23  F   UNL     1     -39.634 -12.967  16.164 +0.00 -0.00    -0.204 F  
DOCKED: ATOM     24  C   UNL     1     -41.212 -14.655  13.353 -0.02 +0.00    +0.001 A  
DOCKED: ENDBRANCH   2  18
DOCKED: TORSDOF 5
DOCKED: TER
DOCKED: ENDMDL
________________________________________________________________________________


    FINAL DOCKED STATE:
    ________________________


Run:   305 / 512
Time taken for this run:   0.002s

DOCKED: MODEL        305
DOCKED: USER    Run = 305
DOCKED: USER
DOCKED: USER    Estimated Free Energy of Binding    =  -4.50 kcal/mol  [=(1)+(2)+(3)-(4)]
DOCKED: USER
DOCKED: USER    (1) Final Intermolecular Energy     =  -5.99 kcal/mol
DOCKED: USER        vdW + Hbond + desolv Energy     =  -5.99 kcal/mol
DOCKED: USER        Electrostatic Energy            =  +0.00 kcal/mol
DOCKED: USER        Moving Ligand-Fixed Receptor    =  -5.99 kcal/mol
DOCKED: USER        Moving Ligand-Moving Receptor   =  +0.00 kcal/mol
DOCKED: USER    (2) Final Total Internal Energy     =  -1.19 kcal/mol
DOCKED: USER    (3) Torsional Free Energy           =  +1.49 kcal/mol
DOCKED: USER    (4) Unbound System's Energy         =  -1.19 kcal/mol
DOCKED: USER
DOCKED: USER
DOCKED: REMARK  5 active torsions:
DOCKED: REMARK  status: ('A' for Active; 'I' for Inactive)
DOCKED: REMARK    1  A    between atoms: C_2  and  C_19 
DOCKED: REMARK    2  A    between atoms: C_2  and  C_11 
DOCKED: REMARK    3  A    between atoms: C_19  and  C_20 
DOCKED: REMARK    4  A    between atoms: C_20  and  C_21 
DOCKED: REMARK    5  A    between atoms: C_21  and  N_22 
DOCKED: USER                              x       y       z     vdW  Elec       q    Type
DOCKED: USER                           _______ _______ _______ _____ _____    ______ ____
DOCKED: ROOT
DOCKED: ATOM      1  O   UNL     1     -36.620 -15.973  12.326 -0.05 -0.00    -0.346 OA 
DOCKED: ATOM      2  C   UNL     1     -37.473 -15.173  11.446 -0.12 +0.00    +0.130 C  
DOCKED: ATOM      3  C   UNL     1     -38.267 -16.197  10.688 -0.22 +0.00    +0.004 A  
DOCKED: ATOM      4  C   UNL     1     -37.975 -17.465  11.170 -0.25 +0.00    +0.006 A  
DOCKED: ATOM      5  C   UNL     1     -36.992 -17.370  12.272 -0.15 +0.00    +0.169 C  
DOCKED: ATOM      6  C   UNL     1     -39.184 -16.020   9.662 -0.28 -0.00    -0.001 A  
DOCKED: ATOM      7  C   UNL     1     -38.581 -18.593  10.644 -0.34 +0.00    +0.008 A  
DOCKED: ATOM      8  C   UNL     1     -39.800 -17.148   9.118 -0.34 +0.00    +0.010 A  
DOCKED: ATOM      9  C   UNL     1     -39.500 -18.428   9.607 -0.32 +0.00    +0.068 A  
DOCKED: ATOM     10  N   UNL     1     -40.666 -20.500   8.578 -2.52 -0.00    -0.191 NA 
DOCKED: ATOM     11  C   UNL     1     -40.143 -19.571   9.039 -0.30 +0.00    +0.101 C  
DOCKED: ENDROOT
DOCKED: BRANCH   2  12
DOCKED: ATOM     12  C   UNL     1     -38.343 -14.268  12.309 -0.05 +0.00    +0.038 C  
DOCKED: BRANCH  12  13
DOCKED: ATOM     13  C   UNL     1     -39.790 -14.754  12.345 -0.06 +0.00    +0.038 C  
DOCKED: BRANCH  13  14
DOCKED: ATOM     14  C   UNL     1     -40.766 -13.586  12.217 -0.03 +0.00    +0.251 C  
DOCKED: BRANCH  14  15
DOCKED: ATOM     15  N   UNL     1     -41.611 -13.757  11.042 -0.11 +0.00    +0.141 N  
DOCKED: ATOM     16  C   UNL     1     -40.921 -13.294   9.837 -0.15 +0.00    +0.285 C  
DOCKED: ATOM     17  C   UNL     1     -42.009 -15.158  10.892 -0.11 +0.00    +0.285 C  
DOCKED: ENDBRANCH  14  15
DOCKED: ENDBRANCH  13  14
DOCKED: ENDBRANCH  12  13
DOCKED: ENDBRANCH   2  12
DOCKED: BRANCH   2  18
DOCKED: ATOM     18  C   UNL     1     -36.568 -14.374  10.569 -0.14 +0.00    +0.006 A  
DOCKED: ATOM     19  C   UNL     1     -37.038 -13.212   9.957 -0.13 +0.00    +0.001 A  
DOCKED: ATOM     20  C   UNL     1     -36.190 -12.466   9.137 -0.09 +0.00    +0.029 A  
DOCKED: ATOM     21  C   UNL     1     -34.875 -12.881   8.931 -0.07 +0.00    +0.140 A  
DOCKED: ATOM     22  C   UNL     1     -34.406 -14.043   9.544 -0.10 +0.00    +0.029 A  
DOCKED: ATOM     23  F   UNL     1     -34.062 -12.163   8.146 -0.00 -0.00    -0.204 F  
DOCKED: ATOM     24  C   UNL     1     -35.253 -14.790  10.364 -0.05 +0.00    +0.001 A  
DOCKED: ENDBRANCH   2  18
DOCKED: TORSDOF 5
DOCKED: TER
DOCKED: ENDMDL
________________________________________________________________________________


    FINAL DOCKED STATE:
    ________________________


Run:   306 / 512
Time taken for this run:   0.002s

DOCKED: MODEL        306
DOCKED: USER    Run = 306
DOCKED: USER
DOCKED: USER    Estimated Free Energy of Binding    =  -3.90 kcal/mol  [=(1)+(2)+(3)-(4)]
DOCKED: USER
DOCKED: USER    (1) Final Intermolecular Energy     =  -5.39 kcal/mol
DOCKED: USER        vdW + Hbond + desolv Energy     =  -5.39 kcal/mol
DOCKED: USER        Electrostatic Energy            =  +0.00 kcal/mol
DOCKED: USER        Moving Ligand-Fixed Receptor    =  -5.39 kcal/mol
DOCKED: USER        Moving Ligand-Moving Receptor   =  +0.00 kcal/mol
DOCKED: USER    (2) Final Total Internal Energy     =  -1.12 kcal/mol
DOCKED: USER    (3) Torsional Free Energy           =  +1.49 kcal/mol
DOCKED: USER    (4) Unbound System's Energy         =  -1.12 kcal/mol
DOCKED: USER
DOCKED: USER
DOCKED: REMARK  5 active torsions:
DOCKED: REMARK  status: ('A' for Active; 'I' for Inactive)
DOCKED: REMARK    1  A    between atoms: C_2  and  C_19 
DOCKED: REMARK    2  A    between atoms: C_2  and  C_11 
DOCKED: REMARK    3  A    between atoms: C_19  and  C_20 
DOCKED: REMARK    4  A    between atoms: C_20  and  C_21 
DOCKED: REMARK    5  A    between atoms: C_21  and  N_22 
DOCKED: USER                              x       y       z     vdW  Elec       q    Type
DOCKED: USER                           _______ _______ _______ _____ _____    ______ ____
DOCKED: ROOT
DOCKED: ATOM      1  O   UNL     1     -39.346 -13.806  10.566 -0.06 -0.00    -0.346 OA 
DOCKED: ATOM      2  C   UNL     1     -38.192 -14.652  10.877 -0.15 +0.00    +0.130 C  
DOCKED: ATOM      3  C   UNL     1     -38.639 -16.029  10.480 -0.24 +0.00    +0.004 A  
DOCKED: ATOM      4  C   UNL     1     -39.894 -15.962   9.891 -0.27 +0.00    +0.006 A  
DOCKED: ATOM      5  C   UNL     1     -40.353 -14.556   9.847 -0.17 +0.00    +0.169 C  
DOCKED: ATOM      6  C   UNL     1     -37.982 -17.243  10.618 -0.23 -0.00    -0.001 A  
DOCKED: ATOM      7  C   UNL     1     -40.534 -17.098   9.427 -0.29 +0.00    +0.008 A  
DOCKED: ATOM      8  C   UNL     1     -38.616 -18.399  10.159 -0.34 +0.00    +0.010 A  
DOCKED: ATOM      9  C   UNL     1     -39.886 -18.326   9.566 -0.31 +0.00    +0.068 A  
DOCKED: ATOM     10  N   UNL     1     -41.033 -20.490   8.720 -2.55 -0.00    -0.191 NA 
DOCKED: ATOM     11  C   UNL     1     -40.519 -19.519   9.100 -0.31 +0.00    +0.101 C  
DOCKED: ENDROOT
DOCKED: BRANCH   2  12
DOCKED: ATOM     12  C   UNL     1     -37.000 -14.158  10.067 -0.17 +0.00    +0.038 C  
DOCKED: BRANCH  12  13
DOCKED: ATOM     13  C   UNL     1     -36.415 -12.878  10.661 -0.07 +0.00    +0.038 C  
DOCKED: BRANCH  13  14
DOCKED: ATOM     14  C   UNL     1     -37.289 -11.670  10.332 -0.04 +0.00    +0.251 C  
DOCKED: BRANCH  14  15
DOCKED: ATOM     15  N   UNL     1     -36.483 -10.604   9.750 -0.02 +0.00    +0.141 N  
DOCKED: ATOM     16  C   UNL     1     -35.223 -10.453  10.479 -0.00 +0.00    +0.285 C  
DOCKED: ATOM     17  C   UNL     1     -36.222 -10.868   8.334 -0.04 +0.00    +0.285 C  
DOCKED: ENDBRANCH  14  15
DOCKED: ENDBRANCH  13  14
DOCKED: ENDBRANCH  12  13
DOCKED: ENDBRANCH   2  12
DOCKED: BRANCH   2  18
DOCKED: ATOM     18  C   UNL     1     -37.939 -14.523  12.342 -0.05 +0.00    +0.006 A  
DOCKED: ATOM     19  C   UNL     1     -38.819 -13.793  13.140 -0.02 +0.00    +0.001 A  
DOCKED: ATOM     20  C   UNL     1     -38.581 -13.672  14.509 -0.00 +0.00    +0.029 A  
DOCKED: ATOM     21  C   UNL     1     -37.464 -14.282  15.079 -0.00 +0.00    +0.140 A  
DOCKED: ATOM     22  C   UNL     1     -36.584 -15.012  14.281 -0.02 +0.00    +0.029 A  
DOCKED: ATOM     23  F   UNL     1     -37.237 -14.168  16.394 +0.00 -0.00    -0.204 F  
DOCKED: ATOM     24  C   UNL     1     -36.822 -15.133  12.910 -0.05 +0.00    +0.001 A  
DOCKED: ENDBRANCH   2  18
DOCKED: TORSDOF 5
DOCKED: TER
DOCKED: ENDMDL
________________________________________________________________________________


    FINAL DOCKED STATE:
    ________________________


Run:   307 / 512
Time taken for this run:   0.002s

DOCKED: MODEL        307
DOCKED: USER    Run = 307
DOCKED: USER
DOCKED: USER    Estimated Free Energy of Binding    =  -3.87 kcal/mol  [=(1)+(2)+(3)-(4)]
DOCKED: USER
DOCKED: USER    (1) Final Intermolecular Energy     =  -5.36 kcal/mol
DOCKED: USER        vdW + Hbond + desolv Energy     =  -5.36 kcal/mol
DOCKED: USER        Electrostatic Energy            =  +0.00 kcal/mol
DOCKED: USER        Moving Ligand-Fixed Receptor    =  -5.36 kcal/mol
DOCKED: USER        Moving Ligand-Moving Receptor   =  +0.00 kcal/mol
DOCKED: USER    (2) Final Total Internal Energy     =  -1.11 kcal/mol
DOCKED: USER    (3) Torsional Free Energy           =  +1.49 kcal/mol
DOCKED: USER    (4) Unbound System's Energy         =  -1.11 kcal/mol
DOCKED: USER
DOCKED: USER
DOCKED: REMARK  5 active torsions:
DOCKED: REMARK  status: ('A' for Active; 'I' for Inactive)
DOCKED: REMARK    1  A    between atoms: C_2  and  C_19 
DOCKED: REMARK    2  A    between atoms: C_2  and  C_11 
DOCKED: REMARK    3  A    between atoms: C_19  and  C_20 
DOCKED: REMARK    4  A    between atoms: C_20  and  C_21 
DOCKED: REMARK    5  A    between atoms: C_21  and  N_22 
DOCKED: USER                              x       y       z     vdW  Elec       q    Type
DOCKED: USER                           _______ _______ _______ _____ _____    ______ ____
DOCKED: ROOT
DOCKED: ATOM      1  O   UNL     1     -37.776 -14.791  11.536 -0.03 -0.00    -0.346 OA 
DOCKED: ATOM      2  C   UNL     1     -39.230 -14.668  11.651 -0.08 +0.00    +0.130 C  
DOCKED: ATOM      3  C   UNL     1     -39.750 -15.890  10.951 -0.17 +0.00    +0.004 A  
DOCKED: ATOM      4  C   UNL     1     -38.688 -16.696  10.567 -0.25 +0.00    +0.006 A  
DOCKED: ATOM      5  C   UNL     1     -37.411 -16.080  10.991 -0.14 +0.00    +0.169 C  
DOCKED: ATOM      6  C   UNL     1     -41.060 -16.264  10.686 -0.19 -0.00    -0.001 A  
DOCKED: ATOM      7  C   UNL     1     -38.895 -17.895   9.905 -0.32 +0.00    +0.008 A  
DOCKED: ATOM      8  C   UNL     1     -41.285 -17.467  10.016 -0.23 +0.00    +0.010 A  
DOCKED: ATOM      9  C   UNL     1     -40.208 -18.279   9.628 -0.28 +0.00    +0.068 A  
DOCKED: ATOM     10  N   UNL     1     -40.662 -20.509   8.389 -2.41 -0.00    -0.191 NA 
DOCKED: ATOM     11  C   UNL     1     -40.458 -19.508   8.944 -0.36 +0.00    +0.101 C  
DOCKED: ENDROOT
DOCKED: BRANCH   2  12
DOCKED: ATOM     12  C   UNL     1     -39.595 -14.630  13.130 -0.03 +0.00    +0.038 C  
DOCKED: BRANCH  12  13
DOCKED: ATOM     13  C   UNL     1     -39.889 -16.029  13.667 -0.04 +0.00    +0.038 C  
DOCKED: BRANCH  13  14
DOCKED: ATOM     14  C   UNL     1     -38.597 -16.777  13.989 -0.03 +0.00    +0.251 C  
DOCKED: BRANCH  14  15
DOCKED: ATOM     15  N   UNL     1     -38.755 -17.562  15.207 -0.04 +0.00    +0.141 N  
DOCKED: ATOM     16  C   UNL     1     -38.457 -18.973  14.954 -0.11 +0.00    +0.285 C  
DOCKED: ATOM     17  C   UNL     1     -37.892 -17.044  16.270 -0.01 +0.00    +0.285 C  
DOCKED: ENDBRANCH  14  15
DOCKED: ENDBRANCH  13  14
DOCKED: ENDBRANCH  12  13
DOCKED: ENDBRANCH   2  12
DOCKED: BRANCH   2  18
DOCKED: ATOM     18  C   UNL     1     -39.616 -13.398  10.968 -0.12 +0.00    +0.006 A  
DOCKED: ATOM     19  C   UNL     1     -38.997 -13.034   9.773 -0.13 +0.00    +0.001 A  
DOCKED: ATOM     20  C   UNL     1     -39.358 -11.846   9.136 -0.11 +0.00    +0.029 A  
DOCKED: ATOM     21  C   UNL     1     -40.338 -11.026   9.693 -0.10 +0.00    +0.140 A  
DOCKED: ATOM     22  C   UNL     1     -40.957 -11.392  10.888 -0.07 +0.00    +0.029 A  
DOCKED: ATOM     23  F   UNL     1     -40.686  -9.887   9.081 -0.01 -0.00    -0.204 F  
DOCKED: ATOM     24  C   UNL     1     -40.596 -12.579  11.527 -0.07 +0.00    +0.001 A  
DOCKED: ENDBRANCH   2  18
DOCKED: TORSDOF 5
DOCKED: TER
DOCKED: ENDMDL
________________________________________________________________________________


    FINAL DOCKED STATE:
    ________________________


Run:   308 / 512
Time taken for this run:   0.002s

DOCKED: MODEL        308
DOCKED: USER    Run = 308
DOCKED: USER
DOCKED: USER    Estimated Free Energy of Binding    =  -4.27 kcal/mol  [=(1)+(2)+(3)-(4)]
DOCKED: USER
DOCKED: USER    (1) Final Intermolecular Energy     =  -5.77 kcal/mol
DOCKED: USER        vdW + Hbond + desolv Energy     =  -5.77 kcal/mol
DOCKED: USER        Electrostatic Energy            =  +0.00 kcal/mol
DOCKED: USER        Moving Ligand-Fixed Receptor    =  -5.77 kcal/mol
DOCKED: USER        Moving Ligand-Moving Receptor   =  +0.00 kcal/mol
DOCKED: USER    (2) Final Total Internal Energy     =  -1.29 kcal/mol
DOCKED: USER    (3) Torsional Free Energy           =  +1.49 kcal/mol
DOCKED: USER    (4) Unbound System's Energy         =  -1.29 kcal/mol
DOCKED: USER
DOCKED: USER
DOCKED: REMARK  5 active torsions:
DOCKED: REMARK  status: ('A' for Active; 'I' for Inactive)
DOCKED: REMARK    1  A    between atoms: C_2  and  C_19 
DOCKED: REMARK    2  A    between atoms: C_2  and  C_11 
DOCKED: REMARK    3  A    between atoms: C_19  and  C_20 
DOCKED: REMARK    4  A    between atoms: C_20  and  C_21 
DOCKED: REMARK    5  A    between atoms: C_21  and  N_22 
DOCKED: USER                              x       y       z     vdW  Elec       q    Type
DOCKED: USER                           _______ _______ _______ _____ _____    ______ ____
DOCKED: ROOT
DOCKED: ATOM      1  O   UNL     1     -37.760 -15.812  12.817 -0.02 -0.00    -0.346 OA 
DOCKED: ATOM      2  C   UNL     1     -37.885 -15.193  11.497 -0.11 +0.00    +0.130 C  
DOCKED: ATOM      3  C   UNL     1     -38.559 -16.248  10.668 -0.23 +0.00    +0.004 A  
DOCKED: ATOM      4  C   UNL     1     -38.891 -17.331  11.469 -0.19 +0.00    +0.006 A  
DOCKED: ATOM      5  C   UNL     1     -38.478 -17.067  12.866 -0.08 +0.00    +0.169 C  
DOCKED: ATOM      6  C   UNL     1     -38.864 -16.244   9.315 -0.16 -0.00    -0.001 A  
DOCKED: ATOM      7  C   UNL     1     -39.532 -18.442  10.950 -0.26 +0.00    +0.008 A  
DOCKED: ATOM      8  C   UNL     1     -39.506 -17.360   8.774 -0.33 +0.00    +0.010 A  
DOCKED: ATOM      9  C   UNL     1     -39.839 -18.453   9.588 -0.31 +0.00    +0.068 A  
DOCKED: ATOM     10  N   UNL     1     -41.035 -20.506   8.555 -2.46 -0.00    -0.191 NA 
DOCKED: ATOM     11  C   UNL     1     -40.498 -19.585   9.018 -0.31 +0.00    +0.101 C  
DOCKED: ENDROOT
DOCKED: BRANCH   2  12
DOCKED: ATOM     12  C   UNL     1     -38.718 -13.924  11.635 -0.08 +0.00    +0.038 C  
DOCKED: BRANCH  12  13
DOCKED: ATOM     13  C   UNL     1     -40.033 -14.198  12.362 -0.05 +0.00    +0.038 C  
DOCKED: BRANCH  13  14
DOCKED: ATOM     14  C   UNL     1     -41.155 -13.316  11.818 -0.04 +0.00    +0.251 C  
DOCKED: BRANCH  14  15
DOCKED: ATOM     15  N   UNL     1     -41.453 -13.669  10.435 -0.18 +0.00    +0.141 N  
DOCKED: ATOM     16  C   UNL     1     -42.010 -15.021  10.357 -0.14 +0.00    +0.285 C  
DOCKED: ATOM     17  C   UNL     1     -42.380 -12.703   9.844 -0.14 +0.00    +0.285 C  
DOCKED: ENDBRANCH  14  15
DOCKED: ENDBRANCH  13  14
DOCKED: ENDBRANCH  12  13
DOCKED: ENDBRANCH   2  12
DOCKED: BRANCH   2  18
DOCKED: ATOM     18  C   UNL     1     -36.502 -14.881  11.030 -0.13 +0.00    +0.006 A  
DOCKED: ATOM     19  C   UNL     1     -35.421 -15.617  11.513 -0.12 +0.00    +0.001 A  
DOCKED: ATOM     20  C   UNL     1     -34.129 -15.324  11.075 -0.10 +0.00    +0.029 A  
DOCKED: ATOM     21  C   UNL     1     -33.920 -14.298  10.155 -0.07 +0.00    +0.140 A  
DOCKED: ATOM     22  C   UNL     1     -35.002 -13.563   9.672 -0.10 +0.00    +0.029 A  
DOCKED: ATOM     23  F   UNL     1     -32.679 -14.018   9.734 -0.01 -0.00    -0.204 F  
DOCKED: ATOM     24  C   UNL     1     -36.295 -13.855  10.109 -0.13 +0.00    +0.001 A  
DOCKED: ENDBRANCH   2  18
DOCKED: TORSDOF 5
DOCKED: TER
DOCKED: ENDMDL
________________________________________________________________________________


    FINAL DOCKED STATE:
    ________________________


Run:   309 / 512
Time taken for this run:   0.002s

DOCKED: MODEL        309
DOCKED: USER    Run = 309
DOCKED: USER
DOCKED: USER    Estimated Free Energy of Binding    =  -3.94 kcal/mol  [=(1)+(2)+(3)-(4)]
DOCKED: USER
DOCKED: USER    (1) Final Intermolecular Energy     =  -5.43 kcal/mol
DOCKED: USER        vdW + Hbond + desolv Energy     =  -5.43 kcal/mol
DOCKED: USER        Electrostatic Energy            =  +0.00 kcal/mol
DOCKED: USER        Moving Ligand-Fixed Receptor    =  -5.43 kcal/mol
DOCKED: USER        Moving Ligand-Moving Receptor   =  +0.00 kcal/mol
DOCKED: USER    (2) Final Total Internal Energy     =  -1.47 kcal/mol
DOCKED: USER    (3) Torsional Free Energy           =  +1.49 kcal/mol
DOCKED: USER    (4) Unbound System's Energy         =  -1.47 kcal/mol
DOCKED: USER
DOCKED: USER
DOCKED: REMARK  5 active torsions:
DOCKED: REMARK  status: ('A' for Active; 'I' for Inactive)
DOCKED: REMARK    1  A    between atoms: C_2  and  C_19 
DOCKED: REMARK    2  A    between atoms: C_2  and  C_11 
DOCKED: REMARK    3  A    between atoms: C_19  and  C_20 
DOCKED: REMARK    4  A    between atoms: C_20  and  C_21 
DOCKED: REMARK    5  A    between atoms: C_21  and  N_22 
DOCKED: USER                              x       y       z     vdW  Elec       q    Type
DOCKED: USER                           _______ _______ _______ _____ _____    ______ ____
DOCKED: ROOT
DOCKED: ATOM      1  O   UNL     1     -38.807 -13.926  11.305 -0.02 -0.00    -0.346 OA 
DOCKED: ATOM      2  C   UNL     1     -40.268 -13.881  11.226 -0.11 +0.00    +0.130 C  
DOCKED: ATOM      3  C   UNL     1     -40.639 -15.220  10.658 -0.20 +0.00    +0.004 A  
DOCKED: ATOM      4  C   UNL     1     -39.501 -16.003  10.527 -0.23 +0.00    +0.006 A  
DOCKED: ATOM      5  C   UNL     1     -38.317 -15.254  11.004 -0.14 +0.00    +0.169 C  
DOCKED: ATOM      6  C   UNL     1     -41.885 -15.710  10.296 -0.22 -0.00    -0.001 A  
DOCKED: ATOM      7  C   UNL     1     -39.567 -17.293  10.029 -0.30 +0.00    +0.008 A  
DOCKED: ATOM      8  C   UNL     1     -41.968 -17.008   9.788 -0.22 +0.00    +0.010 A  
DOCKED: ATOM      9  C   UNL     1     -40.815 -17.795   9.656 -0.24 +0.00    +0.068 A  
DOCKED: ATOM     10  N   UNL     1     -41.005 -20.202   8.715 -2.55 -0.00    -0.191 NA 
DOCKED: ATOM     11  C   UNL     1     -40.919 -19.122   9.137 -0.35 +0.00    +0.101 C  
DOCKED: ENDROOT
DOCKED: BRANCH   2  12
DOCKED: ATOM     12  C   UNL     1     -40.820 -13.658  12.629 -0.04 +0.00    +0.038 C  
DOCKED: BRANCH  12  13
DOCKED: ATOM     13  C   UNL     1     -39.824 -12.902  13.506 -0.01 +0.00    +0.038 C  
DOCKED: BRANCH  13  14
DOCKED: ATOM     14  C   UNL     1     -40.285 -11.466  13.748 -0.00 +0.00    +0.251 C  
DOCKED: BRANCH  14  15
DOCKED: ATOM     15  N   UNL     1     -39.268 -10.524  13.296 -0.00 +0.00    +0.141 N  
DOCKED: ATOM     16  C   UNL     1     -38.404 -11.141  12.289 -0.00 +0.00    +0.285 C  
DOCKED: ATOM     17  C   UNL     1     -39.890  -9.313  12.758 -0.00 +0.00    +0.285 C  
DOCKED: ENDBRANCH  14  15
DOCKED: ENDBRANCH  13  14
DOCKED: ENDBRANCH  12  13
DOCKED: ENDBRANCH   2  12
DOCKED: BRANCH   2  18
DOCKED: ATOM     18  C   UNL     1     -40.621 -12.747  10.322 -0.18 +0.00    +0.006 A  
DOCKED: ATOM     19  C   UNL     1     -41.831 -12.075  10.487 -0.15 +0.00    +0.001 A  
DOCKED: ATOM     20  C   UNL     1     -42.161 -11.016   9.641 -0.15 +0.00    +0.029 A  
DOCKED: ATOM     21  C   UNL     1     -41.279 -10.630   8.632 -0.12 +0.00    +0.140 A  
DOCKED: ATOM     22  C   UNL     1     -40.069 -11.302   8.468 -0.08 +0.00    +0.029 A  
DOCKED: ATOM     23  F   UNL     1     -41.595  -9.611   7.821 -0.02 -0.00    -0.204 F  
DOCKED: ATOM     24  C   UNL     1     -39.739 -12.362   9.313 -0.08 +0.00    +0.001 A  
DOCKED: ENDBRANCH   2  18
DOCKED: TORSDOF 5
DOCKED: TER
DOCKED: ENDMDL
________________________________________________________________________________


    FINAL DOCKED STATE:
    ________________________


Run:   310 / 512
Time taken for this run:   0.002s

DOCKED: MODEL        310
DOCKED: USER    Run = 310
DOCKED: USER
DOCKED: USER    Estimated Free Energy of Binding    =  -4.19 kcal/mol  [=(1)+(2)+(3)-(4)]
DOCKED: USER
DOCKED: USER    (1) Final Intermolecular Energy     =  -5.68 kcal/mol
DOCKED: USER        vdW + Hbond + desolv Energy     =  -5.68 kcal/mol
DOCKED: USER        Electrostatic Energy            =  +0.00 kcal/mol
DOCKED: USER        Moving Ligand-Fixed Receptor    =  -5.68 kcal/mol
DOCKED: USER        Moving Ligand-Moving Receptor   =  +0.00 kcal/mol
DOCKED: USER    (2) Final Total Internal Energy     =  -1.24 kcal/mol
DOCKED: USER    (3) Torsional Free Energy           =  +1.49 kcal/mol
DOCKED: USER    (4) Unbound System's Energy         =  -1.24 kcal/mol
DOCKED: USER
DOCKED: USER
DOCKED: REMARK  5 active torsions:
DOCKED: REMARK  status: ('A' for Active; 'I' for Inactive)
DOCKED: REMARK    1  A    between atoms: C_2  and  C_19 
DOCKED: REMARK    2  A    between atoms: C_2  and  C_11 
DOCKED: REMARK    3  A    between atoms: C_19  and  C_20 
DOCKED: REMARK    4  A    between atoms: C_20  and  C_21 
DOCKED: REMARK    5  A    between atoms: C_21  and  N_22 
DOCKED: USER                              x       y       z     vdW  Elec       q    Type
DOCKED: USER                           _______ _______ _______ _____ _____    ______ ____
DOCKED: ROOT
DOCKED: ATOM      1  O   UNL     1     -31.324 -18.672   1.269 -0.02 -0.00    -0.346 OA 
DOCKED: ATOM      2  C   UNL     1     -31.287 -17.518   2.169 -0.10 +0.00    +0.130 C  
DOCKED: ATOM      3  C   UNL     1     -31.783 -18.065   3.476 -0.13 +0.00    +0.004 A  
DOCKED: ATOM      4  C   UNL     1     -31.981 -19.434   3.364 -0.18 +0.00    +0.006 A  
DOCKED: ATOM      5  C   UNL     1     -31.623 -19.884   2.000 -0.07 +0.00    +0.169 C  
DOCKED: ATOM      6  C   UNL     1     -32.028 -17.406   4.671 -0.13 -0.00    -0.001 A  
DOCKED: ATOM      7  C   UNL     1     -32.432 -20.187   4.435 -0.29 +0.00    +0.008 A  
DOCKED: ATOM      8  C   UNL     1     -32.488 -18.151   5.759 -0.23 +0.00    +0.010 A  
DOCKED: ATOM      9  C   UNL     1     -32.688 -19.534   5.641 -0.31 +0.00    +0.068 A  
DOCKED: ATOM     10  N   UNL     1     -33.538 -20.887   7.681 -2.68 -0.00    -0.191 NA 
DOCKED: ATOM     11  C   UNL     1     -33.157 -20.280   6.766 -0.40 +0.00    +0.101 C  
DOCKED: ENDROOT
DOCKED: BRANCH   2  12
DOCKED: ATOM     12  C   UNL     1     -29.851 -17.011   2.244 -0.02 +0.00    +0.038 C  
DOCKED: BRANCH  12  13
DOCKED: ATOM     13  C   UNL     1     -28.995 -17.595   1.122 -0.01 +0.00    +0.038 C  
DOCKED: BRANCH  13  14
DOCKED: ATOM     14  C   UNL     1     -29.261 -16.879  -0.201 -0.01 +0.00    +0.251 C  
DOCKED: BRANCH  14  15
DOCKED: ATOM     15  N   UNL     1     -29.027 -17.782  -1.322 -0.01 +0.00    +0.141 N  
DOCKED: ATOM     16  C   UNL     1     -27.695 -18.383  -1.231 -0.00 +0.00    +0.285 C  
DOCKED: ATOM     17  C   UNL     1     -30.053 -18.825  -1.367 -0.03 +0.00    +0.285 C  
DOCKED: ENDBRANCH  14  15
DOCKED: ENDBRANCH  13  14
DOCKED: ENDBRANCH  12  13
DOCKED: ENDBRANCH   2  12
DOCKED: BRANCH   2  18
DOCKED: ATOM     18  C   UNL     1     -32.193 -16.484   1.590 -0.08 +0.00    +0.006 A  
DOCKED: ATOM     19  C   UNL     1     -32.778 -15.527   2.419 -0.13 +0.00    +0.001 A  
DOCKED: ATOM     20  C   UNL     1     -33.626 -14.561   1.876 -0.18 +0.00    +0.029 A  
DOCKED: ATOM     21  C   UNL     1     -33.887 -14.552   0.506 -0.19 +0.00    +0.140 A  
DOCKED: ATOM     22  C   UNL     1     -33.301 -15.509  -0.322 -0.21 +0.00    +0.029 A  
DOCKED: ATOM     23  F   UNL     1     -34.699 -13.623  -0.014 -0.12 -0.00    -0.204 F  
DOCKED: ATOM     24  C   UNL     1     -32.454 -16.477   0.220 -0.14 +0.00    +0.001 A  
DOCKED: ENDBRANCH   2  18
DOCKED: TORSDOF 5
DOCKED: TER
DOCKED: ENDMDL
________________________________________________________________________________


    FINAL DOCKED STATE:
    ________________________


Run:   311 / 512
Time taken for this run:   0.002s

DOCKED: MODEL        311
DOCKED: USER    Run = 311
DOCKED: USER
DOCKED: USER    Estimated Free Energy of Binding    =  -4.10 kcal/mol  [=(1)+(2)+(3)-(4)]
DOCKED: USER
DOCKED: USER    (1) Final Intermolecular Energy     =  -5.59 kcal/mol
DOCKED: USER        vdW + Hbond + desolv Energy     =  -5.59 kcal/mol
DOCKED: USER        Electrostatic Energy            =  +0.00 kcal/mol
DOCKED: USER        Moving Ligand-Fixed Receptor    =  -5.59 kcal/mol
DOCKED: USER        Moving Ligand-Moving Receptor   =  +0.00 kcal/mol
DOCKED: USER    (2) Final Total Internal Energy     =  -0.92 kcal/mol
DOCKED: USER    (3) Torsional Free Energy           =  +1.49 kcal/mol
DOCKED: USER    (4) Unbound System's Energy         =  -0.92 kcal/mol
DOCKED: USER
DOCKED: USER
DOCKED: REMARK  5 active torsions:
DOCKED: REMARK  status: ('A' for Active; 'I' for Inactive)
DOCKED: REMARK    1  A    between atoms: C_2  and  C_19 
DOCKED: REMARK    2  A    between atoms: C_2  and  C_11 
DOCKED: REMARK    3  A    between atoms: C_19  and  C_20 
DOCKED: REMARK    4  A    between atoms: C_20  and  C_21 
DOCKED: REMARK    5  A    between atoms: C_21  and  N_22 
DOCKED: USER                              x       y       z     vdW  Elec       q    Type
DOCKED: USER                           _______ _______ _______ _____ _____    ______ ____
DOCKED: ROOT
DOCKED: ATOM      1  O   UNL     1     -38.354 -15.438  13.003 -0.01 -0.00    -0.346 OA 
DOCKED: ATOM      2  C   UNL     1     -38.523 -14.826  11.684 -0.08 +0.00    +0.130 C  
DOCKED: ATOM      3  C   UNL     1     -39.000 -15.958  10.821 -0.20 +0.00    +0.004 A  
DOCKED: ATOM      4  C   UNL     1     -39.194 -17.090  11.601 -0.15 +0.00    +0.006 A  
DOCKED: ATOM      5  C   UNL     1     -38.876 -16.787  13.014 -0.06 +0.00    +0.169 C  
DOCKED: ATOM      6  C   UNL     1     -39.254 -15.981   9.458 -0.26 -0.00    -0.001 A  
DOCKED: ATOM      7  C   UNL     1     -39.641 -18.277  11.048 -0.23 +0.00    +0.008 A  
DOCKED: ATOM      8  C   UNL     1     -39.701 -17.172   8.884 -0.34 +0.00    +0.010 A  
DOCKED: ATOM      9  C   UNL     1     -39.894 -18.315   9.676 -0.30 +0.00    +0.068 A  
DOCKED: ATOM     10  N   UNL     1     -40.730 -20.509   8.580 -2.52 -0.00    -0.191 NA 
DOCKED: ATOM     11  C   UNL     1     -40.354 -19.525   9.071 -0.31 +0.00    +0.101 C  
DOCKED: ENDROOT
DOCKED: BRANCH   2  12
DOCKED: ATOM     12  C   UNL     1     -39.541 -13.699  11.802 -0.07 +0.00    +0.038 C  
DOCKED: BRANCH  12  13
DOCKED: ATOM     13  C   UNL     1     -39.573 -12.842  10.537 -0.15 +0.00    +0.038 C  
DOCKED: BRANCH  13  14
DOCKED: ATOM     14  C   UNL     1     -40.968 -12.267  10.299 -0.13 +0.00    +0.251 C  
DOCKED: BRANCH  14  15
DOCKED: ATOM     15  N   UNL     1     -40.944 -11.323   9.188 -0.15 +0.00    +0.141 N  
DOCKED: ATOM     16  C   UNL     1     -41.527 -10.041   9.587 -0.05 +0.00    +0.285 C  
DOCKED: ATOM     17  C   UNL     1     -39.575 -11.129   8.706 -0.11 +0.00    +0.285 C  
DOCKED: ENDBRANCH  14  15
DOCKED: ENDBRANCH  13  14
DOCKED: ENDBRANCH  12  13
DOCKED: ENDBRANCH   2  12
DOCKED: BRANCH   2  18
DOCKED: ATOM     18  C   UNL     1     -37.187 -14.304  11.272 -0.11 +0.00    +0.006 A  
DOCKED: ATOM     19  C   UNL     1     -36.416 -13.571  12.174 -0.04 +0.00    +0.001 A  
DOCKED: ATOM     20  C   UNL     1     -35.168 -13.083  11.786 -0.03 +0.00    +0.029 A  
DOCKED: ATOM     21  C   UNL     1     -34.692 -13.328  10.499 -0.05 +0.00    +0.140 A  
DOCKED: ATOM     22  C   UNL     1     -35.463 -14.061   9.597 -0.12 +0.00    +0.029 A  
DOCKED: ATOM     23  F   UNL     1     -33.493 -12.861  10.128 -0.00 -0.00    -0.204 F  
DOCKED: ATOM     24  C   UNL     1     -36.713 -14.549   9.984 -0.12 +0.00    +0.001 A  
DOCKED: ENDBRANCH   2  18
DOCKED: TORSDOF 5
DOCKED: TER
DOCKED: ENDMDL
________________________________________________________________________________


    FINAL DOCKED STATE:
    ________________________


Run:   312 / 512
Time taken for this run:   0.002s

DOCKED: MODEL        312
DOCKED: USER    Run = 312
DOCKED: USER
DOCKED: USER    Estimated Free Energy of Binding    =  -4.34 kcal/mol  [=(1)+(2)+(3)-(4)]
DOCKED: USER
DOCKED: USER    (1) Final Intermolecular Energy     =  -5.83 kcal/mol
DOCKED: USER        vdW + Hbond + desolv Energy     =  -5.83 kcal/mol
DOCKED: USER        Electrostatic Energy            =  +0.00 kcal/mol
DOCKED: USER        Moving Ligand-Fixed Receptor    =  -5.83 kcal/mol
DOCKED: USER        Moving Ligand-Moving Receptor   =  +0.00 kcal/mol
DOCKED: USER    (2) Final Total Internal Energy     =  -1.31 kcal/mol
DOCKED: USER    (3) Torsional Free Energy           =  +1.49 kcal/mol
DOCKED: USER    (4) Unbound System's Energy         =  -1.31 kcal/mol
DOCKED: USER
DOCKED: USER
DOCKED: REMARK  5 active torsions:
DOCKED: REMARK  status: ('A' for Active; 'I' for Inactive)
DOCKED: REMARK    1  A    between atoms: C_2  and  C_19 
DOCKED: REMARK    2  A    between atoms: C_2  and  C_11 
DOCKED: REMARK    3  A    between atoms: C_19  and  C_20 
DOCKED: REMARK    4  A    between atoms: C_20  and  C_21 
DOCKED: REMARK    5  A    between atoms: C_21  and  N_22 
DOCKED: USER                              x       y       z     vdW  Elec       q    Type
DOCKED: USER                           _______ _______ _______ _____ _____    ______ ____
DOCKED: ROOT
DOCKED: ATOM      1  O   UNL     1     -39.945 -16.274  12.176 -0.01 -0.00    -0.346 OA 
DOCKED: ATOM      2  C   UNL     1     -38.783 -17.133  11.946 -0.13 +0.00    +0.130 C  
DOCKED: ATOM      3  C   UNL     1     -39.106 -17.836  10.659 -0.28 +0.00    +0.004 A  
DOCKED: ATOM      4  C   UNL     1     -40.295 -17.342  10.142 -0.26 +0.00    +0.006 A  
DOCKED: ATOM      5  C   UNL     1     -40.828 -16.284  11.030 -0.13 +0.00    +0.169 C  
DOCKED: ATOM      6  C   UNL     1     -38.398 -18.826   9.994 -0.36 -0.00    -0.001 A  
DOCKED: ATOM      7  C   UNL     1     -40.817 -17.819   8.952 -0.32 +0.00    +0.008 A  
DOCKED: ATOM      8  C   UNL     1     -38.913 -19.321   8.795 -0.19 +0.00    +0.010 A  
DOCKED: ATOM      9  C   UNL     1     -40.117 -18.820   8.277 -0.41 +0.00    +0.068 A  
DOCKED: ATOM     10  N   UNL     1     -41.043 -19.757   6.046 -1.62 -0.00    -0.191 NA 
DOCKED: ATOM     11  C   UNL     1     -40.628 -19.337   7.047 -0.53 +0.00    +0.101 C  
DOCKED: ENDROOT
DOCKED: BRANCH   2  12
DOCKED: ATOM     12  C   UNL     1     -37.544 -16.252  11.846 -0.16 +0.00    +0.038 C  
DOCKED: BRANCH  12  13
DOCKED: ATOM     13  C   UNL     1     -37.540 -15.440  10.552 -0.19 +0.00    +0.038 C  
DOCKED: BRANCH  13  14
DOCKED: ATOM     14  C   UNL     1     -37.012 -14.027  10.791 -0.09 +0.00    +0.251 C  
DOCKED: BRANCH  14  15
DOCKED: ATOM     15  N   UNL     1     -38.120 -13.093  10.958 -0.06 +0.00    +0.141 N  
DOCKED: ATOM     16  C   UNL     1     -39.070 -13.216   9.852 -0.11 +0.00    +0.285 C  
DOCKED: ATOM     17  C   UNL     1     -38.797 -13.320  12.236 -0.02 +0.00    +0.285 C  
DOCKED: ENDBRANCH  14  15
DOCKED: ENDBRANCH  13  14
DOCKED: ENDBRANCH  12  13
DOCKED: ENDBRANCH   2  12
DOCKED: BRANCH   2  18
DOCKED: ATOM     18  C   UNL     1     -38.690 -18.063  13.109 -0.15 +0.00    +0.006 A  
DOCKED: ATOM     19  C   UNL     1     -37.569 -18.033  13.937 -0.12 +0.00    +0.001 A  
DOCKED: ATOM     20  C   UNL     1     -37.483 -18.903  15.025 -0.15 +0.00    +0.029 A  
DOCKED: ATOM     21  C   UNL     1     -38.518 -19.800  15.283 -0.18 +0.00    +0.140 A  
DOCKED: ATOM     22  C   UNL     1     -39.640 -19.829  14.455 -0.12 +0.00    +0.029 A  
DOCKED: ATOM     23  F   UNL     1     -38.436 -20.634  16.328 -0.07 -0.00    -0.204 F  
DOCKED: ATOM     24  C   UNL     1     -39.726 -18.960  13.366 -0.20 +0.00    +0.001 A  
DOCKED: ENDBRANCH   2  18
DOCKED: TORSDOF 5
DOCKED: TER
DOCKED: ENDMDL
________________________________________________________________________________


    FINAL DOCKED STATE:
    ________________________


Run:   313 / 512
Time taken for this run:   0.002s

DOCKED: MODEL        313
DOCKED: USER    Run = 313
DOCKED: USER
DOCKED: USER    Estimated Free Energy of Binding    =  -3.54 kcal/mol  [=(1)+(2)+(3)-(4)]
DOCKED: USER
DOCKED: USER    (1) Final Intermolecular Energy     =  -5.03 kcal/mol
DOCKED: USER        vdW + Hbond + desolv Energy     =  -5.03 kcal/mol
DOCKED: USER        Electrostatic Energy            =  +0.00 kcal/mol
DOCKED: USER        Moving Ligand-Fixed Receptor    =  -5.03 kcal/mol
DOCKED: USER        Moving Ligand-Moving Receptor   =  +0.00 kcal/mol
DOCKED: USER    (2) Final Total Internal Energy     =  -1.37 kcal/mol
DOCKED: USER    (3) Torsional Free Energy           =  +1.49 kcal/mol
DOCKED: USER    (4) Unbound System's Energy         =  -1.37 kcal/mol
DOCKED: USER
DOCKED: USER
DOCKED: REMARK  5 active torsions:
DOCKED: REMARK  status: ('A' for Active; 'I' for Inactive)
DOCKED: REMARK    1  A    between atoms: C_2  and  C_19 
DOCKED: REMARK    2  A    between atoms: C_2  and  C_11 
DOCKED: REMARK    3  A    between atoms: C_19  and  C_20 
DOCKED: REMARK    4  A    between atoms: C_20  and  C_21 
DOCKED: REMARK    5  A    between atoms: C_21  and  N_22 
DOCKED: USER                              x       y       z     vdW  Elec       q    Type
DOCKED: USER                           _______ _______ _______ _____ _____    ______ ____
DOCKED: ROOT
DOCKED: ATOM      1  O   UNL     1     -32.058  -6.162  -4.391 -0.05 -0.00    -0.346 OA 
DOCKED: ATOM      2  C   UNL     1     -31.821  -6.581  -3.009 -0.06 +0.00    +0.130 C  
DOCKED: ATOM      3  C   UNL     1     -33.201  -6.794  -2.456 -0.13 +0.00    +0.004 A  
DOCKED: ATOM      4  C   UNL     1     -34.140  -6.619  -3.463 -0.20 +0.00    +0.006 A  
DOCKED: ATOM      5  C   UNL     1     -33.457  -6.297  -4.736 -0.14 +0.00    +0.169 C  
DOCKED: ATOM      6  C   UNL     1     -33.593  -7.126  -1.167 -0.13 -0.00    -0.001 A  
DOCKED: ATOM      7  C   UNL     1     -35.494  -6.765  -3.218 -0.27 +0.00    +0.008 A  
DOCKED: ATOM      8  C   UNL     1     -34.956  -7.272  -0.904 -0.25 +0.00    +0.010 A  
DOCKED: ATOM      9  C   UNL     1     -35.902  -7.094  -1.924 -0.33 +0.00    +0.068 A  
DOCKED: ATOM     10  N   UNL     1     -38.423  -7.378  -1.402 -2.52 -0.00    -0.191 NA 
DOCKED: ATOM     11  C   UNL     1     -37.292  -7.250  -1.636 -0.30 +0.00    +0.101 C  
DOCKED: ENDROOT
DOCKED: BRANCH   2  12
DOCKED: ATOM     12  C   UNL     1     -30.987  -7.857  -3.028 -0.02 +0.00    +0.038 C  
DOCKED: BRANCH  12  13
DOCKED: ATOM     13  C   UNL     1     -31.808  -9.052  -3.507 -0.03 +0.00    +0.038 C  
DOCKED: BRANCH  13  14
DOCKED: ATOM     14  C   UNL     1     -32.043 -10.047  -2.372 -0.01 +0.00    +0.251 C  
DOCKED: BRANCH  14  15
DOCKED: ATOM     15  N   UNL     1     -33.296 -10.764  -2.578 -0.11 +0.00    +0.141 N  
DOCKED: ATOM     16  C   UNL     1     -34.223 -10.508  -1.474 -0.10 +0.00    +0.285 C  
DOCKED: ATOM     17  C   UNL     1     -33.906 -10.381  -3.852 -0.10 +0.00    +0.285 C  
DOCKED: ENDBRANCH  14  15
DOCKED: ENDBRANCH  13  14
DOCKED: ENDBRANCH  12  13
DOCKED: ENDBRANCH   2  12
DOCKED: BRANCH   2  18
DOCKED: ATOM     18  C   UNL     1     -31.090  -5.469  -2.335 -0.07 +0.00    +0.006 A  
DOCKED: ATOM     19  C   UNL     1     -29.762  -5.205  -2.670 -0.04 +0.00    +0.001 A  
DOCKED: ATOM     20  C   UNL     1     -29.079  -4.164  -2.039 -0.02 +0.00    +0.029 A  
DOCKED: ATOM     21  C   UNL     1     -29.724  -3.390  -1.075 -0.02 +0.00    +0.140 A  
DOCKED: ATOM     22  C   UNL     1     -31.051  -3.655  -0.741 -0.07 +0.00    +0.029 A  
DOCKED: ATOM     23  F   UNL     1     -29.068  -2.391  -0.471 +0.01 -0.00    -0.204 F  
DOCKED: ATOM     24  C   UNL     1     -31.736  -4.696  -1.371 -0.08 +0.00    +0.001 A  
DOCKED: ENDBRANCH   2  18
DOCKED: TORSDOF 5
DOCKED: TER
DOCKED: ENDMDL
________________________________________________________________________________


    FINAL DOCKED STATE:
    ________________________


Run:   314 / 512
Time taken for this run:   0.002s

DOCKED: MODEL        314
DOCKED: USER    Run = 314
DOCKED: USER
DOCKED: USER    Estimated Free Energy of Binding    =  -4.17 kcal/mol  [=(1)+(2)+(3)-(4)]
DOCKED: USER
DOCKED: USER    (1) Final Intermolecular Energy     =  -5.66 kcal/mol
DOCKED: USER        vdW + Hbond + desolv Energy     =  -5.66 kcal/mol
DOCKED: USER        Electrostatic Energy            =  +0.00 kcal/mol
DOCKED: USER        Moving Ligand-Fixed Receptor    =  -5.66 kcal/mol
DOCKED: USER        Moving Ligand-Moving Receptor   =  +0.00 kcal/mol
DOCKED: USER    (2) Final Total Internal Energy     =  -0.99 kcal/mol
DOCKED: USER    (3) Torsional Free Energy           =  +1.49 kcal/mol
DOCKED: USER    (4) Unbound System's Energy         =  -0.99 kcal/mol
DOCKED: USER
DOCKED: USER
DOCKED: REMARK  5 active torsions:
DOCKED: REMARK  status: ('A' for Active; 'I' for Inactive)
DOCKED: REMARK    1  A    between atoms: C_2  and  C_19 
DOCKED: REMARK    2  A    between atoms: C_2  and  C_11 
DOCKED: REMARK    3  A    between atoms: C_19  and  C_20 
DOCKED: REMARK    4  A    between atoms: C_20  and  C_21 
DOCKED: REMARK    5  A    between atoms: C_21  and  N_22 
DOCKED: USER                              x       y       z     vdW  Elec       q    Type
DOCKED: USER                           _______ _______ _______ _____ _____    ______ ____
DOCKED: ROOT
DOCKED: ATOM      1  O   UNL     1     -41.354 -13.790  11.141 -0.05 -0.00    -0.346 OA 
DOCKED: ATOM      2  C   UNL     1     -39.984 -13.998  10.670 -0.16 +0.00    +0.130 C  
DOCKED: ATOM      3  C   UNL     1     -39.979 -15.425  10.201 -0.23 +0.00    +0.004 A  
DOCKED: ATOM      4  C   UNL     1     -41.260 -15.952  10.294 -0.22 +0.00    +0.006 A  
DOCKED: ATOM      5  C   UNL     1     -42.190 -14.922  10.809 -0.16 +0.00    +0.169 C  
DOCKED: ATOM      6  C   UNL     1     -38.927 -16.192   9.722 -0.28 -0.00    -0.001 A  
DOCKED: ATOM      7  C   UNL     1     -41.531 -17.255   9.916 -0.24 +0.00    +0.008 A  
DOCKED: ATOM      8  C   UNL     1     -39.184 -17.510   9.341 -0.33 +0.00    +0.010 A  
DOCKED: ATOM      9  C   UNL     1     -40.480 -18.039   9.437 -0.28 +0.00    +0.068 A  
DOCKED: ATOM     10  N   UNL     1     -40.924 -20.488   8.718 -2.56 -0.00    -0.191 NA 
DOCKED: ATOM     11  C   UNL     1     -40.725 -19.389   9.041 -0.37 +0.00    +0.101 C  
DOCKED: ENDROOT
DOCKED: BRANCH   2  12
DOCKED: ATOM     12  C   UNL     1     -39.703 -13.005   9.549 -0.10 +0.00    +0.038 C  
DOCKED: BRANCH  12  13
DOCKED: ATOM     13  C   UNL     1     -40.626 -11.791   9.636 -0.19 +0.00    +0.038 C  
DOCKED: BRANCH  13  14
DOCKED: ATOM     14  C   UNL     1     -40.618 -11.000   8.329 -0.04 +0.00    +0.251 C  
DOCKED: BRANCH  14  15
DOCKED: ATOM     15  N   UNL     1     -41.283  -9.715   8.510 -0.10 +0.00    +0.141 N  
DOCKED: ATOM     16  C   UNL     1     -41.357  -8.989   7.241 -0.10 +0.00    +0.285 C  
DOCKED: ATOM     17  C   UNL     1     -42.624  -9.902   9.066 -0.07 +0.00    +0.285 C  
DOCKED: ENDBRANCH  14  15
DOCKED: ENDBRANCH  13  14
DOCKED: ENDBRANCH  12  13
DOCKED: ENDBRANCH   2  12
DOCKED: BRANCH   2  18
DOCKED: ATOM     18  C   UNL     1     -39.082 -13.765  11.835 -0.06 +0.00    +0.006 A  
DOCKED: ATOM     19  C   UNL     1     -39.557 -13.950  13.132 -0.02 +0.00    +0.001 A  
DOCKED: ATOM     20  C   UNL     1     -38.712 -13.731  14.221 -0.00 +0.00    +0.029 A  
DOCKED: ATOM     21  C   UNL     1     -37.394 -13.329  14.011 -0.00 +0.00    +0.140 A  
DOCKED: ATOM     22  C   UNL     1     -36.919 -13.146  12.712 -0.02 +0.00    +0.029 A  
DOCKED: ATOM     23  F   UNL     1     -36.582 -13.121  15.056 +0.00 -0.00    -0.204 F  
DOCKED: ATOM     24  C   UNL     1     -37.763 -13.363  11.623 -0.06 +0.00    +0.001 A  
DOCKED: ENDBRANCH   2  18
DOCKED: TORSDOF 5
DOCKED: TER
DOCKED: ENDMDL
________________________________________________________________________________


    FINAL DOCKED STATE:
    ________________________


Run:   315 / 512
Time taken for this run:   0.002s

DOCKED: MODEL        315
DOCKED: USER    Run = 315
DOCKED: USER
DOCKED: USER    Estimated Free Energy of Binding    =  -4.03 kcal/mol  [=(1)+(2)+(3)-(4)]
DOCKED: USER
DOCKED: USER    (1) Final Intermolecular Energy     =  -5.52 kcal/mol
DOCKED: USER        vdW + Hbond + desolv Energy     =  -5.52 kcal/mol
DOCKED: USER        Electrostatic Energy            =  +0.00 kcal/mol
DOCKED: USER        Moving Ligand-Fixed Receptor    =  -5.52 kcal/mol
DOCKED: USER        Moving Ligand-Moving Receptor   =  +0.00 kcal/mol
DOCKED: USER    (2) Final Total Internal Energy     =  -1.51 kcal/mol
DOCKED: USER    (3) Torsional Free Energy           =  +1.49 kcal/mol
DOCKED: USER    (4) Unbound System's Energy         =  -1.51 kcal/mol
DOCKED: USER
DOCKED: USER
DOCKED: REMARK  5 active torsions:
DOCKED: REMARK  status: ('A' for Active; 'I' for Inactive)
DOCKED: REMARK    1  A    between atoms: C_2  and  C_19 
DOCKED: REMARK    2  A    between atoms: C_2  and  C_11 
DOCKED: REMARK    3  A    between atoms: C_19  and  C_20 
DOCKED: REMARK    4  A    between atoms: C_20  and  C_21 
DOCKED: REMARK    5  A    between atoms: C_21  and  N_22 
DOCKED: USER                              x       y       z     vdW  Elec       q    Type
DOCKED: USER                           _______ _______ _______ _____ _____    ______ ____
DOCKED: ROOT
DOCKED: ATOM      1  O   UNL     1     -29.989 -16.604   3.100 +0.01 -0.00    -0.346 OA 
DOCKED: ATOM      2  C   UNL     1     -31.288 -15.985   3.364 -0.05 +0.00    +0.130 C  
DOCKED: ATOM      3  C   UNL     1     -31.968 -16.955   4.286 -0.11 +0.00    +0.004 A  
DOCKED: ATOM      4  C   UNL     1     -31.094 -17.983   4.610 -0.08 +0.00    +0.006 A  
DOCKED: ATOM      5  C   UNL     1     -29.790 -17.762   3.945 -0.02 +0.00    +0.169 C  
DOCKED: ATOM      6  C   UNL     1     -33.254 -16.924   4.806 -0.24 -0.00    -0.001 A  
DOCKED: ATOM      7  C   UNL     1     -31.473 -19.011   5.455 -0.17 +0.00    +0.008 A  
DOCKED: ATOM      8  C   UNL     1     -33.652 -17.956   5.657 -0.32 +0.00    +0.010 A  
DOCKED: ATOM      9  C   UNL     1     -32.766 -18.994   5.980 -0.29 +0.00    +0.068 A  
DOCKED: ATOM     10  N   UNL     1     -33.536 -20.892   7.567 -2.67 -0.00    -0.191 NA 
DOCKED: ATOM     11  C   UNL     1     -33.190 -20.041   6.855 -0.39 +0.00    +0.101 C  
DOCKED: ENDROOT
DOCKED: BRANCH   2  12
DOCKED: ATOM     12  C   UNL     1     -31.052 -14.622   4.004 -0.02 +0.00    +0.038 C  
DOCKED: BRANCH  12  13
DOCKED: ATOM     13  C   UNL     1     -30.185 -14.739   5.257 -0.02 +0.00    +0.038 C  
DOCKED: BRANCH  13  14
DOCKED: ATOM     14  C   UNL     1     -31.017 -14.532   6.521 -0.01 +0.00    +0.251 C  
DOCKED: BRANCH  14  15
DOCKED: ATOM     15  N   UNL     1     -31.283 -15.812   7.168 -0.04 +0.00    +0.141 N  
DOCKED: ATOM     16  C   UNL     1     -30.087 -16.299   7.859 -0.01 +0.00    +0.285 C  
DOCKED: ATOM     17  C   UNL     1     -32.399 -15.693   8.108 -0.07 +0.00    +0.285 C  
DOCKED: ENDBRANCH  14  15
DOCKED: ENDBRANCH  13  14
DOCKED: ENDBRANCH  12  13
DOCKED: ENDBRANCH   2  12
DOCKED: BRANCH   2  18
DOCKED: ATOM     18  C   UNL     1     -31.981 -15.849   2.049 -0.11 +0.00    +0.006 A  
DOCKED: ATOM     19  C   UNL     1     -31.691 -16.736   1.013 -0.12 +0.00    +0.001 A  
DOCKED: ATOM     20  C   UNL     1     -32.340 -16.607  -0.215 -0.15 +0.00    +0.029 A  
DOCKED: ATOM     21  C   UNL     1     -33.277 -15.593  -0.406 -0.18 +0.00    +0.140 A  
DOCKED: ATOM     22  C   UNL     1     -33.567 -14.706   0.630 -0.21 +0.00    +0.029 A  
DOCKED: ATOM     23  F   UNL     1     -33.901 -15.471  -1.585 -0.11 -0.00    -0.204 F  
DOCKED: ATOM     24  C   UNL     1     -32.918 -14.834   1.859 -0.15 +0.00    +0.001 A  
DOCKED: ENDBRANCH   2  18
DOCKED: TORSDOF 5
DOCKED: TER
DOCKED: ENDMDL
________________________________________________________________________________


    FINAL DOCKED STATE:
    ________________________


Run:   316 / 512
Time taken for this run:   0.002s

DOCKED: MODEL        316
DOCKED: USER    Run = 316
DOCKED: USER
DOCKED: USER    Estimated Free Energy of Binding    =  -4.11 kcal/mol  [=(1)+(2)+(3)-(4)]
DOCKED: USER
DOCKED: USER    (1) Final Intermolecular Energy     =  -5.60 kcal/mol
DOCKED: USER        vdW + Hbond + desolv Energy     =  -5.60 kcal/mol
DOCKED: USER        Electrostatic Energy            =  +0.00 kcal/mol
DOCKED: USER        Moving Ligand-Fixed Receptor    =  -5.60 kcal/mol
DOCKED: USER        Moving Ligand-Moving Receptor   =  +0.00 kcal/mol
DOCKED: USER    (2) Final Total Internal Energy     =  -1.37 kcal/mol
DOCKED: USER    (3) Torsional Free Energy           =  +1.49 kcal/mol
DOCKED: USER    (4) Unbound System's Energy         =  -1.37 kcal/mol
DOCKED: USER
DOCKED: USER
DOCKED: REMARK  5 active torsions:
DOCKED: REMARK  status: ('A' for Active; 'I' for Inactive)
DOCKED: REMARK    1  A    between atoms: C_2  and  C_19 
DOCKED: REMARK    2  A    between atoms: C_2  and  C_11 
DOCKED: REMARK    3  A    between atoms: C_19  and  C_20 
DOCKED: REMARK    4  A    between atoms: C_20  and  C_21 
DOCKED: REMARK    5  A    between atoms: C_21  and  N_22 
DOCKED: USER                              x       y       z     vdW  Elec       q    Type
DOCKED: USER                           _______ _______ _______ _____ _____    ______ ____
DOCKED: ROOT
DOCKED: ATOM      1  O   UNL     1     -39.173 -14.908  12.762 -0.00 -0.00    -0.346 OA 
DOCKED: ATOM      2  C   UNL     1     -38.882 -14.556  11.372 -0.10 +0.00    +0.130 C  
DOCKED: ATOM      3  C   UNL     1     -39.278 -15.782  10.600 -0.22 +0.00    +0.004 A  
DOCKED: ATOM      4  C   UNL     1     -39.847 -16.711  11.459 -0.13 +0.00    +0.006 A  
DOCKED: ATOM      5  C   UNL     1     -39.879 -16.168  12.836 -0.04 +0.00    +0.169 C  
DOCKED: ATOM      6  C   UNL     1     -39.154 -16.048   9.245 -0.18 -0.00    -0.001 A  
DOCKED: ATOM      7  C   UNL     1     -40.305 -17.933  10.998 -0.19 +0.00    +0.008 A  
DOCKED: ATOM      8  C   UNL     1     -39.608 -17.278   8.764 -0.34 +0.00    +0.010 A  
DOCKED: ATOM      9  C   UNL     1     -40.181 -18.215   9.637 -0.28 +0.00    +0.068 A  
DOCKED: ATOM     10  N   UNL     1     -41.017 -20.486   8.712 -2.55 -0.00    -0.191 NA 
DOCKED: ATOM     11  C   UNL     1     -40.642 -19.468   9.127 -0.33 +0.00    +0.101 C  
DOCKED: ENDROOT
DOCKED: BRANCH   2  12
DOCKED: ATOM     12  C   UNL     1     -39.709 -13.330  11.002 -0.13 +0.00    +0.038 C  
DOCKED: BRANCH  12  13
DOCKED: ATOM     13  C   UNL     1     -40.739 -13.657   9.923 -0.23 +0.00    +0.038 C  
DOCKED: BRANCH  13  14
DOCKED: ATOM     14  C   UNL     1     -42.156 -13.635  10.492 -0.16 +0.00    +0.251 C  
DOCKED: BRANCH  14  15
DOCKED: ATOM     15  N   UNL     1     -42.469 -14.911  11.124 -0.12 +0.00    +0.141 N  
DOCKED: ATOM     16  C   UNL     1     -43.174 -14.701  12.390 -0.01 +0.00    +0.285 C  
DOCKED: ATOM     17  C   UNL     1     -43.272 -15.746  10.229 -0.13 +0.00    +0.285 C  
DOCKED: ENDBRANCH  14  15
DOCKED: ENDBRANCH  13  14
DOCKED: ENDBRANCH  12  13
DOCKED: ENDBRANCH   2  12
DOCKED: BRANCH   2  18
DOCKED: ATOM     18  C   UNL     1     -37.421 -14.264  11.291 -0.10 +0.00    +0.006 A  
DOCKED: ATOM     19  C   UNL     1     -36.539 -14.877  12.181 -0.08 +0.00    +0.001 A  
DOCKED: ATOM     20  C   UNL     1     -35.172 -14.603  12.105 -0.06 +0.00    +0.029 A  
DOCKED: ATOM     21  C   UNL     1     -34.691 -13.719  11.140 -0.04 +0.00    +0.140 A  
DOCKED: ATOM     22  C   UNL     1     -35.574 -13.107  10.251 -0.08 +0.00    +0.029 A  
DOCKED: ATOM     23  F   UNL     1     -33.379 -13.458  11.067 -0.00 -0.00    -0.204 F  
DOCKED: ATOM     24  C   UNL     1     -36.941 -13.380  10.327 -0.12 +0.00    +0.001 A  
DOCKED: ENDBRANCH   2  18
DOCKED: TORSDOF 5
DOCKED: TER
DOCKED: ENDMDL
________________________________________________________________________________


    FINAL DOCKED STATE:
    ________________________


Run:   317 / 512
Time taken for this run:   0.002s

DOCKED: MODEL        317
DOCKED: USER    Run = 317
DOCKED: USER
DOCKED: USER    Estimated Free Energy of Binding    =  -4.97 kcal/mol  [=(1)+(2)+(3)-(4)]
DOCKED: USER
DOCKED: USER    (1) Final Intermolecular Energy     =  -6.46 kcal/mol
DOCKED: USER        vdW + Hbond + desolv Energy     =  -6.46 kcal/mol
DOCKED: USER        Electrostatic Energy            =  +0.00 kcal/mol
DOCKED: USER        Moving Ligand-Fixed Receptor    =  -6.46 kcal/mol
DOCKED: USER        Moving Ligand-Moving Receptor   =  +0.00 kcal/mol
DOCKED: USER    (2) Final Total Internal Energy     =  -1.18 kcal/mol
DOCKED: USER    (3) Torsional Free Energy           =  +1.49 kcal/mol
DOCKED: USER    (4) Unbound System's Energy         =  -1.18 kcal/mol
DOCKED: USER
DOCKED: USER
DOCKED: REMARK  5 active torsions:
DOCKED: REMARK  status: ('A' for Active; 'I' for Inactive)
DOCKED: REMARK    1  A    between atoms: C_2  and  C_19 
DOCKED: REMARK    2  A    between atoms: C_2  and  C_11 
DOCKED: REMARK    3  A    between atoms: C_19  and  C_20 
DOCKED: REMARK    4  A    between atoms: C_20  and  C_21 
DOCKED: REMARK    5  A    between atoms: C_21  and  N_22 
DOCKED: USER                              x       y       z     vdW  Elec       q    Type
DOCKED: USER                           _______ _______ _______ _____ _____    ______ ____
DOCKED: ROOT
DOCKED: ATOM      1  O   UNL     1     -41.953 -16.815  11.624 -0.01 -0.00    -0.346 OA 
DOCKED: ATOM      2  C   UNL     1     -40.521 -17.009  11.394 -0.11 +0.00    +0.130 C  
DOCKED: ATOM      3  C   UNL     1     -40.452 -17.557   9.998 -0.27 +0.00    +0.004 A  
DOCKED: ATOM      4  C   UNL     1     -41.722 -17.572   9.439 -0.26 +0.00    +0.006 A  
DOCKED: ATOM      5  C   UNL     1     -42.703 -17.030  10.406 -0.17 +0.00    +0.169 C  
DOCKED: ATOM      6  C   UNL     1     -39.352 -17.997   9.276 -0.37 -0.00    -0.001 A  
DOCKED: ATOM      7  C   UNL     1     -41.937 -18.027   8.150 -0.09 +0.00    +0.008 A  
DOCKED: ATOM      8  C   UNL     1     -39.553 -18.464   7.976 -0.26 +0.00    +0.010 A  
DOCKED: ATOM      9  C   UNL     1     -40.839 -18.478   7.416 -0.38 +0.00    +0.068 A  
DOCKED: ATOM     10  N   UNL     1     -41.177 -19.347   4.998 -2.71 -0.00    -0.191 NA 
DOCKED: ATOM     11  C   UNL     1     -41.025 -18.958   6.082 -0.29 +0.00    +0.101 C  
DOCKED: ENDROOT
DOCKED: BRANCH   2  12
DOCKED: ATOM     12  C   UNL     1     -39.822 -15.662  11.537 -0.13 +0.00    +0.038 C  
DOCKED: BRANCH  12  13
DOCKED: ATOM     13  C   UNL     1     -39.856 -14.875  10.228 -0.24 +0.00    +0.038 C  
DOCKED: BRANCH  13  14
DOCKED: ATOM     14  C   UNL     1     -38.504 -14.224   9.943 -0.14 +0.00    +0.251 C  
DOCKED: BRANCH  14  15
DOCKED: ATOM     15  N   UNL     1     -37.658 -14.271  11.130 -0.08 +0.00    +0.141 N  
DOCKED: ATOM     16  C   UNL     1     -36.596 -15.265  10.968 -0.09 +0.00    +0.285 C  
DOCKED: ATOM     17  C   UNL     1     -37.083 -12.954  11.406 -0.03 +0.00    +0.285 C  
DOCKED: ENDBRANCH  14  15
DOCKED: ENDBRANCH  13  14
DOCKED: ENDBRANCH  12  13
DOCKED: ENDBRANCH   2  12
DOCKED: BRANCH   2  18
DOCKED: ATOM     18  C   UNL     1     -40.040 -17.977  12.423 -0.13 +0.00    +0.006 A  
DOCKED: ATOM     19  C   UNL     1     -38.674 -18.107  12.673 -0.17 +0.00    +0.001 A  
DOCKED: ATOM     20  C   UNL     1     -38.226 -19.012  13.635 -0.08 +0.00    +0.029 A  
DOCKED: ATOM     21  C   UNL     1     -39.143 -19.785  14.346 -0.17 +0.00    +0.140 A  
DOCKED: ATOM     22  C   UNL     1     -40.509 -19.654  14.095 -0.05 +0.00    +0.029 A  
DOCKED: ATOM     23  F   UNL     1     -38.713 -20.653  15.271 -0.10 -0.00    -0.204 F  
DOCKED: ATOM     24  C   UNL     1     -40.958 -18.749  13.133 -0.15 +0.00    +0.001 A  
DOCKED: ENDBRANCH   2  18
DOCKED: TORSDOF 5
DOCKED: TER
DOCKED: ENDMDL
________________________________________________________________________________


    FINAL DOCKED STATE:
    ________________________


Run:   318 / 512
Time taken for this run:   0.002s

DOCKED: MODEL        318
DOCKED: USER    Run = 318
DOCKED: USER
DOCKED: USER    Estimated Free Energy of Binding    =  -4.41 kcal/mol  [=(1)+(2)+(3)-(4)]
DOCKED: USER
DOCKED: USER    (1) Final Intermolecular Energy     =  -5.90 kcal/mol
DOCKED: USER        vdW + Hbond + desolv Energy     =  -5.90 kcal/mol
DOCKED: USER        Electrostatic Energy            =  +0.00 kcal/mol
DOCKED: USER        Moving Ligand-Fixed Receptor    =  -5.90 kcal/mol
DOCKED: USER        Moving Ligand-Moving Receptor   =  +0.00 kcal/mol
DOCKED: USER    (2) Final Total Internal Energy     =  -1.29 kcal/mol
DOCKED: USER    (3) Torsional Free Energy           =  +1.49 kcal/mol
DOCKED: USER    (4) Unbound System's Energy         =  -1.29 kcal/mol
DOCKED: USER
DOCKED: USER
DOCKED: REMARK  5 active torsions:
DOCKED: REMARK  status: ('A' for Active; 'I' for Inactive)
DOCKED: REMARK    1  A    between atoms: C_2  and  C_19 
DOCKED: REMARK    2  A    between atoms: C_2  and  C_11 
DOCKED: REMARK    3  A    between atoms: C_19  and  C_20 
DOCKED: REMARK    4  A    between atoms: C_20  and  C_21 
DOCKED: REMARK    5  A    between atoms: C_21  and  N_22 
DOCKED: USER                              x       y       z     vdW  Elec       q    Type
DOCKED: USER                           _______ _______ _______ _____ _____    ______ ____
DOCKED: ROOT
DOCKED: ATOM      1  O   UNL     1     -39.497 -18.504  12.008 -0.06 -0.00    -0.346 OA 
DOCKED: ATOM      2  C   UNL     1     -39.273 -17.223  11.337 -0.16 +0.00    +0.130 C  
DOCKED: ATOM      3  C   UNL     1     -39.617 -17.503   9.903 -0.32 +0.00    +0.004 A  
DOCKED: ATOM      4  C   UNL     1     -40.102 -18.798   9.783 -0.33 +0.00    +0.006 A  
DOCKED: ATOM      5  C   UNL     1     -40.124 -19.451  11.111 -0.11 +0.00    +0.169 C  
DOCKED: ATOM      6  C   UNL     1     -39.520 -16.675   8.795 -0.20 -0.00    -0.001 A  
DOCKED: ATOM      7  C   UNL     1     -40.499 -19.308   8.559 -0.45 +0.00    +0.008 A  
DOCKED: ATOM      8  C   UNL     1     -39.913 -17.176   7.553 +0.29 +0.00    +0.010 A  
DOCKED: ATOM      9  C   UNL     1     -40.401 -18.486   7.436 -0.42 +0.00    +0.068 A  
DOCKED: ATOM     10  N   UNL     1     -41.127 -19.384   5.117 -2.55 -0.00    -0.191 NA 
DOCKED: ATOM     11  C   UNL     1     -40.800 -18.981   6.157 -0.39 +0.00    +0.101 C  
DOCKED: ENDROOT
DOCKED: BRANCH   2  12
DOCKED: ATOM     12  C   UNL     1     -40.183 -16.179  11.973 -0.10 +0.00    +0.038 C  
DOCKED: BRANCH  12  13
DOCKED: ATOM     13  C   UNL     1     -40.635 -16.610  13.367 -0.06 +0.00    +0.038 C  
DOCKED: BRANCH  13  14
DOCKED: ATOM     14  C   UNL     1     -42.138 -16.402  13.546 -0.01 +0.00    +0.251 C  
DOCKED: BRANCH  14  15
DOCKED: ATOM     15  N   UNL     1     -42.872 -17.567  13.066 -0.04 +0.00    +0.141 N  
DOCKED: ATOM     16  C   UNL     1     -43.037 -17.510  11.612 -0.04 +0.00    +0.285 C  
DOCKED: ATOM     17  C   UNL     1     -42.187 -18.802  13.450 -0.05 +0.00    +0.285 C  
DOCKED: ENDBRANCH  14  15
DOCKED: ENDBRANCH  13  14
DOCKED: ENDBRANCH  12  13
DOCKED: ENDBRANCH   2  12
DOCKED: BRANCH   2  18
DOCKED: ATOM     18  C   UNL     1     -37.835 -16.875  11.533 -0.20 +0.00    +0.006 A  
DOCKED: ATOM     19  C   UNL     1     -37.425 -15.544  11.463 -0.14 +0.00    +0.001 A  
DOCKED: ATOM     20  C   UNL     1     -36.080 -15.219  11.646 -0.11 +0.00    +0.029 A  
DOCKED: ATOM     21  C   UNL     1     -35.148 -16.225  11.898 -0.10 +0.00    +0.140 A  
DOCKED: ATOM     22  C   UNL     1     -35.559 -17.556  11.968 -0.16 +0.00    +0.029 A  
DOCKED: ATOM     23  F   UNL     1     -33.858 -15.913  12.075 -0.01 -0.00    -0.204 F  
DOCKED: ATOM     24  C   UNL     1     -36.904 -17.882  11.785 -0.19 +0.00    +0.001 A  
DOCKED: ENDBRANCH   2  18
DOCKED: TORSDOF 5
DOCKED: TER
DOCKED: ENDMDL
________________________________________________________________________________


    FINAL DOCKED STATE:
    ________________________


Run:   319 / 512
Time taken for this run:   0.002s

DOCKED: MODEL        319
DOCKED: USER    Run = 319
DOCKED: USER
DOCKED: USER    Estimated Free Energy of Binding    =  -4.23 kcal/mol  [=(1)+(2)+(3)-(4)]
DOCKED: USER
DOCKED: USER    (1) Final Intermolecular Energy     =  -5.72 kcal/mol
DOCKED: USER        vdW + Hbond + desolv Energy     =  -5.72 kcal/mol
DOCKED: USER        Electrostatic Energy            =  +0.00 kcal/mol
DOCKED: USER        Moving Ligand-Fixed Receptor    =  -5.72 kcal/mol
DOCKED: USER        Moving Ligand-Moving Receptor   =  +0.00 kcal/mol
DOCKED: USER    (2) Final Total Internal Energy     =  -1.27 kcal/mol
DOCKED: USER    (3) Torsional Free Energy           =  +1.49 kcal/mol
DOCKED: USER    (4) Unbound System's Energy         =  -1.27 kcal/mol
DOCKED: USER
DOCKED: USER
DOCKED: REMARK  5 active torsions:
DOCKED: REMARK  status: ('A' for Active; 'I' for Inactive)
DOCKED: REMARK    1  A    between atoms: C_2  and  C_19 
DOCKED: REMARK    2  A    between atoms: C_2  and  C_11 
DOCKED: REMARK    3  A    between atoms: C_19  and  C_20 
DOCKED: REMARK    4  A    between atoms: C_20  and  C_21 
DOCKED: REMARK    5  A    between atoms: C_21  and  N_22 
DOCKED: USER                              x       y       z     vdW  Elec       q    Type
DOCKED: USER                           _______ _______ _______ _____ _____    ______ ____
DOCKED: ROOT
DOCKED: ATOM      1  O   UNL     1     -36.748 -15.473  11.730 -0.06 -0.00    -0.346 OA 
DOCKED: ATOM      2  C   UNL     1     -38.019 -14.858  11.343 -0.11 +0.00    +0.130 C  
DOCKED: ATOM      3  C   UNL     1     -38.768 -15.972  10.672 -0.22 +0.00    +0.004 A  
DOCKED: ATOM      4  C   UNL     1     -38.037 -17.149  10.764 -0.24 +0.00    +0.006 A  
DOCKED: ATOM      5  C   UNL     1     -36.779 -16.902  11.504 -0.14 +0.00    +0.169 C  
DOCKED: ATOM      6  C   UNL     1     -40.002 -15.949  10.039 -0.26 -0.00    -0.001 A  
DOCKED: ATOM      7  C   UNL     1     -38.510 -18.334  10.228 -0.33 +0.00    +0.008 A  
DOCKED: ATOM      8  C   UNL     1     -40.490 -17.136   9.489 -0.30 +0.00    +0.010 A  
DOCKED: ATOM      9  C   UNL     1     -39.748 -18.322   9.584 -0.31 +0.00    +0.068 A  
DOCKED: ATOM     10  N   UNL     1     -40.685 -20.509   8.557 -2.51 -0.00    -0.191 NA 
DOCKED: ATOM     11  C   UNL     1     -40.264 -19.528   9.017 -0.33 +0.00    +0.101 C  
DOCKED: ENDROOT
DOCKED: BRANCH   2  12
DOCKED: ATOM     12  C   UNL     1     -38.712 -14.351  12.602 -0.04 +0.00    +0.038 C  
DOCKED: BRANCH  12  13
DOCKED: ATOM     13  C   UNL     1     -40.084 -14.998  12.781 -0.05 +0.00    +0.038 C  
DOCKED: BRANCH  13  14
DOCKED: ATOM     14  C   UNL     1     -40.106 -15.910  14.006 -0.01 +0.00    +0.251 C  
DOCKED: BRANCH  14  15
DOCKED: ATOM     15  N   UNL     1     -39.783 -17.280  13.625 -0.04 +0.00    +0.141 N  
DOCKED: ATOM     16  C   UNL     1     -38.544 -17.716  14.269 -0.05 +0.00    +0.285 C  
DOCKED: ATOM     17  C   UNL     1     -40.881 -18.184  13.971 -0.04 +0.00    +0.285 C  
DOCKED: ENDBRANCH  14  15
DOCKED: ENDBRANCH  13  14
DOCKED: ENDBRANCH  12  13
DOCKED: ENDBRANCH   2  12
DOCKED: BRANCH   2  18
DOCKED: ATOM     18  C   UNL     1     -37.694 -13.734  10.417 -0.14 +0.00    +0.006 A  
DOCKED: ATOM     19  C   UNL     1     -36.375 -13.511  10.026 -0.13 +0.00    +0.001 A  
DOCKED: ATOM     20  C   UNL     1     -36.073 -12.460   9.160 -0.09 +0.00    +0.029 A  
DOCKED: ATOM     21  C   UNL     1     -37.090 -11.633   8.686 -0.07 +0.00    +0.140 A  
DOCKED: ATOM     22  C   UNL     1     -38.410 -11.856   9.077 -0.10 +0.00    +0.029 A  
DOCKED: ATOM     23  F   UNL     1     -36.801 -10.625   7.853 -0.01 -0.00    -0.204 F  
DOCKED: ATOM     24  C   UNL     1     -38.713 -12.908   9.944 -0.14 +0.00    +0.001 A  
DOCKED: ENDBRANCH   2  18
DOCKED: TORSDOF 5
DOCKED: TER
DOCKED: ENDMDL
________________________________________________________________________________


    FINAL DOCKED STATE:
    ________________________


Run:   320 / 512
Time taken for this run:   0.002s

DOCKED: MODEL        320
DOCKED: USER    Run = 320
DOCKED: USER
DOCKED: USER    Estimated Free Energy of Binding    =  -5.33 kcal/mol  [=(1)+(2)+(3)-(4)]
DOCKED: USER
DOCKED: USER    (1) Final Intermolecular Energy     =  -6.82 kcal/mol
DOCKED: USER        vdW + Hbond + desolv Energy     =  -6.82 kcal/mol
DOCKED: USER        Electrostatic Energy            =  +0.00 kcal/mol
DOCKED: USER        Moving Ligand-Fixed Receptor    =  -6.82 kcal/mol
DOCKED: USER        Moving Ligand-Moving Receptor   =  +0.00 kcal/mol
DOCKED: USER    (2) Final Total Internal Energy     =  -1.35 kcal/mol
DOCKED: USER    (3) Torsional Free Energy           =  +1.49 kcal/mol
DOCKED: USER    (4) Unbound System's Energy         =  -1.35 kcal/mol
DOCKED: USER
DOCKED: USER
DOCKED: REMARK  5 active torsions:
DOCKED: REMARK  status: ('A' for Active; 'I' for Inactive)
DOCKED: REMARK    1  A    between atoms: C_2  and  C_19 
DOCKED: REMARK    2  A    between atoms: C_2  and  C_11 
DOCKED: REMARK    3  A    between atoms: C_19  and  C_20 
DOCKED: REMARK    4  A    between atoms: C_20  and  C_21 
DOCKED: REMARK    5  A    between atoms: C_21  and  N_22 
DOCKED: USER                              x       y       z     vdW  Elec       q    Type
DOCKED: USER                           _______ _______ _______ _____ _____    ______ ____
DOCKED: ROOT
DOCKED: ATOM      1  O   UNL     1     -39.549 -16.257  11.608 -0.02 -0.00    -0.346 OA 
DOCKED: ATOM      2  C   UNL     1     -38.812 -17.520  11.560 -0.18 +0.00    +0.130 C  
DOCKED: ATOM      3  C   UNL     1     -39.197 -18.110  10.234 -0.32 +0.00    +0.004 A  
DOCKED: ATOM      4  C   UNL     1     -39.995 -17.214   9.538 -0.32 +0.00    +0.006 A  
DOCKED: ATOM      5  C   UNL     1     -40.181 -15.982  10.336 -0.20 +0.00    +0.169 C  
DOCKED: ATOM      6  C   UNL     1     -38.858 -19.338   9.683 -0.42 -0.00    -0.001 A  
DOCKED: ATOM      7  C   UNL     1     -40.484 -17.512   8.277 -0.19 +0.00    +0.008 A  
DOCKED: ATOM      8  C   UNL     1     -39.346 -19.655   8.414 -0.39 +0.00    +0.010 A  
DOCKED: ATOM      9  C   UNL     1     -40.155 -18.746   7.715 -0.43 +0.00    +0.068 A  
DOCKED: ATOM     10  N   UNL     1     -41.040 -19.365   5.360 -2.34 -0.00    -0.191 NA 
DOCKED: ATOM     11  C   UNL     1     -40.643 -19.088   6.416 -0.49 +0.00    +0.101 C  
DOCKED: ENDROOT
DOCKED: BRANCH   2  12
DOCKED: ATOM     12  C   UNL     1     -37.323 -17.214  11.663 -0.23 +0.00    +0.038 C  
DOCKED: BRANCH  12  13
DOCKED: ATOM     13  C   UNL     1     -37.079 -15.753  12.037 -0.13 +0.00    +0.038 C  
DOCKED: BRANCH  13  14
DOCKED: ATOM     14  C   UNL     1     -36.601 -14.950  10.829 -0.09 +0.00    +0.251 C  
DOCKED: BRANCH  14  15
DOCKED: ATOM     15  N   UNL     1     -37.177 -13.610  10.850 -0.07 +0.00    +0.141 N  
DOCKED: ATOM     16  C   UNL     1     -38.002 -13.384   9.662 -0.09 +0.00    +0.285 C  
DOCKED: ATOM     17  C   UNL     1     -37.971 -13.410  12.064 -0.02 +0.00    +0.285 C  
DOCKED: ENDBRANCH  14  15
DOCKED: ENDBRANCH  13  14
DOCKED: ENDBRANCH  12  13
DOCKED: ENDBRANCH   2  12
DOCKED: BRANCH   2  18
DOCKED: ATOM     18  C   UNL     1     -39.275 -18.340  12.717 -0.17 +0.00    +0.006 A  
DOCKED: ATOM     19  C   UNL     1     -40.637 -18.569  12.909 -0.15 +0.00    +0.001 A  
DOCKED: ATOM     20  C   UNL     1     -41.068 -19.336  13.992 -0.14 +0.00    +0.029 A  
DOCKED: ATOM     21  C   UNL     1     -40.138 -19.872  14.881 -0.01 +0.00    +0.140 A  
DOCKED: ATOM     22  C   UNL     1     -38.776 -19.643  14.689 -0.23 +0.00    +0.029 A  
DOCKED: ATOM     23  F   UNL     1     -40.552 -20.609  15.920 -0.04 -0.00    -0.204 F  
DOCKED: ATOM     24  C   UNL     1     -38.343 -18.876  13.606 -0.15 +0.00    +0.001 A  
DOCKED: ENDBRANCH   2  18
DOCKED: TORSDOF 5
DOCKED: TER
DOCKED: ENDMDL
________________________________________________________________________________


    FINAL DOCKED STATE:
    ________________________


Run:   321 / 512
Time taken for this run:   0.002s

DOCKED: MODEL        321
DOCKED: USER    Run = 321
DOCKED: USER
DOCKED: USER    Estimated Free Energy of Binding    =  -4.11 kcal/mol  [=(1)+(2)+(3)-(4)]
DOCKED: USER
DOCKED: USER    (1) Final Intermolecular Energy     =  -5.60 kcal/mol
DOCKED: USER        vdW + Hbond + desolv Energy     =  -5.60 kcal/mol
DOCKED: USER        Electrostatic Energy            =  +0.00 kcal/mol
DOCKED: USER        Moving Ligand-Fixed Receptor    =  -5.60 kcal/mol
DOCKED: USER        Moving Ligand-Moving Receptor   =  +0.00 kcal/mol
DOCKED: USER    (2) Final Total Internal Energy     =  -1.37 kcal/mol
DOCKED: USER    (3) Torsional Free Energy           =  +1.49 kcal/mol
DOCKED: USER    (4) Unbound System's Energy         =  -1.37 kcal/mol
DOCKED: USER
DOCKED: USER
DOCKED: REMARK  5 active torsions:
DOCKED: REMARK  status: ('A' for Active; 'I' for Inactive)
DOCKED: REMARK    1  A    between atoms: C_2  and  C_19 
DOCKED: REMARK    2  A    between atoms: C_2  and  C_11 
DOCKED: REMARK    3  A    between atoms: C_19  and  C_20 
DOCKED: REMARK    4  A    between atoms: C_20  and  C_21 
DOCKED: REMARK    5  A    between atoms: C_21  and  N_22 
DOCKED: USER                              x       y       z     vdW  Elec       q    Type
DOCKED: USER                           _______ _______ _______ _____ _____    ______ ____
DOCKED: ROOT
DOCKED: ATOM      1  O   UNL     1     -36.694 -15.937  12.218 -0.05 -0.00    -0.346 OA 
DOCKED: ATOM      2  C   UNL     1     -37.675 -15.150  11.469 -0.12 +0.00    +0.130 C  
DOCKED: ATOM      3  C   UNL     1     -38.447 -16.180  10.696 -0.22 +0.00    +0.004 A  
DOCKED: ATOM      4  C   UNL     1     -38.019 -17.451  11.055 -0.25 +0.00    +0.006 A  
DOCKED: ATOM      5  C   UNL     1     -36.960 -17.352  12.085 -0.16 +0.00    +0.169 C  
DOCKED: ATOM      6  C   UNL     1     -39.454 -16.007   9.759 -0.28 -0.00    -0.001 A  
DOCKED: ATOM      7  C   UNL     1     -38.577 -18.585  10.491 -0.34 +0.00    +0.008 A  
DOCKED: ATOM      8  C   UNL     1     -40.024 -17.141   9.177 -0.33 +0.00    +0.010 A  
DOCKED: ATOM      9  C   UNL     1     -39.587 -18.424   9.542 -0.32 +0.00    +0.068 A  
DOCKED: ATOM     10  N   UNL     1     -40.669 -20.508   8.446 -2.44 -0.00    -0.191 NA 
DOCKED: ATOM     11  C   UNL     1     -40.183 -19.573   8.937 -0.34 +0.00    +0.101 C  
DOCKED: ENDROOT
DOCKED: BRANCH   2  12
DOCKED: ATOM     12  C   UNL     1     -38.540 -14.384  12.463 -0.05 +0.00    +0.038 C  
DOCKED: BRANCH  12  13
DOCKED: ATOM     13  C   UNL     1     -37.771 -13.221  13.089 -0.02 +0.00    +0.038 C  
DOCKED: BRANCH  13  14
DOCKED: ATOM     14  C   UNL     1     -36.600 -13.726  13.930 -0.00 +0.00    +0.251 C  
DOCKED: BRANCH  14  15
DOCKED: ATOM     15  N   UNL     1     -35.594 -12.680  14.077 -0.00 +0.00    +0.141 N  
DOCKED: ATOM     16  C   UNL     1     -34.286 -13.263  14.378 -0.00 +0.00    +0.285 C  
DOCKED: ATOM     17  C   UNL     1     -35.519 -11.863  12.865 -0.00 +0.00    +0.285 C  
DOCKED: ENDBRANCH  14  15
DOCKED: ENDBRANCH  13  14
DOCKED: ENDBRANCH  12  13
DOCKED: ENDBRANCH   2  12
DOCKED: BRANCH   2  18
DOCKED: ATOM     18  C   UNL     1     -36.909 -14.218  10.592 -0.14 +0.00    +0.006 A  
DOCKED: ATOM     19  C   UNL     1     -35.522 -14.330  10.499 -0.11 +0.00    +0.001 A  
DOCKED: ATOM     20  C   UNL     1     -34.806 -13.458   9.678 -0.09 +0.00    +0.029 A  
DOCKED: ATOM     21  C   UNL     1     -35.478 -12.476   8.951 -0.07 +0.00    +0.140 A  
DOCKED: ATOM     22  C   UNL     1     -36.865 -12.365   9.044 -0.11 +0.00    +0.029 A  
DOCKED: ATOM     23  F   UNL     1     -34.791 -11.640   8.162 -0.00 -0.00    -0.204 F  
DOCKED: ATOM     24  C   UNL     1     -37.581 -13.237   9.865 -0.14 +0.00    +0.001 A  
DOCKED: ENDBRANCH   2  18
DOCKED: TORSDOF 5
DOCKED: TER
DOCKED: ENDMDL
________________________________________________________________________________


    FINAL DOCKED STATE:
    ________________________


Run:   322 / 512
Time taken for this run:   0.002s

DOCKED: MODEL        322
DOCKED: USER    Run = 322
DOCKED: USER
DOCKED: USER    Estimated Free Energy of Binding    =  -4.60 kcal/mol  [=(1)+(2)+(3)-(4)]
DOCKED: USER
DOCKED: USER    (1) Final Intermolecular Energy     =  -6.09 kcal/mol
DOCKED: USER        vdW + Hbond + desolv Energy     =  -6.09 kcal/mol
DOCKED: USER        Electrostatic Energy            =  +0.00 kcal/mol
DOCKED: USER        Moving Ligand-Fixed Receptor    =  -6.09 kcal/mol
DOCKED: USER        Moving Ligand-Moving Receptor   =  +0.00 kcal/mol
DOCKED: USER    (2) Final Total Internal Energy     =  -0.98 kcal/mol
DOCKED: USER    (3) Torsional Free Energy           =  +1.49 kcal/mol
DOCKED: USER    (4) Unbound System's Energy         =  -0.98 kcal/mol
DOCKED: USER
DOCKED: USER
DOCKED: REMARK  5 active torsions:
DOCKED: REMARK  status: ('A' for Active; 'I' for Inactive)
DOCKED: REMARK    1  A    between atoms: C_2  and  C_19 
DOCKED: REMARK    2  A    between atoms: C_2  and  C_11 
DOCKED: REMARK    3  A    between atoms: C_19  and  C_20 
DOCKED: REMARK    4  A    between atoms: C_20  and  C_21 
DOCKED: REMARK    5  A    between atoms: C_21  and  N_22 
DOCKED: USER                              x       y       z     vdW  Elec       q    Type
DOCKED: USER                           _______ _______ _______ _____ _____    ______ ____
DOCKED: ROOT
DOCKED: ATOM      1  O   UNL     1     -36.963 -10.213   4.306 -0.10 -0.00    -0.346 OA 
DOCKED: ATOM      2  C   UNL     1     -35.649  -9.946   3.720 -0.18 +0.00    +0.130 C  
DOCKED: ATOM      3  C   UNL     1     -35.967  -9.266   2.420 -0.24 +0.00    +0.004 A  
DOCKED: ATOM      4  C   UNL     1     -37.336  -9.062   2.322 -0.23 +0.00    +0.006 A  
DOCKED: ATOM      5  C   UNL     1     -38.008  -9.574   3.538 -0.15 +0.00    +0.169 C  
DOCKED: ATOM      6  C   UNL     1     -35.112  -8.850   1.409 -0.21 -0.00    -0.001 A  
DOCKED: ATOM      7  C   UNL     1     -37.896  -8.444   1.217 -0.37 +0.00    +0.008 A  
DOCKED: ATOM      8  C   UNL     1     -35.662  -8.229   0.286 -0.27 +0.00    +0.010 A  
DOCKED: ATOM      9  C   UNL     1     -37.047  -8.027   0.191 -0.31 +0.00    +0.068 A  
DOCKED: ATOM     10  N   UNL     1     -38.034  -6.867  -1.905 -2.50 -0.00    -0.191 NA 
DOCKED: ATOM     11  C   UNL     1     -37.591  -7.388  -0.965 -0.39 +0.00    +0.101 C  
DOCKED: ENDROOT
DOCKED: BRANCH   2  12
DOCKED: ATOM     12  C   UNL     1     -34.864  -9.057   4.678 -0.13 +0.00    +0.038 C  
DOCKED: BRANCH  12  13
DOCKED: ATOM     13  C   UNL     1     -33.358  -9.239   4.500 -0.12 +0.00    +0.038 C  
DOCKED: BRANCH  13  14
DOCKED: ATOM     14  C   UNL     1     -32.630  -7.899   4.575 -0.04 +0.00    +0.251 C  
DOCKED: BRANCH  14  15
DOCKED: ATOM     15  N   UNL     1     -31.637  -7.801   3.512 -0.06 +0.00    +0.141 N  
DOCKED: ATOM     16  C   UNL     1     -32.272  -7.435   2.245 -0.06 +0.00    +0.285 C  
DOCKED: ATOM     17  C   UNL     1     -30.601  -6.827   3.861 -0.03 +0.00    +0.285 C  
DOCKED: ENDBRANCH  14  15
DOCKED: ENDBRANCH  13  14
DOCKED: ENDBRANCH  12  13
DOCKED: ENDBRANCH   2  12
DOCKED: BRANCH   2  18
DOCKED: ATOM     18  C   UNL     1     -34.976 -11.265   3.536 -0.11 +0.00    +0.006 A  
DOCKED: ATOM     19  C   UNL     1     -34.625 -12.029   4.649 -0.08 +0.00    +0.001 A  
DOCKED: ATOM     20  C   UNL     1     -33.995 -13.262   4.476 -0.08 +0.00    +0.029 A  
DOCKED: ATOM     21  C   UNL     1     -33.719 -13.730   3.192 -0.10 +0.00    +0.140 A  
DOCKED: ATOM     22  C   UNL     1     -34.071 -12.966   2.080 -0.14 +0.00    +0.029 A  
DOCKED: ATOM     23  F   UNL     1     -33.116 -14.914   3.026 -0.04 -0.00    -0.204 F  
DOCKED: ATOM     24  C   UNL     1     -34.700 -11.731   2.252 -0.15 +0.00    +0.001 A  
DOCKED: ENDBRANCH   2  18
DOCKED: TORSDOF 5
DOCKED: TER
DOCKED: ENDMDL
________________________________________________________________________________


    FINAL DOCKED STATE:
    ________________________


Run:   323 / 512
Time taken for this run:   0.002s

DOCKED: MODEL        323
DOCKED: USER    Run = 323
DOCKED: USER
DOCKED: USER    Estimated Free Energy of Binding    =  -4.84 kcal/mol  [=(1)+(2)+(3)-(4)]
DOCKED: USER
DOCKED: USER    (1) Final Intermolecular Energy     =  -6.34 kcal/mol
DOCKED: USER        vdW + Hbond + desolv Energy     =  -6.34 kcal/mol
DOCKED: USER        Electrostatic Energy            =  +0.00 kcal/mol
DOCKED: USER        Moving Ligand-Fixed Receptor    =  -6.34 kcal/mol
DOCKED: USER        Moving Ligand-Moving Receptor   =  +0.00 kcal/mol
DOCKED: USER    (2) Final Total Internal Energy     =  -1.33 kcal/mol
DOCKED: USER    (3) Torsional Free Energy           =  +1.49 kcal/mol
DOCKED: USER    (4) Unbound System's Energy         =  -1.33 kcal/mol
DOCKED: USER
DOCKED: USER
DOCKED: REMARK  5 active torsions:
DOCKED: REMARK  status: ('A' for Active; 'I' for Inactive)
DOCKED: REMARK    1  A    between atoms: C_2  and  C_19 
DOCKED: REMARK    2  A    between atoms: C_2  and  C_11 
DOCKED: REMARK    3  A    between atoms: C_19  and  C_20 
DOCKED: REMARK    4  A    between atoms: C_20  and  C_21 
DOCKED: REMARK    5  A    between atoms: C_21  and  N_22 
DOCKED: USER                              x       y       z     vdW  Elec       q    Type
DOCKED: USER                           _______ _______ _______ _____ _____    ______ ____
DOCKED: ROOT
DOCKED: ATOM      1  O   UNL     1     -39.949 -19.026  12.513 -0.08 -0.00    -0.346 OA 
DOCKED: ATOM      2  C   UNL     1     -39.461 -17.744  12.002 -0.13 +0.00    +0.130 C  
DOCKED: ATOM      3  C   UNL     1     -39.702 -17.831  10.523 -0.26 +0.00    +0.004 A  
DOCKED: ATOM      4  C   UNL     1     -40.371 -19.011  10.227 -0.28 +0.00    +0.006 A  
DOCKED: ATOM      5  C   UNL     1     -40.625 -19.770  11.473 -0.14 +0.00    +0.169 C  
DOCKED: ATOM      6  C   UNL     1     -39.368 -16.933   9.520 -0.33 -0.00    -0.001 A  
DOCKED: ATOM      7  C   UNL     1     -40.722 -19.335   8.928 -0.40 +0.00    +0.008 A  
DOCKED: ATOM      8  C   UNL     1     -39.711 -17.247   8.204 -0.17 +0.00    +0.010 A  
DOCKED: ATOM      9  C   UNL     1     -40.385 -18.442   7.910 -0.40 +0.00    +0.068 A  
DOCKED: ATOM     10  N   UNL     1     -41.012 -18.991   5.457 -2.40 -0.00    -0.191 NA 
DOCKED: ATOM     11  C   UNL     1     -40.730 -18.745   6.557 -0.48 +0.00    +0.101 C  
DOCKED: ENDROOT
DOCKED: BRANCH   2  12
DOCKED: ATOM     12  C   UNL     1     -40.254 -16.626  12.668 -0.08 +0.00    +0.038 C  
DOCKED: BRANCH  12  13
DOCKED: ATOM     13  C   UNL     1     -41.543 -17.153  13.294 -0.07 +0.00    +0.038 C  
DOCKED: BRANCH  13  14
DOCKED: ATOM     14  C   UNL     1     -42.724 -16.991  12.339 -0.03 +0.00    +0.251 C  
DOCKED: BRANCH  14  15
DOCKED: ATOM     15  N   UNL     1     -42.337 -16.187  11.186 -0.10 +0.00    +0.141 N  
DOCKED: ATOM     16  C   UNL     1     -43.102 -16.580  10.002 -0.11 +0.00    +0.285 C  
DOCKED: ATOM     17  C   UNL     1     -42.529 -14.762  11.463 -0.07 +0.00    +0.285 C  
DOCKED: ENDBRANCH  14  15
DOCKED: ENDBRANCH  13  14
DOCKED: ENDBRANCH  12  13
DOCKED: ENDBRANCH   2  12
DOCKED: BRANCH   2  18
DOCKED: ATOM     18  C   UNL     1     -38.012 -17.659  12.351 -0.18 +0.00    +0.006 A  
DOCKED: ATOM     19  C   UNL     1     -37.049 -17.710  11.344 -0.21 +0.00    +0.001 A  
DOCKED: ATOM     20  C   UNL     1     -35.695 -17.630  11.671 -0.11 +0.00    +0.029 A  
DOCKED: ATOM     21  C   UNL     1     -35.306 -17.499  13.003 -0.10 +0.00    +0.140 A  
DOCKED: ATOM     22  C   UNL     1     -36.270 -17.447  14.010 -0.10 +0.00    +0.029 A  
DOCKED: ATOM     23  F   UNL     1     -34.007 -17.420  13.317 -0.02 -0.00    -0.204 F  
DOCKED: ATOM     24  C   UNL     1     -37.625 -17.527  13.684 -0.11 +0.00    +0.001 A  
DOCKED: ENDBRANCH   2  18
DOCKED: TORSDOF 5
DOCKED: TER
DOCKED: ENDMDL
________________________________________________________________________________


    FINAL DOCKED STATE:
    ________________________


Run:   324 / 512
Time taken for this run:   0.002s

DOCKED: MODEL        324
DOCKED: USER    Run = 324
DOCKED: USER
DOCKED: USER    Estimated Free Energy of Binding    =  -3.89 kcal/mol  [=(1)+(2)+(3)-(4)]
DOCKED: USER
DOCKED: USER    (1) Final Intermolecular Energy     =  -5.38 kcal/mol
DOCKED: USER        vdW + Hbond + desolv Energy     =  -5.38 kcal/mol
DOCKED: USER        Electrostatic Energy            =  +0.00 kcal/mol
DOCKED: USER        Moving Ligand-Fixed Receptor    =  -5.38 kcal/mol
DOCKED: USER        Moving Ligand-Moving Receptor   =  +0.00 kcal/mol
DOCKED: USER    (2) Final Total Internal Energy     =  -1.35 kcal/mol
DOCKED: USER    (3) Torsional Free Energy           =  +1.49 kcal/mol
DOCKED: USER    (4) Unbound System's Energy         =  -1.35 kcal/mol
DOCKED: USER
DOCKED: USER
DOCKED: REMARK  5 active torsions:
DOCKED: REMARK  status: ('A' for Active; 'I' for Inactive)
DOCKED: REMARK    1  A    between atoms: C_2  and  C_19 
DOCKED: REMARK    2  A    between atoms: C_2  and  C_11 
DOCKED: REMARK    3  A    between atoms: C_19  and  C_20 
DOCKED: REMARK    4  A    between atoms: C_20  and  C_21 
DOCKED: REMARK    5  A    between atoms: C_21  and  N_22 
DOCKED: USER                              x       y       z     vdW  Elec       q    Type
DOCKED: USER                           _______ _______ _______ _____ _____    ______ ____
DOCKED: ROOT
DOCKED: ATOM      1  O   UNL     1     -30.230 -16.837   2.416 +0.01 -0.00    -0.346 OA 
DOCKED: ATOM      2  C   UNL     1     -31.369 -16.071   2.925 -0.06 +0.00    +0.130 C  
DOCKED: ATOM      3  C   UNL     1     -32.012 -16.999   3.915 -0.11 +0.00    +0.004 A  
DOCKED: ATOM      4  C   UNL     1     -31.246 -18.149   4.042 -0.10 +0.00    +0.006 A  
DOCKED: ATOM      5  C   UNL     1     -30.054 -18.059   3.169 -0.03 +0.00    +0.169 C  
DOCKED: ATOM      6  C   UNL     1     -33.175 -16.834   4.652 -0.22 -0.00    -0.001 A  
DOCKED: ATOM      7  C   UNL     1     -31.616 -19.170   4.902 -0.17 +0.00    +0.008 A  
DOCKED: ATOM      8  C   UNL     1     -33.564 -17.856   5.520 -0.31 +0.00    +0.010 A  
DOCKED: ATOM      9  C   UNL     1     -32.787 -19.017   5.645 -0.28 +0.00    +0.068 A  
DOCKED: ATOM     10  N   UNL     1     -33.535 -20.892   7.269 -2.57 -0.00    -0.191 NA 
DOCKED: ATOM     11  C   UNL     1     -33.200 -20.052   6.540 -0.42 +0.00    +0.101 C  
DOCKED: ENDROOT
DOCKED: BRANCH   2  12
DOCKED: ATOM     12  C   UNL     1     -30.843 -14.792   3.565 -0.02 +0.00    +0.038 C  
DOCKED: BRANCH  12  13
DOCKED: ATOM     13  C   UNL     1     -29.745 -14.155   2.717 -0.00 +0.00    +0.038 C  
DOCKED: BRANCH  13  14
DOCKED: ATOM     14  C   UNL     1     -30.240 -12.875   2.047 +0.00 +0.00    +0.251 C  
DOCKED: BRANCH  14  15
DOCKED: ATOM     15  N   UNL     1     -29.807 -12.830   0.655 -0.00 +0.00    +0.141 N  
DOCKED: ATOM     16  C   UNL     1     -28.738 -11.846   0.479 +0.00 +0.00    +0.285 C  
DOCKED: ATOM     17  C   UNL     1     -29.359 -14.151   0.212 +0.00 +0.00    +0.285 C  
DOCKED: ENDBRANCH  14  15
DOCKED: ENDBRANCH  13  14
DOCKED: ENDBRANCH  12  13
DOCKED: ENDBRANCH   2  12
DOCKED: BRANCH   2  18
DOCKED: ATOM     18  C   UNL     1     -32.247 -15.767   1.757 -0.12 +0.00    +0.006 A  
DOCKED: ATOM     19  C   UNL     1     -32.211 -16.583   0.627 -0.12 +0.00    +0.001 A  
DOCKED: ATOM     20  C   UNL     1     -33.033 -16.297  -0.464 -0.13 +0.00    +0.029 A  
DOCKED: ATOM     21  C   UNL     1     -33.889 -15.198  -0.423 -0.20 +0.00    +0.140 A  
DOCKED: ATOM     22  C   UNL     1     -33.925 -14.383   0.708 -0.22 +0.00    +0.029 A  
DOCKED: ATOM     23  F   UNL     1     -34.679 -14.925  -1.470 -0.14 -0.00    -0.204 F  
DOCKED: ATOM     24  C   UNL     1     -33.103 -14.668   1.800 -0.16 +0.00    +0.001 A  
DOCKED: ENDBRANCH   2  18
DOCKED: TORSDOF 5
DOCKED: TER
DOCKED: ENDMDL
________________________________________________________________________________


    FINAL DOCKED STATE:
    ________________________


Run:   325 / 512
Time taken for this run:   0.002s

DOCKED: MODEL        325
DOCKED: USER    Run = 325
DOCKED: USER
DOCKED: USER    Estimated Free Energy of Binding    =  -6.58 kcal/mol  [=(1)+(2)+(3)-(4)]
DOCKED: USER
DOCKED: USER    (1) Final Intermolecular Energy     =  -8.07 kcal/mol
DOCKED: USER        vdW + Hbond + desolv Energy     =  -8.07 kcal/mol
DOCKED: USER        Electrostatic Energy            =  +0.00 kcal/mol
DOCKED: USER        Moving Ligand-Fixed Receptor    =  -8.07 kcal/mol
DOCKED: USER        Moving Ligand-Moving Receptor   =  +0.00 kcal/mol
DOCKED: USER    (2) Final Total Internal Energy     =  -1.22 kcal/mol
DOCKED: USER    (3) Torsional Free Energy           =  +1.49 kcal/mol
DOCKED: USER    (4) Unbound System's Energy         =  -1.22 kcal/mol
DOCKED: USER
DOCKED: USER
DOCKED: REMARK  5 active torsions:
DOCKED: REMARK  status: ('A' for Active; 'I' for Inactive)
DOCKED: REMARK    1  A    between atoms: C_2  and  C_19 
DOCKED: REMARK    2  A    between atoms: C_2  and  C_11 
DOCKED: REMARK    3  A    between atoms: C_19  and  C_20 
DOCKED: REMARK    4  A    between atoms: C_20  and  C_21 
DOCKED: REMARK    5  A    between atoms: C_21  and  N_22 
DOCKED: USER                              x       y       z     vdW  Elec       q    Type
DOCKED: USER                           _______ _______ _______ _____ _____    ______ ____
DOCKED: ROOT
DOCKED: ATOM      1  O   UNL     1     -37.919 -20.018  10.757 -0.45 -0.00    -0.346 OA 
DOCKED: ATOM      2  C   UNL     1     -38.874 -18.930  10.970 -0.30 +0.00    +0.130 C  
DOCKED: ATOM      3  C   UNL     1     -39.542 -18.770   9.635 -0.38 +0.00    +0.004 A  
DOCKED: ATOM      4  C   UNL     1     -39.090 -19.753   8.767 -0.38 +0.00    +0.006 A  
DOCKED: ATOM      5  C   UNL     1     -38.115 -20.626   9.459 -0.02 +0.00    +0.169 C  
DOCKED: ATOM      6  C   UNL     1     -40.484 -17.837   9.226 -0.34 -0.00    -0.001 A  
DOCKED: ATOM      7  C   UNL     1     -39.556 -19.835   7.466 -0.27 +0.00    +0.008 A  
DOCKED: ATOM      8  C   UNL     1     -40.961 -17.904   7.916 -0.19 +0.00    +0.010 A  
DOCKED: ATOM      9  C   UNL     1     -40.499 -18.898   7.040 -0.46 +0.00    +0.068 A  
DOCKED: ATOM     10  N   UNL     1     -41.408 -18.996   4.616 -3.32 -0.00    -0.191 NA 
DOCKED: ATOM     11  C   UNL     1     -41.000 -18.952   5.703 -0.27 +0.00    +0.101 C  
DOCKED: ENDROOT
DOCKED: BRANCH   2  12
DOCKED: ATOM     12  C   UNL     1     -39.841 -19.345  12.072 -0.29 +0.00    +0.038 C  
DOCKED: BRANCH  12  13
DOCKED: ATOM     13  C   UNL     1     -40.762 -18.193  12.469 -0.15 +0.00    +0.038 C  
DOCKED: BRANCH  13  14
DOCKED: ATOM     14  C   UNL     1     -42.182 -18.423  11.958 -0.07 +0.00    +0.251 C  
DOCKED: BRANCH  14  15
DOCKED: ATOM     15  N   UNL     1     -42.837 -17.148  11.687 -0.07 +0.00    +0.141 N  
DOCKED: ATOM     16  C   UNL     1     -41.883 -16.044  11.801 -0.04 +0.00    +0.285 C  
DOCKED: ATOM     17  C   UNL     1     -43.449 -17.155  10.357 -0.11 +0.00    +0.285 C  
DOCKED: ENDBRANCH  14  15
DOCKED: ENDBRANCH  13  14
DOCKED: ENDBRANCH  12  13
DOCKED: ENDBRANCH   2  12
DOCKED: BRANCH   2  18
DOCKED: ATOM     18  C   UNL     1     -38.084 -17.729  11.372 -0.25 +0.00    +0.006 A  
DOCKED: ATOM     19  C   UNL     1     -37.383 -17.727  12.578 -0.16 +0.00    +0.001 A  
DOCKED: ATOM     20  C   UNL     1     -36.645 -16.604  12.952 -0.11 +0.00    +0.029 A  
DOCKED: ATOM     21  C   UNL     1     -36.608 -15.485  12.121 -0.08 +0.00    +0.140 A  
DOCKED: ATOM     22  C   UNL     1     -37.309 -15.488  10.915 -0.15 +0.00    +0.029 A  
DOCKED: ATOM     23  F   UNL     1     -35.898 -14.408  12.480 -0.00 -0.00    -0.204 F  
DOCKED: ATOM     24  C   UNL     1     -38.048 -16.611  10.540 -0.21 +0.00    +0.001 A  
DOCKED: ENDBRANCH   2  18
DOCKED: TORSDOF 5
DOCKED: TER
DOCKED: ENDMDL
________________________________________________________________________________


    FINAL DOCKED STATE:
    ________________________


Run:   326 / 512
Time taken for this run:   0.002s

DOCKED: MODEL        326
DOCKED: USER    Run = 326
DOCKED: USER
DOCKED: USER    Estimated Free Energy of Binding    =  -5.75 kcal/mol  [=(1)+(2)+(3)-(4)]
DOCKED: USER
DOCKED: USER    (1) Final Intermolecular Energy     =  -7.24 kcal/mol
DOCKED: USER        vdW + Hbond + desolv Energy     =  -7.24 kcal/mol
DOCKED: USER        Electrostatic Energy            =  +0.00 kcal/mol
DOCKED: USER        Moving Ligand-Fixed Receptor    =  -7.24 kcal/mol
DOCKED: USER        Moving Ligand-Moving Receptor   =  +0.00 kcal/mol
DOCKED: USER    (2) Final Total Internal Energy     =  -1.07 kcal/mol
DOCKED: USER    (3) Torsional Free Energy           =  +1.49 kcal/mol
DOCKED: USER    (4) Unbound System's Energy         =  -1.07 kcal/mol
DOCKED: USER
DOCKED: USER
DOCKED: REMARK  5 active torsions:
DOCKED: REMARK  status: ('A' for Active; 'I' for Inactive)
DOCKED: REMARK    1  A    between atoms: C_2  and  C_19 
DOCKED: REMARK    2  A    between atoms: C_2  and  C_11 
DOCKED: REMARK    3  A    between atoms: C_19  and  C_20 
DOCKED: REMARK    4  A    between atoms: C_20  and  C_21 
DOCKED: REMARK    5  A    between atoms: C_21  and  N_22 
DOCKED: USER                              x       y       z     vdW  Elec       q    Type
DOCKED: USER                           _______ _______ _______ _____ _____    ______ ____
DOCKED: ROOT
DOCKED: ATOM      1  O   UNL     1     -39.092 -16.269  11.311 -0.04 -0.00    -0.346 OA 
DOCKED: ATOM      2  C   UNL     1     -38.543 -17.626  11.289 -0.22 +0.00    +0.130 C  
DOCKED: ATOM      3  C   UNL     1     -39.039 -18.193   9.990 -0.34 +0.00    +0.004 A  
DOCKED: ATOM      4  C   UNL     1     -39.718 -17.213   9.282 -0.34 +0.00    +0.006 A  
DOCKED: ATOM      5  C   UNL     1     -39.709 -15.944  10.044 -0.23 +0.00    +0.169 C  
DOCKED: ATOM      6  C   UNL     1     -38.890 -19.471   9.473 -0.41 -0.00    -0.001 A  
DOCKED: ATOM      7  C   UNL     1     -40.274 -17.475   8.041 -0.18 +0.00    +0.008 A  
DOCKED: ATOM      8  C   UNL     1     -39.448 -19.753   8.225 -0.40 +0.00    +0.010 A  
DOCKED: ATOM      9  C   UNL     1     -40.136 -18.759   7.512 -0.43 +0.00    +0.068 A  
DOCKED: ATOM     10  N   UNL     1     -41.156 -19.313   5.196 -2.54 -0.00    -0.191 NA 
DOCKED: ATOM     11  C   UNL     1     -40.699 -19.065   6.235 -0.44 +0.00    +0.101 C  
DOCKED: ENDROOT
DOCKED: BRANCH   2  12
DOCKED: ATOM     12  C   UNL     1     -37.023 -17.532  11.354 -0.23 +0.00    +0.038 C  
DOCKED: BRANCH  12  13
DOCKED: ATOM     13  C   UNL     1     -36.574 -16.276  12.098 -0.15 +0.00    +0.038 C  
DOCKED: BRANCH  13  14
DOCKED: ATOM     14  C   UNL     1     -36.380 -15.106  11.135 -0.09 +0.00    +0.251 C  
DOCKED: BRANCH  14  15
DOCKED: ATOM     15  N   UNL     1     -35.004 -15.067  10.654 -0.09 +0.00    +0.141 N  
DOCKED: ATOM     16  C   UNL     1     -34.538 -13.685  10.535 -0.05 +0.00    +0.285 C  
DOCKED: ATOM     17  C   UNL     1     -34.125 -15.826  11.545 -0.07 +0.00    +0.285 C  
DOCKED: ENDBRANCH  14  15
DOCKED: ENDBRANCH  13  14
DOCKED: ENDBRANCH  12  13
DOCKED: ENDBRANCH   2  12
DOCKED: BRANCH   2  18
DOCKED: ATOM     18  C   UNL     1     -39.089 -18.337  12.481 -0.18 +0.00    +0.006 A  
DOCKED: ATOM     19  C   UNL     1     -40.436 -18.698  12.521 -0.18 +0.00    +0.001 A  
DOCKED: ATOM     20  C   UNL     1     -40.945 -19.363  13.637 -0.15 +0.00    +0.029 A  
DOCKED: ATOM     21  C   UNL     1     -40.109 -19.667  14.709 -0.09 +0.00    +0.140 A  
DOCKED: ATOM     22  C   UNL     1     -38.762 -19.307  14.669 -0.20 +0.00    +0.029 A  
DOCKED: ATOM     23  F   UNL     1     -40.598 -20.308  15.779 -0.04 -0.00    -0.204 F  
DOCKED: ATOM     24  C   UNL     1     -38.251 -18.641  13.554 -0.15 +0.00    +0.001 A  
DOCKED: ENDBRANCH   2  18
DOCKED: TORSDOF 5
DOCKED: TER
DOCKED: ENDMDL
________________________________________________________________________________


    FINAL DOCKED STATE:
    ________________________


Run:   327 / 512
Time taken for this run:   0.002s

DOCKED: MODEL        327
DOCKED: USER    Run = 327
DOCKED: USER
DOCKED: USER    Estimated Free Energy of Binding    =  -3.68 kcal/mol  [=(1)+(2)+(3)-(4)]
DOCKED: USER
DOCKED: USER    (1) Final Intermolecular Energy     =  -5.17 kcal/mol
DOCKED: USER        vdW + Hbond + desolv Energy     =  -5.17 kcal/mol
DOCKED: USER        Electrostatic Energy            =  +0.00 kcal/mol
DOCKED: USER        Moving Ligand-Fixed Receptor    =  -5.17 kcal/mol
DOCKED: USER        Moving Ligand-Moving Receptor   =  +0.00 kcal/mol
DOCKED: USER    (2) Final Total Internal Energy     =  -1.47 kcal/mol
DOCKED: USER    (3) Torsional Free Energy           =  +1.49 kcal/mol
DOCKED: USER    (4) Unbound System's Energy         =  -1.47 kcal/mol
DOCKED: USER
DOCKED: USER
DOCKED: REMARK  5 active torsions:
DOCKED: REMARK  status: ('A' for Active; 'I' for Inactive)
DOCKED: REMARK    1  A    between atoms: C_2  and  C_19 
DOCKED: REMARK    2  A    between atoms: C_2  and  C_11 
DOCKED: REMARK    3  A    between atoms: C_19  and  C_20 
DOCKED: REMARK    4  A    between atoms: C_20  and  C_21 
DOCKED: REMARK    5  A    between atoms: C_21  and  N_22 
DOCKED: USER                              x       y       z     vdW  Elec       q    Type
DOCKED: USER                           _______ _______ _______ _____ _____    ______ ____
DOCKED: ROOT
DOCKED: ATOM      1  O   UNL     1     -37.192 -16.610  13.418 -0.03 -0.00    -0.346 OA 
DOCKED: ATOM      2  C   UNL     1     -37.241 -15.812  12.192 -0.10 +0.00    +0.130 C  
DOCKED: ATOM      3  C   UNL     1     -38.082 -16.636  11.260 -0.20 +0.00    +0.004 A  
DOCKED: ATOM      4  C   UNL     1     -38.564 -17.752  11.930 -0.19 +0.00    +0.006 A  
DOCKED: ATOM      5  C   UNL     1     -38.093 -17.739  13.333 -0.11 +0.00    +0.169 C  
DOCKED: ATOM      6  C   UNL     1     -38.405 -16.409   9.931 -0.20 -0.00    -0.001 A  
DOCKED: ATOM      7  C   UNL     1     -39.377 -18.677  11.297 -0.26 +0.00    +0.008 A  
DOCKED: ATOM      8  C   UNL     1     -39.220 -17.335   9.277 -0.32 +0.00    +0.010 A  
DOCKED: ATOM      9  C   UNL     1     -39.704 -18.463   9.957 -0.29 +0.00    +0.068 A  
DOCKED: ATOM     10  N   UNL     1     -41.218 -20.159   8.715 -2.43 -0.00    -0.191 NA 
DOCKED: ATOM     11  C   UNL     1     -40.538 -19.399   9.272 -0.33 +0.00    +0.101 C  
DOCKED: ENDROOT
DOCKED: BRANCH   2  12
DOCKED: ATOM     12  C   UNL     1     -37.866 -14.462  12.520 -0.05 +0.00    +0.038 C  
DOCKED: BRANCH  12  13
DOCKED: ATOM     13  C   UNL     1     -38.053 -14.285  14.025 -0.01 +0.00    +0.038 C  
DOCKED: BRANCH  13  14
DOCKED: ATOM     14  C   UNL     1     -36.801 -13.691  14.669 -0.00 +0.00    +0.251 C  
DOCKED: BRANCH  14  15
DOCKED: ATOM     15  N   UNL     1     -36.165 -14.672  15.541 -0.00 +0.00    +0.141 N  
DOCKED: ATOM     16  C   UNL     1     -34.923 -15.165  14.943 -0.00 +0.00    +0.285 C  
DOCKED: ATOM     17  C   UNL     1     -35.900 -14.094  16.859 +0.00 +0.00    +0.285 C  
DOCKED: ENDBRANCH  14  15
DOCKED: ENDBRANCH  13  14
DOCKED: ENDBRANCH  12  13
DOCKED: ENDBRANCH   2  12
DOCKED: BRANCH   2  18
DOCKED: ATOM     18  C   UNL     1     -35.834 -15.654  11.718 -0.13 +0.00    +0.006 A  
DOCKED: ATOM     19  C   UNL     1     -35.420 -14.446  11.158 -0.10 +0.00    +0.001 A  
DOCKED: ATOM     20  C   UNL     1     -34.105 -14.299  10.715 -0.08 +0.00    +0.029 A  
DOCKED: ATOM     21  C   UNL     1     -33.207 -15.359  10.833 -0.07 +0.00    +0.140 A  
DOCKED: ATOM     22  C   UNL     1     -33.622 -16.567  11.394 -0.13 +0.00    +0.029 A  
DOCKED: ATOM     23  F   UNL     1     -31.944 -15.217  10.410 -0.00 -0.00    -0.204 F  
DOCKED: ATOM     24  C   UNL     1     -34.938 -16.715  11.837 -0.15 +0.00    +0.001 A  
DOCKED: ENDBRANCH   2  18
DOCKED: TORSDOF 5
DOCKED: TER
DOCKED: ENDMDL
________________________________________________________________________________


    FINAL DOCKED STATE:
    ________________________


Run:   328 / 512
Time taken for this run:   0.002s

DOCKED: MODEL        328
DOCKED: USER    Run = 328
DOCKED: USER
DOCKED: USER    Estimated Free Energy of Binding    =  -4.75 kcal/mol  [=(1)+(2)+(3)-(4)]
DOCKED: USER
DOCKED: USER    (1) Final Intermolecular Energy     =  -6.25 kcal/mol
DOCKED: USER        vdW + Hbond + desolv Energy     =  -6.25 kcal/mol
DOCKED: USER        Electrostatic Energy            =  +0.00 kcal/mol
DOCKED: USER        Moving Ligand-Fixed Receptor    =  -6.25 kcal/mol
DOCKED: USER        Moving Ligand-Moving Receptor   =  +0.00 kcal/mol
DOCKED: USER    (2) Final Total Internal Energy     =  -1.15 kcal/mol
DOCKED: USER    (3) Torsional Free Energy           =  +1.49 kcal/mol
DOCKED: USER    (4) Unbound System's Energy         =  -1.15 kcal/mol
DOCKED: USER
DOCKED: USER
DOCKED: REMARK  5 active torsions:
DOCKED: REMARK  status: ('A' for Active; 'I' for Inactive)
DOCKED: REMARK    1  A    between atoms: C_2  and  C_19 
DOCKED: REMARK    2  A    between atoms: C_2  and  C_11 
DOCKED: REMARK    3  A    between atoms: C_19  and  C_20 
DOCKED: REMARK    4  A    between atoms: C_20  and  C_21 
DOCKED: REMARK    5  A    between atoms: C_21  and  N_22 
DOCKED: USER                              x       y       z     vdW  Elec       q    Type
DOCKED: USER                           _______ _______ _______ _____ _____    ______ ____
DOCKED: ROOT
DOCKED: ATOM      1  O   UNL     1     -37.077 -10.006   4.264 -0.11 -0.00    -0.346 OA 
DOCKED: ATOM      2  C   UNL     1     -35.767  -9.908   3.620 -0.19 +0.00    +0.130 C  
DOCKED: ATOM      3  C   UNL     1     -36.062  -9.250   2.303 -0.26 +0.00    +0.004 A  
DOCKED: ATOM      4  C   UNL     1     -37.404  -8.902   2.246 -0.20 +0.00    +0.006 A  
DOCKED: ATOM      5  C   UNL     1     -38.078  -9.287   3.506 -0.14 +0.00    +0.169 C  
DOCKED: ATOM      6  C   UNL     1     -35.209  -8.971   1.246 -0.22 -0.00    -0.001 A  
DOCKED: ATOM      7  C   UNL     1     -37.938  -8.271   1.135 -0.35 +0.00    +0.008 A  
DOCKED: ATOM      8  C   UNL     1     -35.733  -8.340   0.116 -0.28 +0.00    +0.010 A  
DOCKED: ATOM      9  C   UNL     1     -37.091  -7.991   0.062 -0.30 +0.00    +0.068 A  
DOCKED: ATOM     10  N   UNL     1     -38.030  -6.815  -2.047 -2.51 -0.00    -0.191 NA 
DOCKED: ATOM     11  C   UNL     1     -37.609  -7.343  -1.101 -0.35 +0.00    +0.101 C  
DOCKED: ENDROOT
DOCKED: BRANCH   2  12
DOCKED: ATOM     12  C   UNL     1     -34.853  -9.073   4.509 -0.13 +0.00    +0.038 C  
DOCKED: BRANCH  12  13
DOCKED: ATOM     13  C   UNL     1     -33.401  -9.150   4.044 -0.12 +0.00    +0.038 C  
DOCKED: BRANCH  13  14
DOCKED: ATOM     14  C   UNL     1     -32.912  -7.794   3.538 -0.09 +0.00    +0.251 C  
DOCKED: BRANCH  14  15
DOCKED: ATOM     15  N   UNL     1     -31.659  -7.946   2.809 -0.04 +0.00    +0.141 N  
DOCKED: ATOM     16  C   UNL     1     -30.541  -8.126   3.736 -0.02 +0.00    +0.285 C  
DOCKED: ATOM     17  C   UNL     1     -31.736  -9.075   1.880 -0.01 +0.00    +0.285 C  
DOCKED: ENDBRANCH  14  15
DOCKED: ENDBRANCH  13  14
DOCKED: ENDBRANCH  12  13
DOCKED: ENDBRANCH   2  12
DOCKED: BRANCH   2  18
DOCKED: ATOM     18  C   UNL     1     -35.249 -11.299   3.472 -0.14 +0.00    +0.006 A  
DOCKED: ATOM     19  C   UNL     1     -34.869 -12.025   4.600 -0.09 +0.00    +0.001 A  
DOCKED: ATOM     20  C   UNL     1     -34.384 -13.326   4.459 -0.11 +0.00    +0.029 A  
DOCKED: ATOM     21  C   UNL     1     -34.280 -13.899   3.193 -0.15 +0.00    +0.140 A  
DOCKED: ATOM     22  C   UNL     1     -34.660 -13.172   2.065 -0.19 +0.00    +0.029 A  
DOCKED: ATOM     23  F   UNL     1     -33.816 -15.148   3.059 -0.07 -0.00    -0.204 F  
DOCKED: ATOM     24  C   UNL     1     -35.145 -11.871   2.204 -0.19 +0.00    +0.001 A  
DOCKED: ENDBRANCH   2  18
DOCKED: TORSDOF 5
DOCKED: TER
DOCKED: ENDMDL
________________________________________________________________________________


    FINAL DOCKED STATE:
    ________________________


Run:   329 / 512
Time taken for this run:   0.002s

DOCKED: MODEL        329
DOCKED: USER    Run = 329
DOCKED: USER
DOCKED: USER    Estimated Free Energy of Binding    =  -3.67 kcal/mol  [=(1)+(2)+(3)-(4)]
DOCKED: USER
DOCKED: USER    (1) Final Intermolecular Energy     =  -5.16 kcal/mol
DOCKED: USER        vdW + Hbond + desolv Energy     =  -5.16 kcal/mol
DOCKED: USER        Electrostatic Energy            =  +0.00 kcal/mol
DOCKED: USER        Moving Ligand-Fixed Receptor    =  -5.16 kcal/mol
DOCKED: USER        Moving Ligand-Moving Receptor   =  +0.00 kcal/mol
DOCKED: USER    (2) Final Total Internal Energy     =  -1.56 kcal/mol
DOCKED: USER    (3) Torsional Free Energy           =  +1.49 kcal/mol
DOCKED: USER    (4) Unbound System's Energy         =  -1.56 kcal/mol
DOCKED: USER
DOCKED: USER
DOCKED: REMARK  5 active torsions:
DOCKED: REMARK  status: ('A' for Active; 'I' for Inactive)
DOCKED: REMARK    1  A    between atoms: C_2  and  C_19 
DOCKED: REMARK    2  A    between atoms: C_2  and  C_11 
DOCKED: REMARK    3  A    between atoms: C_19  and  C_20 
DOCKED: REMARK    4  A    between atoms: C_20  and  C_21 
DOCKED: REMARK    5  A    between atoms: C_21  and  N_22 
DOCKED: USER                              x       y       z     vdW  Elec       q    Type
DOCKED: USER                           _______ _______ _______ _____ _____    ______ ____
DOCKED: ROOT
DOCKED: ATOM      1  O   UNL     1     -31.796 -14.483   4.335 +0.01 -0.00    -0.346 OA 
DOCKED: ATOM      2  C   UNL     1     -33.219 -14.704   4.076 -0.11 +0.00    +0.130 C  
DOCKED: ATOM      3  C   UNL     1     -33.492 -16.046   4.691 -0.21 +0.00    +0.004 A  
DOCKED: ATOM      4  C   UNL     1     -32.354 -16.503   5.340 -0.13 +0.00    +0.006 A  
DOCKED: ATOM      5  C   UNL     1     -31.269 -15.504   5.214 -0.03 +0.00    +0.169 C  
DOCKED: ATOM      6  C   UNL     1     -34.658 -16.798   4.685 -0.28 -0.00    -0.001 A  
DOCKED: ATOM      7  C   UNL     1     -32.340 -17.720   5.998 -0.20 +0.00    +0.008 A  
DOCKED: ATOM      8  C   UNL     1     -34.658 -18.030   5.341 +0.07 +0.00    +0.010 A  
DOCKED: ATOM      9  C   UNL     1     -33.505 -18.488   5.995 -0.29 +0.00    +0.068 A  
DOCKED: ATOM     10  N   UNL     1     -33.541 -20.778   7.207 -2.40 -0.00    -0.191 NA 
DOCKED: ATOM     11  C   UNL     1     -33.524 -19.751   6.663 -0.26 +0.00    +0.101 C  
DOCKED: ENDROOT
DOCKED: BRANCH   2  12
DOCKED: ATOM     12  C   UNL     1     -34.010 -13.578   4.733 -0.11 +0.00    +0.038 C  
DOCKED: BRANCH  12  13
DOCKED: ATOM     13  C   UNL     1     -33.102 -12.412   5.120 -0.03 +0.00    +0.038 C  
DOCKED: BRANCH  13  14
DOCKED: ATOM     14  C   UNL     1     -32.901 -11.459   3.944 -0.01 +0.00    +0.251 C  
DOCKED: BRANCH  14  15
DOCKED: ATOM     15  N   UNL     1     -31.769 -11.888   3.132 -0.00 +0.00    +0.141 N  
DOCKED: ATOM     16  C   UNL     1     -31.739 -11.160   1.862 -0.00 +0.00    +0.285 C  
DOCKED: ATOM     17  C   UNL     1     -30.512 -11.695   3.857 +0.00 +0.00    +0.285 C  
DOCKED: ENDBRANCH  14  15
DOCKED: ENDBRANCH  13  14
DOCKED: ENDBRANCH  12  13
DOCKED: ENDBRANCH   2  12
DOCKED: BRANCH   2  18
DOCKED: ATOM     18  C   UNL     1     -33.400 -14.694   2.595 -0.16 +0.00    +0.006 A  
DOCKED: ATOM     19  C   UNL     1     -34.220 -13.737   1.999 -0.20 +0.00    +0.001 A  
DOCKED: ATOM     20  C   UNL     1     -34.388 -13.730   0.614 -0.23 +0.00    +0.029 A  
DOCKED: ATOM     21  C   UNL     1     -33.736 -14.678  -0.173 -0.21 +0.00    +0.140 A  
DOCKED: ATOM     22  C   UNL     1     -32.916 -15.635   0.424 -0.17 +0.00    +0.029 A  
DOCKED: ATOM     23  F   UNL     1     -33.896 -14.670  -1.503 -0.08 -0.00    -0.204 F  
DOCKED: ATOM     24  C   UNL     1     -32.747 -15.644   1.810 -0.13 +0.00    +0.001 A  
DOCKED: ENDBRANCH   2  18
DOCKED: TORSDOF 5
DOCKED: TER
DOCKED: ENDMDL
________________________________________________________________________________


    FINAL DOCKED STATE:
    ________________________


Run:   330 / 512
Time taken for this run:   0.002s

DOCKED: MODEL        330
DOCKED: USER    Run = 330
DOCKED: USER
DOCKED: USER    Estimated Free Energy of Binding    =  -3.90 kcal/mol  [=(1)+(2)+(3)-(4)]
DOCKED: USER
DOCKED: USER    (1) Final Intermolecular Energy     =  -5.39 kcal/mol
DOCKED: USER        vdW + Hbond + desolv Energy     =  -5.39 kcal/mol
DOCKED: USER        Electrostatic Energy            =  +0.00 kcal/mol
DOCKED: USER        Moving Ligand-Fixed Receptor    =  -5.39 kcal/mol
DOCKED: USER        Moving Ligand-Moving Receptor   =  +0.00 kcal/mol
DOCKED: USER    (2) Final Total Internal Energy     =  -1.15 kcal/mol
DOCKED: USER    (3) Torsional Free Energy           =  +1.49 kcal/mol
DOCKED: USER    (4) Unbound System's Energy         =  -1.15 kcal/mol
DOCKED: USER
DOCKED: USER
DOCKED: REMARK  5 active torsions:
DOCKED: REMARK  status: ('A' for Active; 'I' for Inactive)
DOCKED: REMARK    1  A    between atoms: C_2  and  C_19 
DOCKED: REMARK    2  A    between atoms: C_2  and  C_11 
DOCKED: REMARK    3  A    between atoms: C_19  and  C_20 
DOCKED: REMARK    4  A    between atoms: C_20  and  C_21 
DOCKED: REMARK    5  A    between atoms: C_21  and  N_22 
DOCKED: USER                              x       y       z     vdW  Elec       q    Type
DOCKED: USER                           _______ _______ _______ _____ _____    ______ ____
DOCKED: ROOT
DOCKED: ATOM      1  O   UNL     1     -33.970 -10.890   2.954 +0.00 -0.00    -0.346 OA 
DOCKED: ATOM      2  C   UNL     1     -35.319 -10.870   3.520 -0.13 +0.00    +0.130 C  
DOCKED: ATOM      3  C   UNL     1     -36.101 -10.025   2.556 -0.26 +0.00    +0.004 A  
DOCKED: ATOM      4  C   UNL     1     -35.298  -9.684   1.477 -0.21 +0.00    +0.006 A  
DOCKED: ATOM      5  C   UNL     1     -33.954 -10.281   1.642 -0.07 +0.00    +0.169 C  
DOCKED: ATOM      6  C   UNL     1     -37.420  -9.602   2.624 -0.18 -0.00    -0.001 A  
DOCKED: ATOM      7  C   UNL     1     -35.781  -8.910   0.436 -0.25 +0.00    +0.008 A  
DOCKED: ATOM      8  C   UNL     1     -37.921  -8.817   1.584 -0.20 +0.00    +0.010 A  
DOCKED: ATOM      9  C   UNL     1     -37.105  -8.473   0.495 -0.18 +0.00    +0.068 A  
DOCKED: ATOM     10  N   UNL     1     -38.068  -7.018  -1.420 -2.18 -0.00    -0.191 NA 
DOCKED: ATOM     11  C   UNL     1     -37.636  -7.670  -0.561 -0.34 +0.00    +0.101 C  
DOCKED: ENDROOT
DOCKED: BRANCH   2  12
DOCKED: ATOM     12  C   UNL     1     -35.830 -12.304   3.602 -0.21 +0.00    +0.038 C  
DOCKED: BRANCH  12  13
DOCKED: ATOM     13  C   UNL     1     -34.677 -13.306   3.599 -0.17 +0.00    +0.038 C  
DOCKED: BRANCH  13  14
DOCKED: ATOM     14  C   UNL     1     -34.659 -14.119   2.306 -0.11 +0.00    +0.251 C  
DOCKED: BRANCH  14  15
DOCKED: ATOM     15  N   UNL     1     -33.381 -13.957   1.623 -0.13 +0.00    +0.141 N  
DOCKED: ATOM     16  C   UNL     1     -32.362 -13.458   2.547 -0.02 +0.00    +0.285 C  
DOCKED: ATOM     17  C   UNL     1     -32.951 -15.223   1.028 -0.14 +0.00    +0.285 C  
DOCKED: ENDBRANCH  14  15
DOCKED: ENDBRANCH  13  14
DOCKED: ENDBRANCH  12  13
DOCKED: ENDBRANCH   2  12
DOCKED: BRANCH   2  18
DOCKED: ATOM     18  C   UNL     1     -35.214 -10.258   4.877 -0.13 +0.00    +0.006 A  
DOCKED: ATOM     19  C   UNL     1     -35.905  -9.082   5.167 -0.13 +0.00    +0.001 A  
DOCKED: ATOM     20  C   UNL     1     -35.806  -8.511   6.436 -0.11 +0.00    +0.029 A  
DOCKED: ATOM     21  C   UNL     1     -35.017  -9.115   7.413 -0.09 +0.00    +0.140 A  
DOCKED: ATOM     22  C   UNL     1     -34.326 -10.292   7.123 -0.05 +0.00    +0.029 A  
DOCKED: ATOM     23  F   UNL     1     -34.923  -8.568   8.632 -0.02 -0.00    -0.204 F  
DOCKED: ATOM     24  C   UNL     1     -34.424 -10.864   5.853 -0.06 +0.00    +0.001 A  
DOCKED: ENDBRANCH   2  18
DOCKED: TORSDOF 5
DOCKED: TER
DOCKED: ENDMDL
________________________________________________________________________________


    FINAL DOCKED STATE:
    ________________________


Run:   331 / 512
Time taken for this run:   0.002s

DOCKED: MODEL        331
DOCKED: USER    Run = 331
DOCKED: USER
DOCKED: USER    Estimated Free Energy of Binding    =  -5.86 kcal/mol  [=(1)+(2)+(3)-(4)]
DOCKED: USER
DOCKED: USER    (1) Final Intermolecular Energy     =  -7.35 kcal/mol
DOCKED: USER        vdW + Hbond + desolv Energy     =  -7.35 kcal/mol
DOCKED: USER        Electrostatic Energy            =  +0.00 kcal/mol
DOCKED: USER        Moving Ligand-Fixed Receptor    =  -7.35 kcal/mol
DOCKED: USER        Moving Ligand-Moving Receptor   =  +0.00 kcal/mol
DOCKED: USER    (2) Final Total Internal Energy     =  -1.38 kcal/mol
DOCKED: USER    (3) Torsional Free Energy           =  +1.49 kcal/mol
DOCKED: USER    (4) Unbound System's Energy         =  -1.38 kcal/mol
DOCKED: USER
DOCKED: USER
DOCKED: REMARK  5 active torsions:
DOCKED: REMARK  status: ('A' for Active; 'I' for Inactive)
DOCKED: REMARK    1  A    between atoms: C_2  and  C_19 
DOCKED: REMARK    2  A    between atoms: C_2  and  C_11 
DOCKED: REMARK    3  A    between atoms: C_19  and  C_20 
DOCKED: REMARK    4  A    between atoms: C_20  and  C_21 
DOCKED: REMARK    5  A    between atoms: C_21  and  N_22 
DOCKED: USER                              x       y       z     vdW  Elec       q    Type
DOCKED: USER                           _______ _______ _______ _____ _____    ______ ____
DOCKED: ROOT
DOCKED: ATOM      1  O   UNL     1     -38.086 -19.282  11.196 -0.20 -0.00    -0.346 OA 
DOCKED: ATOM      2  C   UNL     1     -39.236 -18.381  11.287 -0.22 +0.00    +0.130 C  
DOCKED: ATOM      3  C   UNL     1     -39.847 -18.439   9.917 -0.33 +0.00    +0.004 A  
DOCKED: ATOM      4  C   UNL     1     -39.174 -19.374   9.144 -0.44 +0.00    +0.006 A  
DOCKED: ATOM      5  C   UNL     1     -38.095 -20.000   9.940 -0.30 +0.00    +0.169 C  
DOCKED: ATOM      6  C   UNL     1     -40.921 -17.729   9.400 -0.30 -0.00    -0.001 A  
DOCKED: ATOM      7  C   UNL     1     -39.544 -19.628   7.834 -0.40 +0.00    +0.008 A  
DOCKED: ATOM      8  C   UNL     1     -41.304 -17.970   8.079 -0.15 +0.00    +0.010 A  
DOCKED: ATOM      9  C   UNL     1     -40.619 -18.916   7.301 -0.45 +0.00    +0.068 A  
DOCKED: ATOM     10  N   UNL     1     -41.360 -19.343   4.855 -2.90 -0.00    -0.191 NA 
DOCKED: ATOM     11  C   UNL     1     -41.027 -19.151   5.952 -0.31 +0.00    +0.101 C  
DOCKED: ENDROOT
DOCKED: BRANCH   2  12
DOCKED: ATOM     12  C   UNL     1     -40.169 -18.897  12.375 -0.23 +0.00    +0.038 C  
DOCKED: BRANCH  12  13
DOCKED: ATOM     13  C   UNL     1     -39.388 -19.545  13.517 -0.25 +0.00    +0.038 C  
DOCKED: BRANCH  13  14
DOCKED: ATOM     14  C   UNL     1     -39.014 -18.515  14.581 -0.09 +0.00    +0.251 C  
DOCKED: BRANCH  14  15
DOCKED: ATOM     15  N   UNL     1     -37.674 -18.777  15.093 -0.12 +0.00    +0.141 N  
DOCKED: ATOM     16  C   UNL     1     -36.662 -18.201  14.206 +0.00 +0.00    +0.285 C  
DOCKED: ATOM     17  C   UNL     1     -37.526 -18.242  16.447 -0.04 +0.00    +0.285 C  
DOCKED: ENDBRANCH  14  15
DOCKED: ENDBRANCH  13  14
DOCKED: ENDBRANCH  12  13
DOCKED: ENDBRANCH   2  12
DOCKED: BRANCH   2  18
DOCKED: ATOM     18  C   UNL     1     -38.704 -17.029  11.630 -0.17 +0.00    +0.006 A  
DOCKED: ATOM     19  C   UNL     1     -39.520 -16.105  12.282 -0.08 +0.00    +0.001 A  
DOCKED: ATOM     20  C   UNL     1     -39.022 -14.841  12.602 -0.04 +0.00    +0.029 A  
DOCKED: ATOM     21  C   UNL     1     -37.710 -14.504  12.270 -0.04 +0.00    +0.140 A  
DOCKED: ATOM     22  C   UNL     1     -36.895 -15.429  11.618 -0.12 +0.00    +0.029 A  
DOCKED: ATOM     23  F   UNL     1     -37.232 -13.292  12.578 +0.00 -0.00    -0.204 F  
DOCKED: ATOM     24  C   UNL     1     -37.393 -16.693  11.297 -0.19 +0.00    +0.001 A  
DOCKED: ENDBRANCH   2  18
DOCKED: TORSDOF 5
DOCKED: TER
DOCKED: ENDMDL
________________________________________________________________________________


    FINAL DOCKED STATE:
    ________________________


Run:   332 / 512
Time taken for this run:   0.002s

DOCKED: MODEL        332
DOCKED: USER    Run = 332
DOCKED: USER
DOCKED: USER    Estimated Free Energy of Binding    =  -4.32 kcal/mol  [=(1)+(2)+(3)-(4)]
DOCKED: USER
DOCKED: USER    (1) Final Intermolecular Energy     =  -5.81 kcal/mol
DOCKED: USER        vdW + Hbond + desolv Energy     =  -5.81 kcal/mol
DOCKED: USER        Electrostatic Energy            =  +0.00 kcal/mol
DOCKED: USER        Moving Ligand-Fixed Receptor    =  -5.81 kcal/mol
DOCKED: USER        Moving Ligand-Moving Receptor   =  +0.00 kcal/mol
DOCKED: USER    (2) Final Total Internal Energy     =  -1.36 kcal/mol
DOCKED: USER    (3) Torsional Free Energy           =  +1.49 kcal/mol
DOCKED: USER    (4) Unbound System's Energy         =  -1.36 kcal/mol
DOCKED: USER
DOCKED: USER
DOCKED: REMARK  5 active torsions:
DOCKED: REMARK  status: ('A' for Active; 'I' for Inactive)
DOCKED: REMARK    1  A    between atoms: C_2  and  C_19 
DOCKED: REMARK    2  A    between atoms: C_2  and  C_11 
DOCKED: REMARK    3  A    between atoms: C_19  and  C_20 
DOCKED: REMARK    4  A    between atoms: C_20  and  C_21 
DOCKED: REMARK    5  A    between atoms: C_21  and  N_22 
DOCKED: USER                              x       y       z     vdW  Elec       q    Type
DOCKED: USER                           _______ _______ _______ _____ _____    ______ ____
DOCKED: ROOT
DOCKED: ATOM      1  O   UNL     1     -36.708 -15.310  11.438 -0.06 -0.00    -0.346 OA 
DOCKED: ATOM      2  C   UNL     1     -37.975 -14.701  11.033 -0.13 +0.00    +0.130 C  
DOCKED: ATOM      3  C   UNL     1     -38.758 -15.846  10.460 -0.23 +0.00    +0.004 A  
DOCKED: ATOM      4  C   UNL     1     -38.047 -17.026  10.623 -0.23 +0.00    +0.006 A  
DOCKED: ATOM      5  C   UNL     1     -36.769 -16.751  11.317 -0.09 +0.00    +0.169 C  
DOCKED: ATOM      6  C   UNL     1     -40.006 -15.845   9.852 -0.27 -0.00    -0.001 A  
DOCKED: ATOM      7  C   UNL     1     -38.552 -18.238  10.184 -0.33 +0.00    +0.008 A  
DOCKED: ATOM      8  C   UNL     1     -40.527 -17.059   9.401 -0.28 +0.00    +0.010 A  
DOCKED: ATOM      9  C   UNL     1     -39.803 -18.249   9.566 -0.31 +0.00    +0.068 A  
DOCKED: ATOM     10  N   UNL     1     -40.801 -20.486   8.720 -2.58 -0.00    -0.191 NA 
DOCKED: ATOM     11  C   UNL     1     -40.353 -19.482   9.099 -0.33 +0.00    +0.101 C  
DOCKED: ENDROOT
DOCKED: BRANCH   2  12
DOCKED: ATOM     12  C   UNL     1     -38.632 -14.090  12.265 -0.05 +0.00    +0.038 C  
DOCKED: BRANCH  12  13
DOCKED: ATOM     13  C   UNL     1     -38.140 -14.758  13.548 -0.03 +0.00    +0.038 C  
DOCKED: BRANCH  13  14
DOCKED: ATOM     14  C   UNL     1     -38.986 -15.984  13.888 -0.01 +0.00    +0.251 C  
DOCKED: BRANCH  14  15
DOCKED: ATOM     15  N   UNL     1     -38.245 -16.884  14.765 -0.03 +0.00    +0.141 N  
DOCKED: ATOM     16  C   UNL     1     -38.220 -18.238  14.211 -0.08 +0.00    +0.285 C  
DOCKED: ATOM     17  C   UNL     1     -36.881 -16.394  14.972 -0.02 +0.00    +0.285 C  
DOCKED: ENDBRANCH  14  15
DOCKED: ENDBRANCH  13  14
DOCKED: ENDBRANCH  12  13
DOCKED: ENDBRANCH   2  12
DOCKED: BRANCH   2  18
DOCKED: ATOM     18  C   UNL     1     -37.651 -13.653  10.021 -0.16 +0.00    +0.006 A  
DOCKED: ATOM     19  C   UNL     1     -36.513 -13.781   9.225 -0.16 +0.00    +0.001 A  
DOCKED: ATOM     20  C   UNL     1     -36.212 -12.800   8.280 -0.13 +0.00    +0.029 A  
DOCKED: ATOM     21  C   UNL     1     -37.048 -11.695   8.130 -0.06 +0.00    +0.140 A  
DOCKED: ATOM     22  C   UNL     1     -38.186 -11.568   8.926 -0.10 +0.00    +0.029 A  
DOCKED: ATOM     23  F   UNL     1     -36.759 -10.754   7.221 -0.02 -0.00    -0.204 F  
DOCKED: ATOM     24  C   UNL     1     -38.488 -12.548   9.873 -0.13 +0.00    +0.001 A  
DOCKED: ENDBRANCH   2  18
DOCKED: TORSDOF 5
DOCKED: TER
DOCKED: ENDMDL
________________________________________________________________________________


    FINAL DOCKED STATE:
    ________________________


Run:   333 / 512
Time taken for this run:   0.002s

DOCKED: MODEL        333
DOCKED: USER    Run = 333
DOCKED: USER
DOCKED: USER    Estimated Free Energy of Binding    =  -3.52 kcal/mol  [=(1)+(2)+(3)-(4)]
DOCKED: USER
DOCKED: USER    (1) Final Intermolecular Energy     =  -5.01 kcal/mol
DOCKED: USER        vdW + Hbond + desolv Energy     =  -5.01 kcal/mol
DOCKED: USER        Electrostatic Energy            =  +0.00 kcal/mol
DOCKED: USER        Moving Ligand-Fixed Receptor    =  -5.01 kcal/mol
DOCKED: USER        Moving Ligand-Moving Receptor   =  +0.00 kcal/mol
DOCKED: USER    (2) Final Total Internal Energy     =  -1.37 kcal/mol
DOCKED: USER    (3) Torsional Free Energy           =  +1.49 kcal/mol
DOCKED: USER    (4) Unbound System's Energy         =  -1.37 kcal/mol
DOCKED: USER
DOCKED: USER
DOCKED: REMARK  5 active torsions:
DOCKED: REMARK  status: ('A' for Active; 'I' for Inactive)
DOCKED: REMARK    1  A    between atoms: C_2  and  C_19 
DOCKED: REMARK    2  A    between atoms: C_2  and  C_11 
DOCKED: REMARK    3  A    between atoms: C_19  and  C_20 
DOCKED: REMARK    4  A    between atoms: C_20  and  C_21 
DOCKED: REMARK    5  A    between atoms: C_21  and  N_22 
DOCKED: USER                              x       y       z     vdW  Elec       q    Type
DOCKED: USER                           _______ _______ _______ _____ _____    ______ ____
DOCKED: ROOT
DOCKED: ATOM      1  O   UNL     1     -41.652 -13.152  10.642 -0.09 -0.00    -0.346 OA 
DOCKED: ATOM      2  C   UNL     1     -40.244 -13.421  10.346 -0.18 +0.00    +0.130 C  
DOCKED: ATOM      3  C   UNL     1     -40.204 -14.903  10.107 -0.22 +0.00    +0.004 A  
DOCKED: ATOM      4  C   UNL     1     -41.492 -15.418  10.153 -0.21 +0.00    +0.006 A  
DOCKED: ATOM      5  C   UNL     1     -42.461 -14.328  10.408 -0.19 +0.00    +0.169 C  
DOCKED: ATOM      6  C   UNL     1     -39.117 -15.727   9.859 -0.27 -0.00    -0.001 A  
DOCKED: ATOM      7  C   UNL     1     -41.736 -16.767   9.957 -0.22 +0.00    +0.008 A  
DOCKED: ATOM      8  C   UNL     1     -39.346 -17.090   9.663 -0.32 +0.00    +0.010 A  
DOCKED: ATOM      9  C   UNL     1     -40.649 -17.607   9.711 -0.24 +0.00    +0.068 A  
DOCKED: ATOM     10  N   UNL     1     -41.040 -20.141   9.339 -2.28 -0.00    -0.191 NA 
DOCKED: ATOM     11  C   UNL     1     -40.864 -19.005   9.507 -0.32 +0.00    +0.101 C  
DOCKED: ENDROOT
DOCKED: BRANCH   2  12
DOCKED: ATOM     12  C   UNL     1     -39.845 -12.611   9.118 +0.11 +0.00    +0.038 C  
DOCKED: BRANCH  12  13
DOCKED: ATOM     13  C   UNL     1     -39.383 -11.208   9.504 -0.13 +0.00    +0.038 C  
DOCKED: BRANCH  13  14
DOCKED: ATOM     14  C   UNL     1     -40.408 -10.156   9.082 -0.08 +0.00    +0.251 C  
DOCKED: BRANCH  14  15
DOCKED: ATOM     15  N   UNL     1     -41.751 -10.575   9.466 -0.11 +0.00    +0.141 N  
DOCKED: ATOM     16  C   UNL     1     -42.159  -9.923  10.711 -0.02 +0.00    +0.285 C  
DOCKED: ATOM     17  C   UNL     1     -42.708 -10.276   8.399 -0.08 +0.00    +0.285 C  
DOCKED: ENDBRANCH  14  15
DOCKED: ENDBRANCH  13  14
DOCKED: ENDBRANCH  12  13
DOCKED: ENDBRANCH   2  12
DOCKED: BRANCH   2  18
DOCKED: ATOM     18  C   UNL     1     -39.459 -13.004  11.545 -0.07 +0.00    +0.006 A  
DOCKED: ATOM     19  C   UNL     1     -40.118 -12.534  12.680 -0.02 +0.00    +0.001 A  
DOCKED: ATOM     20  C   UNL     1     -39.383 -12.144  13.800 -0.00 +0.00    +0.029 A  
DOCKED: ATOM     21  C   UNL     1     -37.991 -12.225  13.784 -0.00 +0.00    +0.140 A  
DOCKED: ATOM     22  C   UNL     1     -37.333 -12.695  12.648 -0.02 +0.00    +0.029 A  
DOCKED: ATOM     23  F   UNL     1     -37.286 -11.852  14.859 +0.00 -0.00    -0.204 F  
DOCKED: ATOM     24  C   UNL     1     -38.068 -13.085  11.527 -0.06 +0.00    +0.001 A  
DOCKED: ENDBRANCH   2  18
DOCKED: TORSDOF 5
DOCKED: TER
DOCKED: ENDMDL
________________________________________________________________________________


    FINAL DOCKED STATE:
    ________________________


Run:   334 / 512
Time taken for this run:   0.002s

DOCKED: MODEL        334
DOCKED: USER    Run = 334
DOCKED: USER
DOCKED: USER    Estimated Free Energy of Binding    =  -5.18 kcal/mol  [=(1)+(2)+(3)-(4)]
DOCKED: USER
DOCKED: USER    (1) Final Intermolecular Energy     =  -6.68 kcal/mol
DOCKED: USER        vdW + Hbond + desolv Energy     =  -6.68 kcal/mol
DOCKED: USER        Electrostatic Energy            =  +0.00 kcal/mol
DOCKED: USER        Moving Ligand-Fixed Receptor    =  -6.68 kcal/mol
DOCKED: USER        Moving Ligand-Moving Receptor   =  +0.00 kcal/mol
DOCKED: USER    (2) Final Total Internal Energy     =  -1.36 kcal/mol
DOCKED: USER    (3) Torsional Free Energy           =  +1.49 kcal/mol
DOCKED: USER    (4) Unbound System's Energy         =  -1.36 kcal/mol
DOCKED: USER
DOCKED: USER
DOCKED: REMARK  5 active torsions:
DOCKED: REMARK  status: ('A' for Active; 'I' for Inactive)
DOCKED: REMARK    1  A    between atoms: C_2  and  C_19 
DOCKED: REMARK    2  A    between atoms: C_2  and  C_11 
DOCKED: REMARK    3  A    between atoms: C_19  and  C_20 
DOCKED: REMARK    4  A    between atoms: C_20  and  C_21 
DOCKED: REMARK    5  A    between atoms: C_21  and  N_22 
DOCKED: USER                              x       y       z     vdW  Elec       q    Type
DOCKED: USER                           _______ _______ _______ _____ _____    ______ ____
DOCKED: ROOT
DOCKED: ATOM      1  O   UNL     1     -38.837 -18.561  11.519 -0.09 -0.00    -0.346 OA 
DOCKED: ATOM      2  C   UNL     1     -40.243 -18.154  11.495 -0.15 +0.00    +0.130 C  
DOCKED: ATOM      3  C   UNL     1     -40.637 -18.308  10.055 -0.27 +0.00    +0.004 A  
DOCKED: ATOM      4  C   UNL     1     -39.584 -18.860   9.339 -0.41 +0.00    +0.006 A  
DOCKED: ATOM      5  C   UNL     1     -38.441 -19.117  10.244 -0.33 +0.00    +0.169 C  
DOCKED: ATOM      6  C   UNL     1     -41.836 -17.996   9.430 -0.28 -0.00    -0.001 A  
DOCKED: ATOM      7  C   UNL     1     -39.689 -19.113   7.982 -0.43 +0.00    +0.008 A  
DOCKED: ATOM      8  C   UNL     1     -41.956 -18.242   8.061 -0.25 +0.00    +0.010 A  
DOCKED: ATOM      9  C   UNL     1     -40.888 -18.797   7.341 -0.41 +0.00    +0.068 A  
DOCKED: ATOM     10  N   UNL     1     -41.147 -19.244   4.802 -2.84 -0.00    -0.191 NA 
DOCKED: ATOM     11  C   UNL     1     -41.031 -19.043   5.941 -0.29 +0.00    +0.101 C  
DOCKED: ENDROOT
DOCKED: BRANCH   2  12
DOCKED: ATOM     12  C   UNL     1     -41.027 -19.071  12.426 -0.22 +0.00    +0.038 C  
DOCKED: BRANCH  12  13
DOCKED: ATOM     13  C   UNL     1     -40.137 -19.634  13.533 -0.14 +0.00    +0.038 C  
DOCKED: BRANCH  13  14
DOCKED: ATOM     14  C   UNL     1     -39.995 -18.638  14.683 -0.07 +0.00    +0.251 C  
DOCKED: BRANCH  14  15
DOCKED: ATOM     15  N   UNL     1     -38.776 -18.906  15.438 -0.10 +0.00    +0.141 N  
DOCKED: ATOM     16  C   UNL     1     -37.639 -19.088  14.534 +0.00 +0.00    +0.285 C  
DOCKED: ATOM     17  C   UNL     1     -38.505 -17.819  16.381 -0.02 +0.00    +0.285 C  
DOCKED: ENDBRANCH  14  15
DOCKED: ENDBRANCH  13  14
DOCKED: ENDBRANCH  12  13
DOCKED: ENDBRANCH   2  12
DOCKED: BRANCH   2  18
DOCKED: ATOM     18  C   UNL     1     -40.295 -16.739  11.964 -0.10 +0.00    +0.006 A  
DOCKED: ATOM     19  C   UNL     1     -41.516 -16.067  12.018 -0.08 +0.00    +0.001 A  
DOCKED: ATOM     20  C   UNL     1     -41.564 -14.744  12.457 -0.05 +0.00    +0.029 A  
DOCKED: ATOM     21  C   UNL     1     -40.392 -14.093  12.841 -0.02 +0.00    +0.140 A  
DOCKED: ATOM     22  C   UNL     1     -39.171 -14.766  12.787 -0.03 +0.00    +0.029 A  
DOCKED: ATOM     23  F   UNL     1     -40.438 -12.823  13.263 +0.00 -0.00    -0.204 F  
DOCKED: ATOM     24  C   UNL     1     -39.122 -16.090  12.348 -0.08 +0.00    +0.001 A  
DOCKED: ENDBRANCH   2  18
DOCKED: TORSDOF 5
DOCKED: TER
DOCKED: ENDMDL
________________________________________________________________________________


    FINAL DOCKED STATE:
    ________________________


Run:   335 / 512
Time taken for this run:   0.002s

DOCKED: MODEL        335
DOCKED: USER    Run = 335
DOCKED: USER
DOCKED: USER    Estimated Free Energy of Binding    =  -3.64 kcal/mol  [=(1)+(2)+(3)-(4)]
DOCKED: USER
DOCKED: USER    (1) Final Intermolecular Energy     =  -5.14 kcal/mol
DOCKED: USER        vdW + Hbond + desolv Energy     =  -5.14 kcal/mol
DOCKED: USER        Electrostatic Energy            =  +0.00 kcal/mol
DOCKED: USER        Moving Ligand-Fixed Receptor    =  -5.14 kcal/mol
DOCKED: USER        Moving Ligand-Moving Receptor   =  +0.00 kcal/mol
DOCKED: USER    (2) Final Total Internal Energy     =  -1.33 kcal/mol
DOCKED: USER    (3) Torsional Free Energy           =  +1.49 kcal/mol
DOCKED: USER    (4) Unbound System's Energy         =  -1.33 kcal/mol
DOCKED: USER
DOCKED: USER
DOCKED: REMARK  5 active torsions:
DOCKED: REMARK  status: ('A' for Active; 'I' for Inactive)
DOCKED: REMARK    1  A    between atoms: C_2  and  C_19 
DOCKED: REMARK    2  A    between atoms: C_2  and  C_11 
DOCKED: REMARK    3  A    between atoms: C_19  and  C_20 
DOCKED: REMARK    4  A    between atoms: C_20  and  C_21 
DOCKED: REMARK    5  A    between atoms: C_21  and  N_22 
DOCKED: USER                              x       y       z     vdW  Elec       q    Type
DOCKED: USER                           _______ _______ _______ _____ _____    ______ ____
DOCKED: ROOT
DOCKED: ATOM      1  O   UNL     1     -32.032  -9.609   0.062 +0.01 -0.00    -0.346 OA 
DOCKED: ATOM      2  C   UNL     1     -32.244  -8.377   0.823 -0.03 +0.00    +0.130 C  
DOCKED: ATOM      3  C   UNL     1     -33.586  -7.892   0.355 -0.10 +0.00    +0.004 A  
DOCKED: ATOM      4  C   UNL     1     -34.142  -8.822  -0.512 -0.13 +0.00    +0.006 A  
DOCKED: ATOM      5  C   UNL     1     -33.226  -9.974  -0.668 -0.06 +0.00    +0.169 C  
DOCKED: ATOM      6  C   UNL     1     -34.266  -6.728   0.681 -0.20 -0.00    -0.001 A  
DOCKED: ATOM      7  C   UNL     1     -35.386  -8.619  -1.085 -0.22 +0.00    +0.008 A  
DOCKED: ATOM      8  C   UNL     1     -35.520  -6.507   0.109 -0.32 +0.00    +0.010 A  
DOCKED: ATOM      9  C   UNL     1     -36.077  -7.448  -0.769 -0.33 +0.00    +0.068 A  
DOCKED: ATOM     10  N   UNL     1     -38.409  -7.010  -1.810 -2.56 -0.00    -0.191 NA 
DOCKED: ATOM     11  C   UNL     1     -37.363  -7.206  -1.344 -0.38 +0.00    +0.101 C  
DOCKED: ENDROOT
DOCKED: BRANCH   2  12
DOCKED: ATOM     12  C   UNL     1     -32.220  -8.717   2.308 -0.05 +0.00    +0.038 C  
DOCKED: BRANCH  12  13
DOCKED: ATOM     13  C   UNL     1     -33.272  -9.768   2.656 -0.07 +0.00    +0.038 C  
DOCKED: BRANCH  13  14
DOCKED: ATOM     14  C   UNL     1     -34.318  -9.203   3.614 -0.11 +0.00    +0.251 C  
DOCKED: BRANCH  14  15
DOCKED: ATOM     15  N   UNL     1     -35.650  -9.305   3.028 -0.17 +0.00    +0.141 N  
DOCKED: ATOM     16  C   UNL     1     -35.667 -10.301   1.956 -0.16 +0.00    +0.285 C  
DOCKED: ATOM     17  C   UNL     1     -36.639  -9.644   4.052 -0.17 +0.00    +0.285 C  
DOCKED: ENDBRANCH  14  15
DOCKED: ENDBRANCH  13  14
DOCKED: ENDBRANCH  12  13
DOCKED: ENDBRANCH   2  12
DOCKED: BRANCH   2  18
DOCKED: ATOM     18  C   UNL     1     -31.133  -7.447   0.465 -0.02 +0.00    +0.006 A  
DOCKED: ATOM     19  C   UNL     1     -30.081  -7.892  -0.334 -0.01 +0.00    +0.001 A  
DOCKED: ATOM     20  C   UNL     1     -29.043  -7.022  -0.667 -0.00 +0.00    +0.029 A  
DOCKED: ATOM     21  C   UNL     1     -29.059  -5.707  -0.202 -0.00 +0.00    +0.140 A  
DOCKED: ATOM     22  C   UNL     1     -30.111  -5.262   0.597 -0.02 +0.00    +0.029 A  
DOCKED: ATOM     23  F   UNL     1     -28.063  -4.871  -0.523 +0.00 -0.00    -0.204 F  
DOCKED: ATOM     24  C   UNL     1     -31.150  -6.133   0.931 -0.03 +0.00    +0.001 A  
DOCKED: ENDBRANCH   2  18
DOCKED: TORSDOF 5
DOCKED: TER
DOCKED: ENDMDL
________________________________________________________________________________


    FINAL DOCKED STATE:
    ________________________


Run:   336 / 512
Time taken for this run:   0.002s

DOCKED: MODEL        336
DOCKED: USER    Run = 336
DOCKED: USER
DOCKED: USER    Estimated Free Energy of Binding    =  -3.89 kcal/mol  [=(1)+(2)+(3)-(4)]
DOCKED: USER
DOCKED: USER    (1) Final Intermolecular Energy     =  -5.38 kcal/mol
DOCKED: USER        vdW + Hbond + desolv Energy     =  -5.38 kcal/mol
DOCKED: USER        Electrostatic Energy            =  +0.00 kcal/mol
DOCKED: USER        Moving Ligand-Fixed Receptor    =  -5.38 kcal/mol
DOCKED: USER        Moving Ligand-Moving Receptor   =  +0.00 kcal/mol
DOCKED: USER    (2) Final Total Internal Energy     =  -1.19 kcal/mol
DOCKED: USER    (3) Torsional Free Energy           =  +1.49 kcal/mol
DOCKED: USER    (4) Unbound System's Energy         =  -1.19 kcal/mol
DOCKED: USER
DOCKED: USER
DOCKED: REMARK  5 active torsions:
DOCKED: REMARK  status: ('A' for Active; 'I' for Inactive)
DOCKED: REMARK    1  A    between atoms: C_2  and  C_19 
DOCKED: REMARK    2  A    between atoms: C_2  and  C_11 
DOCKED: REMARK    3  A    between atoms: C_19  and  C_20 
DOCKED: REMARK    4  A    between atoms: C_20  and  C_21 
DOCKED: REMARK    5  A    between atoms: C_21  and  N_22 
DOCKED: USER                              x       y       z     vdW  Elec       q    Type
DOCKED: USER                           _______ _______ _______ _____ _____    ______ ____
DOCKED: ROOT
DOCKED: ATOM      1  O   UNL     1     -37.778 -14.988  11.910 -0.02 -0.00    -0.346 OA 
DOCKED: ATOM      2  C   UNL     1     -39.144 -14.612  11.543 -0.09 +0.00    +0.130 C  
DOCKED: ATOM      3  C   UNL     1     -39.660 -15.811  10.802 -0.19 +0.00    +0.004 A  
DOCKED: ATOM      4  C   UNL     1     -38.714 -16.826  10.839 -0.23 +0.00    +0.006 A  
DOCKED: ATOM      5  C   UNL     1     -37.529 -16.380  11.606 -0.15 +0.00    +0.169 C  
DOCKED: ATOM      6  C   UNL     1     -40.874 -15.994  10.157 -0.23 -0.00    -0.001 A  
DOCKED: ATOM      7  C   UNL     1     -38.945 -18.049  10.234 -0.32 +0.00    +0.008 A  
DOCKED: ATOM      8  C   UNL     1     -41.121 -17.221   9.538 -0.25 +0.00    +0.010 A  
DOCKED: ATOM      9  C   UNL     1     -40.160 -18.243   9.576 -0.29 +0.00    +0.068 A  
DOCKED: ATOM     10  N   UNL     1     -40.651 -20.509   8.421 -2.43 -0.00    -0.191 NA 
DOCKED: ATOM     11  C   UNL     1     -40.431 -19.493   8.938 -0.37 +0.00    +0.101 C  
DOCKED: ENDROOT
DOCKED: BRANCH   2  12
DOCKED: ATOM     12  C   UNL     1     -39.925 -14.321  12.819 -0.04 +0.00    +0.038 C  
DOCKED: BRANCH  12  13
DOCKED: ATOM     13  C   UNL     1     -39.984 -15.547  13.727 -0.03 +0.00    +0.038 C  
DOCKED: BRANCH  13  14
DOCKED: ATOM     14  C   UNL     1     -41.352 -16.222  13.650 -0.01 +0.00    +0.251 C  
DOCKED: BRANCH  14  15
DOCKED: ATOM     15  N   UNL     1     -42.389 -15.326  14.146 -0.01 +0.00    +0.141 N  
DOCKED: ATOM     16  C   UNL     1     -43.607 -15.451  13.343 +0.00 +0.00    +0.285 C  
DOCKED: ATOM     17  C   UNL     1     -42.679 -15.601  15.554 +0.00 +0.00    +0.285 C  
DOCKED: ENDBRANCH  14  15
DOCKED: ENDBRANCH  13  14
DOCKED: ENDBRANCH  12  13
DOCKED: ENDBRANCH   2  12
DOCKED: BRANCH   2  18
DOCKED: ATOM     18  C   UNL     1     -39.045 -13.396  10.683 -0.13 +0.00    +0.006 A  
DOCKED: ATOM     19  C   UNL     1     -37.897 -13.170   9.925 -0.14 +0.00    +0.001 A  
DOCKED: ATOM     20  C   UNL     1     -37.805 -12.033   9.121 -0.10 +0.00    +0.029 A  
DOCKED: ATOM     21  C   UNL     1     -38.861 -11.124   9.077 -0.10 +0.00    +0.140 A  
DOCKED: ATOM     22  C   UNL     1     -40.010 -11.350   9.835 -0.13 +0.00    +0.029 A  
DOCKED: ATOM     23  F   UNL     1     -38.774 -10.033   8.305 -0.02 -0.00    -0.204 F  
DOCKED: ATOM     24  C   UNL     1     -40.102 -12.488  10.640 -0.13 +0.00    +0.001 A  
DOCKED: ENDBRANCH   2  18
DOCKED: TORSDOF 5
DOCKED: TER
DOCKED: ENDMDL
________________________________________________________________________________


    FINAL DOCKED STATE:
    ________________________


Run:   337 / 512
Time taken for this run:   0.002s

DOCKED: MODEL        337
DOCKED: USER    Run = 337
DOCKED: USER
DOCKED: USER    Estimated Free Energy of Binding    =  -3.85 kcal/mol  [=(1)+(2)+(3)-(4)]
DOCKED: USER
DOCKED: USER    (1) Final Intermolecular Energy     =  -5.34 kcal/mol
DOCKED: USER        vdW + Hbond + desolv Energy     =  -5.34 kcal/mol
DOCKED: USER        Electrostatic Energy            =  +0.00 kcal/mol
DOCKED: USER        Moving Ligand-Fixed Receptor    =  -5.34 kcal/mol
DOCKED: USER        Moving Ligand-Moving Receptor   =  +0.00 kcal/mol
DOCKED: USER    (2) Final Total Internal Energy     =  -1.30 kcal/mol
DOCKED: USER    (3) Torsional Free Energy           =  +1.49 kcal/mol
DOCKED: USER    (4) Unbound System's Energy         =  -1.30 kcal/mol
DOCKED: USER
DOCKED: USER
DOCKED: REMARK  5 active torsions:
DOCKED: REMARK  status: ('A' for Active; 'I' for Inactive)
DOCKED: REMARK    1  A    between atoms: C_2  and  C_19 
DOCKED: REMARK    2  A    between atoms: C_2  and  C_11 
DOCKED: REMARK    3  A    between atoms: C_19  and  C_20 
DOCKED: REMARK    4  A    between atoms: C_20  and  C_21 
DOCKED: REMARK    5  A    between atoms: C_21  and  N_22 
DOCKED: USER                              x       y       z     vdW  Elec       q    Type
DOCKED: USER                           _______ _______ _______ _____ _____    ______ ____
DOCKED: ROOT
DOCKED: ATOM      1  O   UNL     1     -37.686 -15.575  12.602 -0.02 -0.00    -0.346 OA 
DOCKED: ATOM      2  C   UNL     1     -37.954 -14.983  11.291 -0.12 +0.00    +0.130 C  
DOCKED: ATOM      3  C   UNL     1     -38.631 -16.085  10.530 -0.23 +0.00    +0.004 A  
DOCKED: ATOM      4  C   UNL     1     -38.832 -17.175  11.366 -0.19 +0.00    +0.006 A  
DOCKED: ATOM      5  C   UNL     1     -38.322 -16.869  12.721 -0.09 +0.00    +0.169 C  
DOCKED: ATOM      6  C   UNL     1     -39.047 -16.118   9.207 -0.15 -0.00    -0.001 A  
DOCKED: ATOM      7  C   UNL     1     -39.447 -18.329  10.911 -0.26 +0.00    +0.008 A  
DOCKED: ATOM      8  C   UNL     1     -39.664 -17.276   8.732 -0.34 +0.00    +0.010 A  
DOCKED: ATOM      9  C   UNL     1     -39.864 -18.375   9.580 -0.31 +0.00    +0.068 A  
DOCKED: ATOM     10  N   UNL     1     -41.018 -20.508   8.667 -2.52 -0.00    -0.191 NA 
DOCKED: ATOM     11  C   UNL     1     -40.500 -19.552   9.076 -0.31 +0.00    +0.101 C  
DOCKED: ENDROOT
DOCKED: BRANCH   2  12
DOCKED: ATOM     12  C   UNL     1     -38.846 -13.762  11.487 -0.09 +0.00    +0.038 C  
DOCKED: BRANCH  12  13
DOCKED: ATOM     13  C   UNL     1     -39.362 -13.674  12.922 -0.03 +0.00    +0.038 C  
DOCKED: BRANCH  13  14
DOCKED: ATOM     14  C   UNL     1     -38.494 -12.739  13.761 -0.00 +0.00    +0.251 C  
DOCKED: BRANCH  14  15
DOCKED: ATOM     15  N   UNL     1     -38.559 -13.114  15.169 -0.00 +0.00    +0.141 N  
DOCKED: ATOM     16  C   UNL     1     -39.950 -13.273  15.597 +0.00 +0.00    +0.285 C  
DOCKED: ATOM     17  C   UNL     1     -37.810 -14.348  15.409 -0.00 +0.00    +0.285 C  
DOCKED: ENDBRANCH  14  15
DOCKED: ENDBRANCH  13  14
DOCKED: ENDBRANCH  12  13
DOCKED: ENDBRANCH   2  12
DOCKED: BRANCH   2  18
DOCKED: ATOM     18  C   UNL     1     -36.636 -14.598  10.708 -0.14 +0.00    +0.006 A  
DOCKED: ATOM     19  C   UNL     1     -35.460 -15.134  11.230 -0.11 +0.00    +0.001 A  
DOCKED: ATOM     20  C   UNL     1     -34.227 -14.773  10.684 -0.10 +0.00    +0.029 A  
DOCKED: ATOM     21  C   UNL     1     -34.173 -13.877   9.617 -0.07 +0.00    +0.140 A  
DOCKED: ATOM     22  C   UNL     1     -35.350 -13.342   9.095 -0.11 +0.00    +0.029 A  
DOCKED: ATOM     23  F   UNL     1     -32.990 -13.532   9.092 -0.01 -0.00    -0.204 F  
DOCKED: ATOM     24  C   UNL     1     -36.583 -13.702   9.641 -0.15 +0.00    +0.001 A  
DOCKED: ENDBRANCH   2  18
DOCKED: TORSDOF 5
DOCKED: TER
DOCKED: ENDMDL
________________________________________________________________________________


    FINAL DOCKED STATE:
    ________________________


Run:   338 / 512
Time taken for this run:   0.002s

DOCKED: MODEL        338
DOCKED: USER    Run = 338
DOCKED: USER
DOCKED: USER    Estimated Free Energy of Binding    =  -4.95 kcal/mol  [=(1)+(2)+(3)-(4)]
DOCKED: USER
DOCKED: USER    (1) Final Intermolecular Energy     =  -6.44 kcal/mol
DOCKED: USER        vdW + Hbond + desolv Energy     =  -6.44 kcal/mol
DOCKED: USER        Electrostatic Energy            =  +0.00 kcal/mol
DOCKED: USER        Moving Ligand-Fixed Receptor    =  -6.44 kcal/mol
DOCKED: USER        Moving Ligand-Moving Receptor   =  +0.00 kcal/mol
DOCKED: USER    (2) Final Total Internal Energy     =  -1.28 kcal/mol
DOCKED: USER    (3) Torsional Free Energy           =  +1.49 kcal/mol
DOCKED: USER    (4) Unbound System's Energy         =  -1.28 kcal/mol
DOCKED: USER
DOCKED: USER
DOCKED: REMARK  5 active torsions:
DOCKED: REMARK  status: ('A' for Active; 'I' for Inactive)
DOCKED: REMARK    1  A    between atoms: C_2  and  C_19 
DOCKED: REMARK    2  A    between atoms: C_2  and  C_11 
DOCKED: REMARK    3  A    between atoms: C_19  and  C_20 
DOCKED: REMARK    4  A    between atoms: C_20  and  C_21 
DOCKED: REMARK    5  A    between atoms: C_21  and  N_22 
DOCKED: USER                              x       y       z     vdW  Elec       q    Type
DOCKED: USER                           _______ _______ _______ _____ _____    ______ ____
DOCKED: ROOT
DOCKED: ATOM      1  O   UNL     1     -40.723 -18.967  12.067 -0.09 -0.00    -0.346 OA 
DOCKED: ATOM      2  C   UNL     1     -40.140 -17.740  11.523 -0.13 +0.00    +0.130 C  
DOCKED: ATOM      3  C   UNL     1     -40.245 -17.921  10.036 -0.28 +0.00    +0.004 A  
DOCKED: ATOM      4  C   UNL     1     -40.928 -19.096   9.756 -0.30 +0.00    +0.006 A  
DOCKED: ATOM      5  C   UNL     1     -41.327 -19.758  11.018 -0.10 +0.00    +0.169 C  
DOCKED: ATOM      6  C   UNL     1     -39.783 -17.105   9.013 -0.34 -0.00    -0.001 A  
DOCKED: ATOM      7  C   UNL     1     -41.167 -19.497   8.452 -0.41 +0.00    +0.008 A  
DOCKED: ATOM      8  C   UNL     1     -40.013 -17.498   7.694 -0.19 +0.00    +0.010 A  
DOCKED: ATOM      9  C   UNL     1     -40.702 -18.687   7.415 -0.42 +0.00    +0.068 A  
DOCKED: ATOM     10  N   UNL     1     -41.117 -19.384   4.954 -2.66 -0.00    -0.191 NA 
DOCKED: ATOM     11  C   UNL     1     -40.931 -19.072   6.058 -0.32 +0.00    +0.101 C  
DOCKED: ENDROOT
DOCKED: BRANCH   2  12
DOCKED: ATOM     12  C   UNL     1     -40.948 -16.553  12.034 -0.10 +0.00    +0.038 C  
DOCKED: BRANCH  12  13
DOCKED: ATOM     13  C   UNL     1     -40.543 -15.259  11.331 -0.14 +0.00    +0.038 C  
DOCKED: BRANCH  13  14
DOCKED: ATOM     14  C   UNL     1     -40.042 -14.222  12.335 -0.03 +0.00    +0.251 C  
DOCKED: BRANCH  14  15
DOCKED: ATOM     15  N   UNL     1     -38.644 -14.473  12.668 -0.02 +0.00    +0.141 N  
DOCKED: ATOM     16  C   UNL     1     -37.765 -13.990  11.602 -0.05 +0.00    +0.285 C  
DOCKED: ATOM     17  C   UNL     1     -38.296 -13.838  13.940 -0.00 +0.00    +0.285 C  
DOCKED: ENDBRANCH  14  15
DOCKED: ENDBRANCH  13  14
DOCKED: ENDBRANCH  12  13
DOCKED: ENDBRANCH   2  12
DOCKED: BRANCH   2  18
DOCKED: ATOM     18  C   UNL     1     -38.728 -17.677  12.003 -0.17 +0.00    +0.006 A  
DOCKED: ATOM     19  C   UNL     1     -37.682 -17.625  11.083 -0.25 +0.00    +0.001 A  
DOCKED: ATOM     20  C   UNL     1     -36.362 -17.567  11.533 -0.11 +0.00    +0.029 A  
DOCKED: ATOM     21  C   UNL     1     -36.092 -17.561  12.901 -0.08 +0.00    +0.140 A  
DOCKED: ATOM     22  C   UNL     1     -37.139 -17.612  13.820 -0.11 +0.00    +0.029 A  
DOCKED: ATOM     23  F   UNL     1     -34.825 -17.503  13.333 -0.03 -0.00    -0.204 F  
DOCKED: ATOM     24  C   UNL     1     -38.460 -17.671  13.371 -0.12 +0.00    +0.001 A  
DOCKED: ENDBRANCH   2  18
DOCKED: TORSDOF 5
DOCKED: TER
DOCKED: ENDMDL
________________________________________________________________________________


    FINAL DOCKED STATE:
    ________________________


Run:   339 / 512
Time taken for this run:   0.002s

DOCKED: MODEL        339
DOCKED: USER    Run = 339
DOCKED: USER
DOCKED: USER    Estimated Free Energy of Binding    =  -4.35 kcal/mol  [=(1)+(2)+(3)-(4)]
DOCKED: USER
DOCKED: USER    (1) Final Intermolecular Energy     =  -5.85 kcal/mol
DOCKED: USER        vdW + Hbond + desolv Energy     =  -5.85 kcal/mol
DOCKED: USER        Electrostatic Energy            =  +0.00 kcal/mol
DOCKED: USER        Moving Ligand-Fixed Receptor    =  -5.85 kcal/mol
DOCKED: USER        Moving Ligand-Moving Receptor   =  +0.00 kcal/mol
DOCKED: USER    (2) Final Total Internal Energy     =  -1.43 kcal/mol
DOCKED: USER    (3) Torsional Free Energy           =  +1.49 kcal/mol
DOCKED: USER    (4) Unbound System's Energy         =  -1.43 kcal/mol
DOCKED: USER
DOCKED: USER
DOCKED: REMARK  5 active torsions:
DOCKED: REMARK  status: ('A' for Active; 'I' for Inactive)
DOCKED: REMARK    1  A    between atoms: C_2  and  C_19 
DOCKED: REMARK    2  A    between atoms: C_2  and  C_11 
DOCKED: REMARK    3  A    between atoms: C_19  and  C_20 
DOCKED: REMARK    4  A    between atoms: C_20  and  C_21 
DOCKED: REMARK    5  A    between atoms: C_21  and  N_22 
DOCKED: USER                              x       y       z     vdW  Elec       q    Type
DOCKED: USER                           _______ _______ _______ _____ _____    ______ ____
DOCKED: ROOT
DOCKED: ATOM      1  O   UNL     1     -36.532 -10.357   4.276 -0.08 -0.00    -0.346 OA 
DOCKED: ATOM      2  C   UNL     1     -35.276  -9.891   3.687 -0.16 +0.00    +0.130 C  
DOCKED: ATOM      3  C   UNL     1     -35.703  -9.224   2.411 -0.22 +0.00    +0.004 A  
DOCKED: ATOM      4  C   UNL     1     -37.088  -9.211   2.332 -0.29 +0.00    +0.006 A  
DOCKED: ATOM      5  C   UNL     1     -37.666  -9.847   3.537 -0.24 +0.00    +0.169 C  
DOCKED: ATOM      6  C   UNL     1     -34.927  -8.664   1.407 -0.19 -0.00    -0.001 A  
DOCKED: ATOM      7  C   UNL     1     -37.743  -8.645   1.251 -0.30 +0.00    +0.008 A  
DOCKED: ATOM      8  C   UNL     1     -35.572  -8.093   0.308 -0.27 +0.00    +0.010 A  
DOCKED: ATOM      9  C   UNL     1     -36.973  -8.084   0.231 -0.31 +0.00    +0.068 A  
DOCKED: ATOM     10  N   UNL     1     -38.139  -7.012  -1.819 -2.55 -0.00    -0.191 NA 
DOCKED: ATOM     11  C   UNL     1     -37.616  -7.493  -0.900 -0.33 +0.00    +0.101 C  
DOCKED: ENDROOT
DOCKED: BRANCH   2  12
DOCKED: ATOM     12  C   UNL     1     -34.611  -8.930   4.665 -0.13 +0.00    +0.038 C  
DOCKED: BRANCH  12  13
DOCKED: ATOM     13  C   UNL     1     -35.446  -8.758   5.932 -0.09 +0.00    +0.038 C  
DOCKED: BRANCH  13  14
DOCKED: ATOM     14  C   UNL     1     -34.732  -9.350   7.145 -0.08 +0.00    +0.251 C  
DOCKED: BRANCH  14  15
DOCKED: ATOM     15  N   UNL     1     -35.518 -10.438   7.715 -0.04 +0.00    +0.141 N  
DOCKED: ATOM     16  C   UNL     1     -36.874 -10.438   7.165 -0.06 +0.00    +0.285 C  
DOCKED: ATOM     17  C   UNL     1     -34.869 -11.727   7.468 -0.03 +0.00    +0.285 C  
DOCKED: ENDBRANCH  14  15
DOCKED: ENDBRANCH  13  14
DOCKED: ENDBRANCH  12  13
DOCKED: ENDBRANCH   2  12
DOCKED: BRANCH   2  18
DOCKED: ATOM     18  C   UNL     1     -34.428 -11.098   3.457 -0.08 +0.00    +0.006 A  
DOCKED: ATOM     19  C   UNL     1     -33.218 -11.238   4.134 -0.03 +0.00    +0.001 A  
DOCKED: ATOM     20  C   UNL     1     -32.426 -12.367   3.918 -0.01 +0.00    +0.029 A  
DOCKED: ATOM     21  C   UNL     1     -32.846 -13.353   3.026 -0.04 +0.00    +0.140 A  
DOCKED: ATOM     22  C   UNL     1     -34.057 -13.212   2.350 -0.15 +0.00    +0.029 A  
DOCKED: ATOM     23  F   UNL     1     -32.087 -14.437   2.820 -0.01 -0.00    -0.204 F  
DOCKED: ATOM     24  C   UNL     1     -34.850 -12.083   2.565 -0.16 +0.00    +0.001 A  
DOCKED: ENDBRANCH   2  18
DOCKED: TORSDOF 5
DOCKED: TER
DOCKED: ENDMDL
________________________________________________________________________________


    FINAL DOCKED STATE:
    ________________________


Run:   340 / 512
Time taken for this run:   0.002s

DOCKED: MODEL        340
DOCKED: USER    Run = 340
DOCKED: USER
DOCKED: USER    Estimated Free Energy of Binding    =  -3.61 kcal/mol  [=(1)+(2)+(3)-(4)]
DOCKED: USER
DOCKED: USER    (1) Final Intermolecular Energy     =  -5.10 kcal/mol
DOCKED: USER        vdW + Hbond + desolv Energy     =  -5.10 kcal/mol
DOCKED: USER        Electrostatic Energy            =  +0.00 kcal/mol
DOCKED: USER        Moving Ligand-Fixed Receptor    =  -5.10 kcal/mol
DOCKED: USER        Moving Ligand-Moving Receptor   =  +0.00 kcal/mol
DOCKED: USER    (2) Final Total Internal Energy     =  -1.31 kcal/mol
DOCKED: USER    (3) Torsional Free Energy           =  +1.49 kcal/mol
DOCKED: USER    (4) Unbound System's Energy         =  -1.31 kcal/mol
DOCKED: USER
DOCKED: USER
DOCKED: REMARK  5 active torsions:
DOCKED: REMARK  status: ('A' for Active; 'I' for Inactive)
DOCKED: REMARK    1  A    between atoms: C_2  and  C_19 
DOCKED: REMARK    2  A    between atoms: C_2  and  C_11 
DOCKED: REMARK    3  A    between atoms: C_19  and  C_20 
DOCKED: REMARK    4  A    between atoms: C_20  and  C_21 
DOCKED: REMARK    5  A    between atoms: C_21  and  N_22 
DOCKED: USER                              x       y       z     vdW  Elec       q    Type
DOCKED: USER                           _______ _______ _______ _____ _____    ______ ____
DOCKED: ROOT
DOCKED: ATOM      1  O   UNL     1     -33.205  -7.129   3.055 -0.09 -0.00    -0.346 OA 
DOCKED: ATOM      2  C   UNL     1     -33.421  -8.479   2.533 -0.11 +0.00    +0.130 C  
DOCKED: ATOM      3  C   UNL     1     -34.456  -8.288   1.462 -0.16 +0.00    +0.004 A  
DOCKED: ATOM      4  C   UNL     1     -34.727  -6.936   1.309 -0.14 +0.00    +0.006 A  
DOCKED: ATOM      5  C   UNL     1     -33.893  -6.148   2.245 -0.03 +0.00    +0.169 C  
DOCKED: ATOM      6  C   UNL     1     -35.099  -9.235   0.678 -0.21 -0.00    -0.001 A  
DOCKED: ATOM      7  C   UNL     1     -35.646  -6.486   0.377 -0.33 +0.00    +0.008 A  
DOCKED: ATOM      8  C   UNL     1     -36.031  -8.798  -0.264 +0.01 +0.00    +0.010 A  
DOCKED: ATOM      9  C   UNL     1     -36.303  -7.430  -0.414 -0.35 +0.00    +0.068 A  
DOCKED: ATOM     10  N   UNL     1     -38.036  -6.651  -2.175 -2.55 -0.00    -0.191 NA 
DOCKED: ATOM     11  C   UNL     1     -37.259  -7.000  -1.385 -0.43 +0.00    +0.101 C  
DOCKED: ENDROOT
DOCKED: BRANCH   2  12
DOCKED: ATOM     12  C   UNL     1     -32.097  -9.004   1.992 -0.04 +0.00    +0.038 C  
DOCKED: BRANCH  12  13
DOCKED: ATOM     13  C   UNL     1     -30.983  -8.880   3.029 -0.02 +0.00    +0.038 C  
DOCKED: BRANCH  13  14
DOCKED: ATOM     14  C   UNL     1     -30.378  -7.478   3.021 -0.01 +0.00    +0.251 C  
DOCKED: BRANCH  14  15
DOCKED: ATOM     15  N   UNL     1     -29.897  -7.125   4.351 -0.02 +0.00    +0.141 N  
DOCKED: ATOM     16  C   UNL     1     -29.620  -5.690   4.437 -0.01 +0.00    +0.285 C  
DOCKED: ATOM     17  C   UNL     1     -30.870  -7.516   5.372 -0.05 +0.00    +0.285 C  
DOCKED: ENDBRANCH  14  15
DOCKED: ENDBRANCH  13  14
DOCKED: ENDBRANCH  12  13
DOCKED: ENDBRANCH   2  12
DOCKED: BRANCH   2  18
DOCKED: ATOM     18  C   UNL     1     -33.908  -9.314   3.670 -0.13 +0.00    +0.006 A  
DOCKED: ATOM     19  C   UNL     1     -33.928  -8.788   4.962 -0.09 +0.00    +0.001 A  
DOCKED: ATOM     20  C   UNL     1     -34.383  -9.570   6.024 -0.11 +0.00    +0.029 A  
DOCKED: ATOM     21  C   UNL     1     -34.817 -10.875   5.794 -0.05 +0.00    +0.140 A  
DOCKED: ATOM     22  C   UNL     1     -34.797 -11.399   4.502 -0.08 +0.00    +0.029 A  
DOCKED: ATOM     23  F   UNL     1     -35.255 -11.625   6.813 -0.01 -0.00    -0.204 F  
DOCKED: ATOM     24  C   UNL     1     -34.342 -10.618   3.438 -0.09 +0.00    +0.001 A  
DOCKED: ENDBRANCH   2  18
DOCKED: TORSDOF 5
DOCKED: TER
DOCKED: ENDMDL
________________________________________________________________________________


    FINAL DOCKED STATE:
    ________________________


Run:   341 / 512
Time taken for this run:   0.002s

DOCKED: MODEL        341
DOCKED: USER    Run = 341
DOCKED: USER
DOCKED: USER    Estimated Free Energy of Binding    =  -4.39 kcal/mol  [=(1)+(2)+(3)-(4)]
DOCKED: USER
DOCKED: USER    (1) Final Intermolecular Energy     =  -5.88 kcal/mol
DOCKED: USER        vdW + Hbond + desolv Energy     =  -5.88 kcal/mol
DOCKED: USER        Electrostatic Energy            =  +0.00 kcal/mol
DOCKED: USER        Moving Ligand-Fixed Receptor    =  -5.88 kcal/mol
DOCKED: USER        Moving Ligand-Moving Receptor   =  +0.00 kcal/mol
DOCKED: USER    (2) Final Total Internal Energy     =  -1.31 kcal/mol
DOCKED: USER    (3) Torsional Free Energy           =  +1.49 kcal/mol
DOCKED: USER    (4) Unbound System's Energy         =  -1.31 kcal/mol
DOCKED: USER
DOCKED: USER
DOCKED: REMARK  5 active torsions:
DOCKED: REMARK  status: ('A' for Active; 'I' for Inactive)
DOCKED: REMARK    1  A    between atoms: C_2  and  C_19 
DOCKED: REMARK    2  A    between atoms: C_2  and  C_11 
DOCKED: REMARK    3  A    between atoms: C_19  and  C_20 
DOCKED: REMARK    4  A    between atoms: C_20  and  C_21 
DOCKED: REMARK    5  A    between atoms: C_21  and  N_22 
DOCKED: USER                              x       y       z     vdW  Elec       q    Type
DOCKED: USER                           _______ _______ _______ _____ _____    ______ ____
DOCKED: ROOT
DOCKED: ATOM      1  O   UNL     1     -36.283 -16.458  11.919 -0.09 -0.00    -0.346 OA 
DOCKED: ATOM      2  C   UNL     1     -37.338 -15.571  11.425 -0.13 +0.00    +0.130 C  
DOCKED: ATOM      3  C   UNL     1     -38.273 -16.495  10.699 -0.23 +0.00    +0.004 A  
DOCKED: ATOM      4  C   UNL     1     -37.850 -17.807  10.858 -0.25 +0.00    +0.006 A  
DOCKED: ATOM      5  C   UNL     1     -36.632 -17.844  11.698 -0.13 +0.00    +0.169 C  
DOCKED: ATOM      6  C   UNL     1     -39.413 -16.198   9.967 -0.28 -0.00    -0.001 A  
DOCKED: ATOM      7  C   UNL     1     -38.545 -18.861  10.290 -0.37 +0.00    +0.008 A  
DOCKED: ATOM      8  C   UNL     1     -40.122 -17.250   9.384 -0.32 +0.00    +0.010 A  
DOCKED: ATOM      9  C   UNL     1     -39.690 -18.575   9.546 -0.32 +0.00    +0.068 A  
DOCKED: ATOM     10  N   UNL     1     -41.033 -20.504   8.456 -2.41 -0.00    -0.191 NA 
DOCKED: ATOM     11  C   UNL     1     -40.430 -19.639   8.944 -0.32 +0.00    +0.101 C  
DOCKED: ENDROOT
DOCKED: BRANCH   2  12
DOCKED: ATOM     12  C   UNL     1     -37.990 -14.885  12.619 -0.05 +0.00    +0.038 C  
DOCKED: BRANCH  12  13
DOCKED: ATOM     13  C   UNL     1     -38.574 -15.903  13.596 -0.05 +0.00    +0.038 C  
DOCKED: BRANCH  13  14
DOCKED: ATOM     14  C   UNL     1     -37.602 -16.189  14.739 -0.02 +0.00    +0.251 C  
DOCKED: BRANCH  14  15
DOCKED: ATOM     15  N   UNL     1     -37.790 -17.547  15.237 -0.05 +0.00    +0.141 N  
DOCKED: ATOM     16  C   UNL     1     -38.842 -18.231  14.485 -0.07 +0.00    +0.285 C  
DOCKED: ATOM     17  C   UNL     1     -36.538 -18.302  15.161 -0.08 +0.00    +0.285 C  
DOCKED: ENDBRANCH  14  15
DOCKED: ENDBRANCH  13  14
DOCKED: ENDBRANCH  12  13
DOCKED: ENDBRANCH   2  12
DOCKED: BRANCH   2  18
DOCKED: ATOM     18  C   UNL     1     -36.685 -14.577  10.523 -0.14 +0.00    +0.006 A  
DOCKED: ATOM     19  C   UNL     1     -35.295 -14.515  10.445 -0.11 +0.00    +0.001 A  
DOCKED: ATOM     20  C   UNL     1     -34.686 -13.585   9.602 -0.09 +0.00    +0.029 A  
DOCKED: ATOM     21  C   UNL     1     -35.468 -12.720   8.837 -0.08 +0.00    +0.140 A  
DOCKED: ATOM     22  C   UNL     1     -36.859 -12.783   8.915 -0.12 +0.00    +0.029 A  
DOCKED: ATOM     23  F   UNL     1     -34.883 -11.829   8.026 -0.00 -0.00    -0.204 F  
DOCKED: ATOM     24  C   UNL     1     -37.469 -13.713   9.759 -0.16 +0.00    +0.001 A  
DOCKED: ENDBRANCH   2  18
DOCKED: TORSDOF 5
DOCKED: TER
DOCKED: ENDMDL
________________________________________________________________________________


    FINAL DOCKED STATE:
    ________________________


Run:   342 / 512
Time taken for this run:   0.002s

DOCKED: MODEL        342
DOCKED: USER    Run = 342
DOCKED: USER
DOCKED: USER    Estimated Free Energy of Binding    =  -4.07 kcal/mol  [=(1)+(2)+(3)-(4)]
DOCKED: USER
DOCKED: USER    (1) Final Intermolecular Energy     =  -5.56 kcal/mol
DOCKED: USER        vdW + Hbond + desolv Energy     =  -5.56 kcal/mol
DOCKED: USER        Electrostatic Energy            =  +0.00 kcal/mol
DOCKED: USER        Moving Ligand-Fixed Receptor    =  -5.56 kcal/mol
DOCKED: USER        Moving Ligand-Moving Receptor   =  +0.00 kcal/mol
DOCKED: USER    (2) Final Total Internal Energy     =  -1.25 kcal/mol
DOCKED: USER    (3) Torsional Free Energy           =  +1.49 kcal/mol
DOCKED: USER    (4) Unbound System's Energy         =  -1.25 kcal/mol
DOCKED: USER
DOCKED: USER
DOCKED: REMARK  5 active torsions:
DOCKED: REMARK  status: ('A' for Active; 'I' for Inactive)
DOCKED: REMARK    1  A    between atoms: C_2  and  C_19 
DOCKED: REMARK    2  A    between atoms: C_2  and  C_11 
DOCKED: REMARK    3  A    between atoms: C_19  and  C_20 
DOCKED: REMARK    4  A    between atoms: C_20  and  C_21 
DOCKED: REMARK    5  A    between atoms: C_21  and  N_22 
DOCKED: USER                              x       y       z     vdW  Elec       q    Type
DOCKED: USER                           _______ _______ _______ _____ _____    ______ ____
DOCKED: ROOT
DOCKED: ATOM      1  O   UNL     1     -32.322 -10.097   0.418 +0.01 -0.00    -0.346 OA 
DOCKED: ATOM      2  C   UNL     1     -33.260  -9.921   1.527 -0.05 +0.00    +0.130 C  
DOCKED: ATOM      3  C   UNL     1     -34.411  -9.180   0.910 -0.15 +0.00    +0.004 A  
DOCKED: ATOM      4  C   UNL     1     -34.201  -9.043  -0.454 -0.14 +0.00    +0.006 A  
DOCKED: ATOM      5  C   UNL     1     -32.921  -9.684  -0.832 -0.04 +0.00    +0.169 C  
DOCKED: ATOM      6  C   UNL     1     -35.559  -8.679   1.507 -0.24 -0.00    -0.001 A  
DOCKED: ATOM      7  C   UNL     1     -35.121  -8.400  -1.265 -0.23 +0.00    +0.008 A  
DOCKED: ATOM      8  C   UNL     1     -36.494  -8.023   0.704 -0.34 +0.00    +0.010 A  
DOCKED: ATOM      9  C   UNL     1     -36.276  -7.885  -0.674 -0.29 +0.00    +0.068 A  
DOCKED: ATOM     10  N   UNL     1     -38.035  -6.668  -2.136 -2.55 -0.00    -0.191 NA 
DOCKED: ATOM     11  C   UNL     1     -37.246  -7.213  -1.481 -0.38 +0.00    +0.101 C  
DOCKED: ENDROOT
DOCKED: BRANCH   2  12
DOCKED: ATOM     12  C   UNL     1     -33.653 -11.297   2.051 -0.07 +0.00    +0.038 C  
DOCKED: BRANCH  12  13
DOCKED: ATOM     13  C   UNL     1     -33.403 -12.383   1.006 -0.10 +0.00    +0.038 C  
DOCKED: BRANCH  13  14
DOCKED: ATOM     14  C   UNL     1     -34.626 -12.576   0.111 -0.17 +0.00    +0.251 C  
DOCKED: BRANCH  14  15
DOCKED: ATOM     15  N   UNL     1     -34.218 -13.017  -1.217 -0.17 +0.00    +0.141 N  
DOCKED: ATOM     16  C   UNL     1     -32.766 -12.923  -1.369 -0.05 +0.00    +0.285 C  
DOCKED: ATOM     17  C   UNL     1     -34.667 -14.389  -1.465 -0.22 +0.00    +0.285 C  
DOCKED: ENDBRANCH  14  15
DOCKED: ENDBRANCH  13  14
DOCKED: ENDBRANCH  12  13
DOCKED: ENDBRANCH   2  12
DOCKED: BRANCH   2  18
DOCKED: ATOM     18  C   UNL     1     -32.553  -9.128   2.575 -0.05 +0.00    +0.006 A  
DOCKED: ATOM     19  C   UNL     1     -32.555  -7.735   2.514 -0.10 +0.00    +0.001 A  
DOCKED: ATOM     20  C   UNL     1     -31.893  -6.994   3.494 -0.10 +0.00    +0.029 A  
DOCKED: ATOM     21  C   UNL     1     -31.231  -7.647   4.533 -0.06 +0.00    +0.140 A  
DOCKED: ATOM     22  C   UNL     1     -31.229  -9.040   4.593 -0.03 +0.00    +0.029 A  
DOCKED: ATOM     23  F   UNL     1     -30.597  -6.936   5.474 -0.02 -0.00    -0.204 F  
DOCKED: ATOM     24  C   UNL     1     -31.891  -9.782   3.613 -0.03 +0.00    +0.001 A  
DOCKED: ENDBRANCH   2  18
DOCKED: TORSDOF 5
DOCKED: TER
DOCKED: ENDMDL
________________________________________________________________________________


    FINAL DOCKED STATE:
    ________________________


Run:   343 / 512
Time taken for this run:   0.002s

DOCKED: MODEL        343
DOCKED: USER    Run = 343
DOCKED: USER
DOCKED: USER    Estimated Free Energy of Binding    =  -3.89 kcal/mol  [=(1)+(2)+(3)-(4)]
DOCKED: USER
DOCKED: USER    (1) Final Intermolecular Energy     =  -5.38 kcal/mol
DOCKED: USER        vdW + Hbond + desolv Energy     =  -5.38 kcal/mol
DOCKED: USER        Electrostatic Energy            =  +0.00 kcal/mol
DOCKED: USER        Moving Ligand-Fixed Receptor    =  -5.38 kcal/mol
DOCKED: USER        Moving Ligand-Moving Receptor   =  +0.00 kcal/mol
DOCKED: USER    (2) Final Total Internal Energy     =  -1.46 kcal/mol
DOCKED: USER    (3) Torsional Free Energy           =  +1.49 kcal/mol
DOCKED: USER    (4) Unbound System's Energy         =  -1.46 kcal/mol
DOCKED: USER
DOCKED: USER
DOCKED: REMARK  5 active torsions:
DOCKED: REMARK  status: ('A' for Active; 'I' for Inactive)
DOCKED: REMARK    1  A    between atoms: C_2  and  C_19 
DOCKED: REMARK    2  A    between atoms: C_2  and  C_11 
DOCKED: REMARK    3  A    between atoms: C_19  and  C_20 
DOCKED: REMARK    4  A    between atoms: C_20  and  C_21 
DOCKED: REMARK    5  A    between atoms: C_21  and  N_22 
DOCKED: USER                              x       y       z     vdW  Elec       q    Type
DOCKED: USER                           _______ _______ _______ _____ _____    ______ ____
DOCKED: ROOT
DOCKED: ATOM      1  O   UNL     1     -36.400 -10.608   4.242 -0.06 -0.00    -0.346 OA 
DOCKED: ATOM      2  C   UNL     1     -35.222  -9.826   3.862 -0.15 +0.00    +0.130 C  
DOCKED: ATOM      3  C   UNL     1     -35.648  -9.125   2.604 -0.16 +0.00    +0.004 A  
DOCKED: ATOM      4  C   UNL     1     -36.985  -9.393   2.349 -0.29 +0.00    +0.006 A  
DOCKED: ATOM      5  C   UNL     1     -37.533 -10.268   3.410 -0.17 +0.00    +0.169 C  
DOCKED: ATOM      6  C   UNL     1     -34.913  -8.305   1.760 -0.15 -0.00    -0.001 A  
DOCKED: ATOM      7  C   UNL     1     -37.629  -8.860   1.246 -0.24 +0.00    +0.008 A  
DOCKED: ATOM      8  C   UNL     1     -35.547  -7.762   0.641 -0.27 +0.00    +0.010 A  
DOCKED: ATOM      9  C   UNL     1     -36.899  -8.038   0.386 -0.34 +0.00    +0.068 A  
DOCKED: ATOM     10  N   UNL     1     -38.047  -7.011  -1.697 -2.46 -0.00    -0.191 NA 
DOCKED: ATOM     11  C   UNL     1     -37.532  -7.472  -0.763 -0.38 +0.00    +0.101 C  
DOCKED: ENDROOT
DOCKED: BRANCH   2  12
DOCKED: ATOM     12  C   UNL     1     -34.895  -8.863   4.997 -0.09 +0.00    +0.038 C  
DOCKED: BRANCH  12  13
DOCKED: ATOM     13  C   UNL     1     -35.953  -8.919   6.097 -0.19 +0.00    +0.038 C  
DOCKED: BRANCH  13  14
DOCKED: ATOM     14  C   UNL     1     -35.778 -10.163   6.965 -0.07 +0.00    +0.251 C  
DOCKED: BRANCH  14  15
DOCKED: ATOM     15  N   UNL     1     -34.388 -10.601   6.950 -0.03 +0.00    +0.141 N  
DOCKED: ATOM     16  C   UNL     1     -33.654 -10.030   8.081 -0.02 +0.00    +0.285 C  
DOCKED: ATOM     17  C   UNL     1     -34.306 -12.062   6.978 -0.03 +0.00    +0.285 C  
DOCKED: ENDBRANCH  14  15
DOCKED: ENDBRANCH  13  14
DOCKED: ENDBRANCH  12  13
DOCKED: ENDBRANCH   2  12
DOCKED: BRANCH   2  18
DOCKED: ATOM     18  C   UNL     1     -34.109 -10.794   3.639 -0.07 +0.00    +0.006 A  
DOCKED: ATOM     19  C   UNL     1     -34.385 -12.077   3.166 -0.10 +0.00    +0.001 A  
DOCKED: ATOM     20  C   UNL     1     -33.343 -12.981   2.959 -0.07 +0.00    +0.029 A  
DOCKED: ATOM     21  C   UNL     1     -32.028 -12.603   3.224 -0.01 +0.00    +0.140 A  
DOCKED: ATOM     22  C   UNL     1     -31.752 -11.320   3.697 -0.01 +0.00    +0.029 A  
DOCKED: ATOM     23  F   UNL     1     -31.027 -13.471   3.024 +0.00 -0.00    -0.204 F  
DOCKED: ATOM     24  C   UNL     1     -32.794 -10.414   3.905 -0.04 +0.00    +0.001 A  
DOCKED: ENDBRANCH   2  18
DOCKED: TORSDOF 5
DOCKED: TER
DOCKED: ENDMDL
________________________________________________________________________________


    FINAL DOCKED STATE:
    ________________________


Run:   344 / 512
Time taken for this run:   0.002s

DOCKED: MODEL        344
DOCKED: USER    Run = 344
DOCKED: USER
DOCKED: USER    Estimated Free Energy of Binding    =  -3.33 kcal/mol  [=(1)+(2)+(3)-(4)]
DOCKED: USER
DOCKED: USER    (1) Final Intermolecular Energy     =  -4.83 kcal/mol
DOCKED: USER        vdW + Hbond + desolv Energy     =  -4.83 kcal/mol
DOCKED: USER        Electrostatic Energy            =  +0.00 kcal/mol
DOCKED: USER        Moving Ligand-Fixed Receptor    =  -4.83 kcal/mol
DOCKED: USER        Moving Ligand-Moving Receptor   =  +0.00 kcal/mol
DOCKED: USER    (2) Final Total Internal Energy     =  -1.43 kcal/mol
DOCKED: USER    (3) Torsional Free Energy           =  +1.49 kcal/mol
DOCKED: USER    (4) Unbound System's Energy         =  -1.43 kcal/mol
DOCKED: USER
DOCKED: USER
DOCKED: REMARK  5 active torsions:
DOCKED: REMARK  status: ('A' for Active; 'I' for Inactive)
DOCKED: REMARK    1  A    between atoms: C_2  and  C_19 
DOCKED: REMARK    2  A    between atoms: C_2  and  C_11 
DOCKED: REMARK    3  A    between atoms: C_19  and  C_20 
DOCKED: REMARK    4  A    between atoms: C_20  and  C_21 
DOCKED: REMARK    5  A    between atoms: C_21  and  N_22 
DOCKED: USER                              x       y       z     vdW  Elec       q    Type
DOCKED: USER                           _______ _______ _______ _____ _____    ______ ____
DOCKED: ROOT
DOCKED: ATOM      1  O   UNL     1     -36.441 -11.113   2.726 -0.08 -0.00    -0.346 OA 
DOCKED: ATOM      2  C   UNL     1     -36.458  -9.707   3.131 -0.25 +0.00    +0.130 C  
DOCKED: ATOM      3  C   UNL     1     -37.574  -9.635   4.133 -0.31 +0.00    +0.004 A  
DOCKED: ATOM      4  C   UNL     1     -38.077 -10.908   4.363 -0.28 +0.00    +0.006 A  
DOCKED: ATOM      5  C   UNL     1     -37.333 -11.897   3.552 -0.11 +0.00    +0.169 C  
DOCKED: ATOM      6  C   UNL     1     -38.094  -8.533   4.796 -0.15 -0.00    -0.001 A  
DOCKED: ATOM      7  C   UNL     1     -39.115 -11.122   5.255 -0.18 +0.00    +0.008 A  
DOCKED: ATOM      8  C   UNL     1     -39.143  -8.732   5.695 -0.29 +0.00    +0.010 A  
DOCKED: ATOM      9  C   UNL     1     -39.650 -10.020   5.924 -0.24 +0.00    +0.068 A  
DOCKED: ATOM     10  N   UNL     1     -41.595 -10.355   7.603 -0.10 -0.00    -0.191 NA 
DOCKED: ATOM     11  C   UNL     1     -40.723 -10.205   6.849 -0.20 +0.00    +0.101 C  
DOCKED: ENDROOT
DOCKED: BRANCH   2  12
DOCKED: ATOM     12  C   UNL     1     -35.100  -9.361   3.730 -0.17 +0.00    +0.038 C  
DOCKED: BRANCH  12  13
DOCKED: ATOM     13  C   UNL     1     -35.044  -9.701   5.218 -0.16 +0.00    +0.038 C  
DOCKED: BRANCH  13  14
DOCKED: ATOM     14  C   UNL     1     -34.588 -11.142   5.435 -0.04 +0.00    +0.251 C  
DOCKED: BRANCH  14  15
DOCKED: ATOM     15  N   UNL     1     -35.140 -11.667   6.679 -0.05 +0.00    +0.141 N  
DOCKED: ATOM     16  C   UNL     1     -36.087 -10.717   7.264 -0.05 +0.00    +0.285 C  
DOCKED: ATOM     17  C   UNL     1     -35.792 -12.957   6.450 -0.09 +0.00    +0.285 C  
DOCKED: ENDBRANCH  14  15
DOCKED: ENDBRANCH  13  14
DOCKED: ENDBRANCH  12  13
DOCKED: ENDBRANCH   2  12
DOCKED: BRANCH   2  18
DOCKED: ATOM     18  C   UNL     1     -36.726  -8.902   1.903 -0.28 +0.00    +0.006 A  
DOCKED: ATOM     19  C   UNL     1     -38.030  -8.516   1.594 -0.29 +0.00    +0.001 A  
DOCKED: ATOM     20  C   UNL     1     -38.279  -7.764   0.446 -0.44 +0.00    +0.029 A  
DOCKED: ATOM     21  C   UNL     1     -37.226  -7.399  -0.391 -0.35 +0.00    +0.140 A  
DOCKED: ATOM     22  C   UNL     1     -35.922  -7.785  -0.081 -0.31 +0.00    +0.029 A  
DOCKED: ATOM     23  F   UNL     1     -37.465  -6.676  -1.493 -0.14 -0.00    -0.204 F  
DOCKED: ATOM     24  C   UNL     1     -35.672  -8.538   1.067 -0.26 +0.00    +0.001 A  
DOCKED: ENDBRANCH   2  18
DOCKED: TORSDOF 5
DOCKED: TER
DOCKED: ENDMDL
________________________________________________________________________________


    FINAL DOCKED STATE:
    ________________________


Run:   345 / 512
Time taken for this run:   0.002s

DOCKED: MODEL        345
DOCKED: USER    Run = 345
DOCKED: USER
DOCKED: USER    Estimated Free Energy of Binding    =  -4.21 kcal/mol  [=(1)+(2)+(3)-(4)]
DOCKED: USER
DOCKED: USER    (1) Final Intermolecular Energy     =  -5.70 kcal/mol
DOCKED: USER        vdW + Hbond + desolv Energy     =  -5.70 kcal/mol
DOCKED: USER        Electrostatic Energy            =  +0.00 kcal/mol
DOCKED: USER        Moving Ligand-Fixed Receptor    =  -5.70 kcal/mol
DOCKED: USER        Moving Ligand-Moving Receptor   =  +0.00 kcal/mol
DOCKED: USER    (2) Final Total Internal Energy     =  -1.05 kcal/mol
DOCKED: USER    (3) Torsional Free Energy           =  +1.49 kcal/mol
DOCKED: USER    (4) Unbound System's Energy         =  -1.05 kcal/mol
DOCKED: USER
DOCKED: USER
DOCKED: REMARK  5 active torsions:
DOCKED: REMARK  status: ('A' for Active; 'I' for Inactive)
DOCKED: REMARK    1  A    between atoms: C_2  and  C_19 
DOCKED: REMARK    2  A    between atoms: C_2  and  C_11 
DOCKED: REMARK    3  A    between atoms: C_19  and  C_20 
DOCKED: REMARK    4  A    between atoms: C_20  and  C_21 
DOCKED: REMARK    5  A    between atoms: C_21  and  N_22 
DOCKED: USER                              x       y       z     vdW  Elec       q    Type
DOCKED: USER                           _______ _______ _______ _____ _____    ______ ____
DOCKED: ROOT
DOCKED: ATOM      1  O   UNL     1     -34.978 -10.556   3.070 -0.03 -0.00    -0.346 OA 
DOCKED: ATOM      2  C   UNL     1     -34.001 -10.410   1.990 -0.08 +0.00    +0.130 C  
DOCKED: ATOM      3  C   UNL     1     -34.728  -9.602   0.954 -0.17 +0.00    +0.004 A  
DOCKED: ATOM      4  C   UNL     1     -35.970  -9.225   1.443 -0.27 +0.00    +0.006 A  
DOCKED: ATOM      5  C   UNL     1     -36.144  -9.737   2.821 -0.22 +0.00    +0.169 C  
DOCKED: ATOM      6  C   UNL     1     -34.317  -9.222  -0.316 -0.15 -0.00    -0.001 A  
DOCKED: ATOM      7  C   UNL     1     -36.842  -8.462   0.685 -0.32 +0.00    +0.008 A  
DOCKED: ATOM      8  C   UNL     1     -35.187  -8.457  -1.095 -0.23 +0.00    +0.010 A  
DOCKED: ATOM      9  C   UNL     1     -36.443  -8.079  -0.596 -0.22 +0.00    +0.068 A  
DOCKED: ATOM     10  N   UNL     1     -38.032  -6.655  -2.066 -2.51 -0.00    -0.191 NA 
DOCKED: ATOM     11  C   UNL     1     -37.319  -7.294  -1.407 -0.37 +0.00    +0.101 C  
DOCKED: ENDROOT
DOCKED: BRANCH   2  12
DOCKED: ATOM     12  C   UNL     1     -32.772  -9.699   2.543 -0.05 +0.00    +0.038 C  
DOCKED: BRANCH  12  13
DOCKED: ATOM     13  C   UNL     1     -32.739  -9.749   4.069 -0.06 +0.00    +0.038 C  
DOCKED: BRANCH  13  14
DOCKED: ATOM     14  C   UNL     1     -32.926  -8.356   4.669 -0.07 +0.00    +0.251 C  
DOCKED: BRANCH  14  15
DOCKED: ATOM     15  N   UNL     1     -31.633  -7.764   4.989 -0.07 +0.00    +0.141 N  
DOCKED: ATOM     16  C   UNL     1     -30.545  -8.668   4.614 -0.01 +0.00    +0.285 C  
DOCKED: ATOM     17  C   UNL     1     -31.476  -6.474   4.315 -0.06 +0.00    +0.285 C  
DOCKED: ENDBRANCH  14  15
DOCKED: ENDBRANCH  13  14
DOCKED: ENDBRANCH  12  13
DOCKED: ENDBRANCH   2  12
DOCKED: BRANCH   2  18
DOCKED: ATOM     18  C   UNL     1     -33.661 -11.786   1.521 -0.08 +0.00    +0.006 A  
DOCKED: ATOM     19  C   UNL     1     -34.617 -12.551   0.856 -0.22 +0.00    +0.001 A  
DOCKED: ATOM     20  C   UNL     1     -34.298 -13.838   0.418 -0.24 +0.00    +0.029 A  
DOCKED: ATOM     21  C   UNL     1     -33.024 -14.355   0.646 -0.13 +0.00    +0.140 A  
DOCKED: ATOM     22  C   UNL     1     -32.067 -13.589   1.311 -0.04 +0.00    +0.029 A  
DOCKED: ATOM     23  F   UNL     1     -32.717 -15.589   0.224 -0.07 -0.00    -0.204 F  
DOCKED: ATOM     24  C   UNL     1     -32.386 -12.302   1.749 -0.02 +0.00    +0.001 A  
DOCKED: ENDBRANCH   2  18
DOCKED: TORSDOF 5
DOCKED: TER
DOCKED: ENDMDL
________________________________________________________________________________


    FINAL DOCKED STATE:
    ________________________


Run:   346 / 512
Time taken for this run:   0.002s

DOCKED: MODEL        346
DOCKED: USER    Run = 346
DOCKED: USER
DOCKED: USER    Estimated Free Energy of Binding    =  -4.14 kcal/mol  [=(1)+(2)+(3)-(4)]
DOCKED: USER
DOCKED: USER    (1) Final Intermolecular Energy     =  -5.63 kcal/mol
DOCKED: USER        vdW + Hbond + desolv Energy     =  -5.63 kcal/mol
DOCKED: USER        Electrostatic Energy            =  +0.00 kcal/mol
DOCKED: USER        Moving Ligand-Fixed Receptor    =  -5.63 kcal/mol
DOCKED: USER        Moving Ligand-Moving Receptor   =  +0.00 kcal/mol
DOCKED: USER    (2) Final Total Internal Energy     =  -0.95 kcal/mol
DOCKED: USER    (3) Torsional Free Energy           =  +1.49 kcal/mol
DOCKED: USER    (4) Unbound System's Energy         =  -0.95 kcal/mol
DOCKED: USER
DOCKED: USER
DOCKED: REMARK  5 active torsions:
DOCKED: REMARK  status: ('A' for Active; 'I' for Inactive)
DOCKED: REMARK    1  A    between atoms: C_2  and  C_19 
DOCKED: REMARK    2  A    between atoms: C_2  and  C_11 
DOCKED: REMARK    3  A    between atoms: C_19  and  C_20 
DOCKED: REMARK    4  A    between atoms: C_20  and  C_21 
DOCKED: REMARK    5  A    between atoms: C_21  and  N_22 
DOCKED: USER                              x       y       z     vdW  Elec       q    Type
DOCKED: USER                           _______ _______ _______ _____ _____    ______ ____
DOCKED: ROOT
DOCKED: ATOM      1  O   UNL     1     -37.654 -14.386  11.050 -0.05 -0.00    -0.346 OA 
DOCKED: ATOM      2  C   UNL     1     -39.090 -14.107  11.093 -0.11 +0.00    +0.130 C  
DOCKED: ATOM      3  C   UNL     1     -39.717 -15.368  10.574 -0.21 +0.00    +0.004 A  
DOCKED: ATOM      4  C   UNL     1     -38.735 -16.324  10.358 -0.26 +0.00    +0.006 A  
DOCKED: ATOM      5  C   UNL     1     -37.410 -15.775  10.725 -0.11 +0.00    +0.169 C  
DOCKED: ATOM      6  C   UNL     1     -41.052 -15.651  10.324 -0.23 -0.00    -0.001 A  
DOCKED: ATOM      7  C   UNL     1     -39.049 -17.586   9.883 -0.32 +0.00    +0.008 A  
DOCKED: ATOM      8  C   UNL     1     -41.385 -16.918   9.841 -0.23 +0.00    +0.010 A  
DOCKED: ATOM      9  C   UNL     1     -40.388 -17.880   9.622 -0.26 +0.00    +0.068 A  
DOCKED: ATOM     10  N   UNL     1     -41.040 -20.224   8.729 -2.56 -0.00    -0.191 NA 
DOCKED: ATOM     11  C   UNL     1     -40.747 -19.172   9.129 -0.36 +0.00    +0.101 C  
DOCKED: ENDROOT
DOCKED: BRANCH   2  12
DOCKED: ATOM     12  C   UNL     1     -39.479 -13.801  12.535 -0.04 +0.00    +0.038 C  
DOCKED: BRANCH  12  13
DOCKED: ATOM     13  C   UNL     1     -38.253 -13.755  13.445 -0.02 +0.00    +0.038 C  
DOCKED: BRANCH  13  14
DOCKED: ATOM     14  C   UNL     1     -37.749 -15.163  13.758 -0.01 +0.00    +0.251 C  
DOCKED: BRANCH  14  15
DOCKED: ATOM     15  N   UNL     1     -37.926 -15.462  15.174 -0.01 +0.00    +0.141 N  
DOCKED: ATOM     16  C   UNL     1     -37.556 -16.849  15.458 -0.02 +0.00    +0.285 C  
DOCKED: ATOM     17  C   UNL     1     -37.133 -14.547  15.997 -0.00 +0.00    +0.285 C  
DOCKED: ENDBRANCH  14  15
DOCKED: ENDBRANCH  13  14
DOCKED: ENDBRANCH  12  13
DOCKED: ENDBRANCH   2  12
DOCKED: BRANCH   2  18
DOCKED: ATOM     18  C   UNL     1     -39.332 -12.930  10.208 -0.15 +0.00    +0.006 A  
DOCKED: ATOM     19  C   UNL     1     -38.257 -12.170   9.750 -0.11 +0.00    +0.001 A  
DOCKED: ATOM     20  C   UNL     1     -38.485 -11.069   8.923 -0.11 +0.00    +0.029 A  
DOCKED: ATOM     21  C   UNL     1     -39.786 -10.731   8.555 -0.12 +0.00    +0.140 A  
DOCKED: ATOM     22  C   UNL     1     -40.861 -11.492   9.014 -0.13 +0.00    +0.029 A  
DOCKED: ATOM     23  F   UNL     1     -40.005  -9.676   7.760 -0.02 -0.00    -0.204 F  
DOCKED: ATOM     24  C   UNL     1     -40.635 -12.593   9.842 -0.20 +0.00    +0.001 A  
DOCKED: ENDBRANCH   2  18
DOCKED: TORSDOF 5
DOCKED: TER
DOCKED: ENDMDL
________________________________________________________________________________


    FINAL DOCKED STATE:
    ________________________


Run:   347 / 512
Time taken for this run:   0.002s

DOCKED: MODEL        347
DOCKED: USER    Run = 347
DOCKED: USER
DOCKED: USER    Estimated Free Energy of Binding    =  -3.76 kcal/mol  [=(1)+(2)+(3)-(4)]
DOCKED: USER
DOCKED: USER    (1) Final Intermolecular Energy     =  -5.25 kcal/mol
DOCKED: USER        vdW + Hbond + desolv Energy     =  -5.25 kcal/mol
DOCKED: USER        Electrostatic Energy            =  +0.00 kcal/mol
DOCKED: USER        Moving Ligand-Fixed Receptor    =  -5.25 kcal/mol
DOCKED: USER        Moving Ligand-Moving Receptor   =  +0.00 kcal/mol
DOCKED: USER    (2) Final Total Internal Energy     =  -1.45 kcal/mol
DOCKED: USER    (3) Torsional Free Energy           =  +1.49 kcal/mol
DOCKED: USER    (4) Unbound System's Energy         =  -1.45 kcal/mol
DOCKED: USER
DOCKED: USER
DOCKED: REMARK  5 active torsions:
DOCKED: REMARK  status: ('A' for Active; 'I' for Inactive)
DOCKED: REMARK    1  A    between atoms: C_2  and  C_19 
DOCKED: REMARK    2  A    between atoms: C_2  and  C_11 
DOCKED: REMARK    3  A    between atoms: C_19  and  C_20 
DOCKED: REMARK    4  A    between atoms: C_20  and  C_21 
DOCKED: REMARK    5  A    between atoms: C_21  and  N_22 
DOCKED: USER                              x       y       z     vdW  Elec       q    Type
DOCKED: USER                           _______ _______ _______ _____ _____    ______ ____
DOCKED: ROOT
DOCKED: ATOM      1  O   UNL     1     -42.118 -14.021  11.205 -0.05 -0.00    -0.346 OA 
DOCKED: ATOM      2  C   UNL     1     -40.680 -14.248  11.361 -0.11 +0.00    +0.130 C  
DOCKED: ATOM      3  C   UNL     1     -40.473 -15.630  10.812 -0.19 +0.00    +0.004 A  
DOCKED: ATOM      4  C   UNL     1     -41.665 -16.108  10.288 -0.22 +0.00    +0.006 A  
DOCKED: ATOM      5  C   UNL     1     -42.725 -15.087  10.438 -0.18 +0.00    +0.169 C  
DOCKED: ATOM      6  C   UNL     1     -39.318 -16.398  10.771 -0.21 -0.00    -0.001 A  
DOCKED: ATOM      7  C   UNL     1     -41.746 -17.364   9.711 -0.24 +0.00    +0.008 A  
DOCKED: ATOM      8  C   UNL     1     -39.384 -17.669  10.197 -0.30 +0.00    +0.010 A  
DOCKED: ATOM      9  C   UNL     1     -40.592 -18.149   9.669 -0.25 +0.00    +0.068 A  
DOCKED: ATOM     10  N   UNL     1     -40.680 -20.510   8.606 -2.54 -0.00    -0.191 NA 
DOCKED: ATOM     11  C   UNL     1     -40.641 -19.451   9.083 -0.35 +0.00    +0.101 C  
DOCKED: ENDROOT
DOCKED: BRANCH   2  12
DOCKED: ATOM     12  C   UNL     1     -39.935 -13.178  10.572 -0.17 +0.00    +0.038 C  
DOCKED: BRANCH  12  13
DOCKED: ATOM     13  C   UNL     1     -40.814 -12.580   9.476 -0.18 +0.00    +0.038 C  
DOCKED: BRANCH  13  14
DOCKED: ATOM     14  C   UNL     1     -41.321 -11.195   9.873 -0.11 +0.00    +0.251 C  
DOCKED: BRANCH  14  15
DOCKED: ATOM     15  N   UNL     1     -42.267 -11.299  10.978 -0.05 +0.00    +0.141 N  
DOCKED: ATOM     16  C   UNL     1     -41.761 -10.597  12.158 -0.00 +0.00    +0.285 C  
DOCKED: ATOM     17  C   UNL     1     -43.573 -10.763  10.590 -0.03 +0.00    +0.285 C  
DOCKED: ENDBRANCH  14  15
DOCKED: ENDBRANCH  13  14
DOCKED: ENDBRANCH  12  13
DOCKED: ENDBRANCH   2  12
DOCKED: BRANCH   2  18
DOCKED: ATOM     18  C   UNL     1     -40.379 -14.149  12.819 -0.03 +0.00    +0.006 A  
DOCKED: ATOM     19  C   UNL     1     -41.111 -14.905  13.734 -0.02 +0.00    +0.001 A  
DOCKED: ATOM     20  C   UNL     1     -40.828 -14.811  15.097 -0.00 +0.00    +0.029 A  
DOCKED: ATOM     21  C   UNL     1     -39.815 -13.964  15.543 +0.00 +0.00    +0.140 A  
DOCKED: ATOM     22  C   UNL     1     -39.083 -13.209  14.627 -0.00 +0.00    +0.029 A  
DOCKED: ATOM     23  F   UNL     1     -39.543 -13.876  16.852 +0.00 -0.00    -0.204 F  
DOCKED: ATOM     24  C   UNL     1     -39.366 -13.301  13.263 -0.02 +0.00    +0.001 A  
DOCKED: ENDBRANCH   2  18
DOCKED: TORSDOF 5
DOCKED: TER
DOCKED: ENDMDL
________________________________________________________________________________


    FINAL DOCKED STATE:
    ________________________


Run:   348 / 512
Time taken for this run:   0.002s

DOCKED: MODEL        348
DOCKED: USER    Run = 348
DOCKED: USER
DOCKED: USER    Estimated Free Energy of Binding    =  -4.24 kcal/mol  [=(1)+(2)+(3)-(4)]
DOCKED: USER
DOCKED: USER    (1) Final Intermolecular Energy     =  -5.73 kcal/mol
DOCKED: USER        vdW + Hbond + desolv Energy     =  -5.73 kcal/mol
DOCKED: USER        Electrostatic Energy            =  +0.00 kcal/mol
DOCKED: USER        Moving Ligand-Fixed Receptor    =  -5.73 kcal/mol
DOCKED: USER        Moving Ligand-Moving Receptor   =  +0.00 kcal/mol
DOCKED: USER    (2) Final Total Internal Energy     =  -1.32 kcal/mol
DOCKED: USER    (3) Torsional Free Energy           =  +1.49 kcal/mol
DOCKED: USER    (4) Unbound System's Energy         =  -1.32 kcal/mol
DOCKED: USER
DOCKED: USER
DOCKED: REMARK  5 active torsions:
DOCKED: REMARK  status: ('A' for Active; 'I' for Inactive)
DOCKED: REMARK    1  A    between atoms: C_2  and  C_19 
DOCKED: REMARK    2  A    between atoms: C_2  and  C_11 
DOCKED: REMARK    3  A    between atoms: C_19  and  C_20 
DOCKED: REMARK    4  A    between atoms: C_20  and  C_21 
DOCKED: REMARK    5  A    between atoms: C_21  and  N_22 
DOCKED: USER                              x       y       z     vdW  Elec       q    Type
DOCKED: USER                           _______ _______ _______ _____ _____    ______ ____
DOCKED: ROOT
DOCKED: ATOM      1  O   UNL     1     -36.168 -16.175  11.976 -0.07 -0.00    -0.346 OA 
DOCKED: ATOM      2  C   UNL     1     -37.189 -15.285  11.423 -0.12 +0.00    +0.130 C  
DOCKED: ATOM      3  C   UNL     1     -38.149 -16.218  10.744 -0.22 +0.00    +0.004 A  
DOCKED: ATOM      4  C   UNL     1     -37.772 -17.532  10.982 -0.25 +0.00    +0.006 A  
DOCKED: ATOM      5  C   UNL     1     -36.561 -17.560  11.833 -0.17 +0.00    +0.169 C  
DOCKED: ATOM      6  C   UNL     1     -39.274 -15.928   9.985 -0.27 -0.00    -0.001 A  
DOCKED: ATOM      7  C   UNL     1     -38.497 -18.595  10.471 -0.35 +0.00    +0.008 A  
DOCKED: ATOM      8  C   UNL     1     -40.014 -16.988   9.459 -0.32 +0.00    +0.010 A  
DOCKED: ATOM      9  C   UNL     1     -39.627 -18.315   9.701 -0.31 +0.00    +0.068 A  
DOCKED: ATOM     10  N   UNL     1     -41.025 -20.260   8.713 -2.55 -0.00    -0.191 NA 
DOCKED: ATOM     11  C   UNL     1     -40.398 -19.387   9.156 -0.36 +0.00    +0.101 C  
DOCKED: ENDROOT
DOCKED: BRANCH   2  12
DOCKED: ATOM     12  C   UNL     1     -37.826 -14.509  12.569 -0.05 +0.00    +0.038 C  
DOCKED: BRANCH  12  13
DOCKED: ATOM     13  C   UNL     1     -36.949 -13.336  13.002 -0.02 +0.00    +0.038 C  
DOCKED: BRANCH  13  14
DOCKED: ATOM     14  C   UNL     1     -35.695 -13.824  13.724 -0.01 +0.00    +0.251 C  
DOCKED: BRANCH  14  15
DOCKED: ATOM     15  N   UNL     1     -34.754 -12.725  13.906 -0.00 +0.00    +0.141 N  
DOCKED: ATOM     16  C   UNL     1     -33.802 -12.671  12.795 -0.00 +0.00    +0.285 C  
DOCKED: ATOM     17  C   UNL     1     -35.466 -11.451  14.026 -0.00 +0.00    +0.285 C  
DOCKED: ENDBRANCH  14  15
DOCKED: ENDBRANCH  13  14
DOCKED: ENDBRANCH  12  13
DOCKED: ENDBRANCH   2  12
DOCKED: BRANCH   2  18
DOCKED: ATOM     18  C   UNL     1     -36.498 -14.368  10.470 -0.14 +0.00    +0.006 A  
DOCKED: ATOM     19  C   UNL     1     -37.230 -13.408   9.772 -0.15 +0.00    +0.001 A  
DOCKED: ATOM     20  C   UNL     1     -36.583 -12.551   8.881 -0.11 +0.00    +0.029 A  
DOCKED: ATOM     21  C   UNL     1     -35.206 -12.654   8.690 -0.07 +0.00    +0.140 A  
DOCKED: ATOM     22  C   UNL     1     -34.474 -13.614   9.389 -0.09 +0.00    +0.029 A  
DOCKED: ATOM     23  F   UNL     1     -34.585 -11.829   7.837 -0.00 -0.00    -0.204 F  
DOCKED: ATOM     24  C   UNL     1     -35.121 -14.472  10.280 -0.11 +0.00    +0.001 A  
DOCKED: ENDBRANCH   2  18
DOCKED: TORSDOF 5
DOCKED: TER
DOCKED: ENDMDL
________________________________________________________________________________


    FINAL DOCKED STATE:
    ________________________


Run:   349 / 512
Time taken for this run:   0.002s

DOCKED: MODEL        349
DOCKED: USER    Run = 349
DOCKED: USER
DOCKED: USER    Estimated Free Energy of Binding    =  -4.00 kcal/mol  [=(1)+(2)+(3)-(4)]
DOCKED: USER
DOCKED: USER    (1) Final Intermolecular Energy     =  -5.49 kcal/mol
DOCKED: USER        vdW + Hbond + desolv Energy     =  -5.49 kcal/mol
DOCKED: USER        Electrostatic Energy            =  +0.00 kcal/mol
DOCKED: USER        Moving Ligand-Fixed Receptor    =  -5.49 kcal/mol
DOCKED: USER        Moving Ligand-Moving Receptor   =  +0.00 kcal/mol
DOCKED: USER    (2) Final Total Internal Energy     =  -1.17 kcal/mol
DOCKED: USER    (3) Torsional Free Energy           =  +1.49 kcal/mol
DOCKED: USER    (4) Unbound System's Energy         =  -1.17 kcal/mol
DOCKED: USER
DOCKED: USER
DOCKED: REMARK  5 active torsions:
DOCKED: REMARK  status: ('A' for Active; 'I' for Inactive)
DOCKED: REMARK    1  A    between atoms: C_2  and  C_19 
DOCKED: REMARK    2  A    between atoms: C_2  and  C_11 
DOCKED: REMARK    3  A    between atoms: C_19  and  C_20 
DOCKED: REMARK    4  A    between atoms: C_20  and  C_21 
DOCKED: REMARK    5  A    between atoms: C_21  and  N_22 
DOCKED: USER                              x       y       z     vdW  Elec       q    Type
DOCKED: USER                           _______ _______ _______ _____ _____    ______ ____
DOCKED: ROOT
DOCKED: ATOM      1  O   UNL     1     -36.468 -15.809  12.060 -0.06 -0.00    -0.346 OA 
DOCKED: ATOM      2  C   UNL     1     -37.528 -14.976  11.492 -0.11 +0.00    +0.130 C  
DOCKED: ATOM      3  C   UNL     1     -38.425 -15.960  10.796 -0.21 +0.00    +0.004 A  
DOCKED: ATOM      4  C   UNL     1     -37.978 -17.251  11.039 -0.24 +0.00    +0.006 A  
DOCKED: ATOM      5  C   UNL     1     -36.781 -17.213  11.909 -0.17 +0.00    +0.169 C  
DOCKED: ATOM      6  C   UNL     1     -39.552 -15.730  10.021 -0.26 -0.00    -0.001 A  
DOCKED: ATOM      7  C   UNL     1     -38.636 -18.351  10.515 -0.33 +0.00    +0.008 A  
DOCKED: ATOM      8  C   UNL     1     -40.223 -16.829   9.482 -0.30 +0.00    +0.010 A  
DOCKED: ATOM      9  C   UNL     1     -39.767 -18.133   9.728 -0.29 +0.00    +0.068 A  
DOCKED: ATOM     10  N   UNL     1     -41.040 -20.150   8.716 -2.56 -0.00    -0.191 NA 
DOCKED: ATOM     11  C   UNL     1     -40.469 -19.245   9.170 -0.37 +0.00    +0.101 C  
DOCKED: ENDROOT
DOCKED: BRANCH   2  12
DOCKED: ATOM     12  C   UNL     1     -38.225 -14.239  12.629 -0.04 +0.00    +0.038 C  
DOCKED: BRANCH  12  13
DOCKED: ATOM     13  C   UNL     1     -39.200 -15.153  13.370 -0.03 +0.00    +0.038 C  
DOCKED: BRANCH  13  14
DOCKED: ATOM     14  C   UNL     1     -40.412 -14.370  13.872 -0.00 +0.00    +0.251 C  
DOCKED: BRANCH  14  15
DOCKED: ATOM     15  N   UNL     1     -41.628 -14.848  13.225 -0.02 +0.00    +0.141 N  
DOCKED: ATOM     16  C   UNL     1     -41.559 -16.293  13.000 -0.01 +0.00    +0.285 C  
DOCKED: ATOM     17  C   UNL     1     -42.805 -14.516  14.030 +0.00 +0.00    +0.285 C  
DOCKED: ENDBRANCH  14  15
DOCKED: ENDBRANCH  13  14
DOCKED: ENDBRANCH  12  13
DOCKED: ENDBRANCH   2  12
DOCKED: BRANCH   2  18
DOCKED: ATOM     18  C   UNL     1     -36.875 -14.019  10.551 -0.13 +0.00    +0.006 A  
DOCKED: ATOM     19  C   UNL     1     -37.060 -14.158   9.176 -0.11 +0.00    +0.001 A  
DOCKED: ATOM     20  C   UNL     1     -36.448 -13.263   8.298 -0.11 +0.00    +0.029 A  
DOCKED: ATOM     21  C   UNL     1     -35.653 -12.231   8.795 -0.06 +0.00    +0.140 A  
DOCKED: ATOM     22  C   UNL     1     -35.469 -12.093  10.171 -0.04 +0.00    +0.029 A  
DOCKED: ATOM     23  F   UNL     1     -35.067 -11.371   7.952 -0.00 -0.00    -0.204 F  
DOCKED: ATOM     24  C   UNL     1     -36.080 -12.988  11.050 -0.05 +0.00    +0.001 A  
DOCKED: ENDBRANCH   2  18
DOCKED: TORSDOF 5
DOCKED: TER
DOCKED: ENDMDL
________________________________________________________________________________


    FINAL DOCKED STATE:
    ________________________


Run:   350 / 512
Time taken for this run:   0.002s

DOCKED: MODEL        350
DOCKED: USER    Run = 350
DOCKED: USER
DOCKED: USER    Estimated Free Energy of Binding    =  -5.30 kcal/mol  [=(1)+(2)+(3)-(4)]
DOCKED: USER
DOCKED: USER    (1) Final Intermolecular Energy     =  -6.79 kcal/mol
DOCKED: USER        vdW + Hbond + desolv Energy     =  -6.79 kcal/mol
DOCKED: USER        Electrostatic Energy            =  +0.00 kcal/mol
DOCKED: USER        Moving Ligand-Fixed Receptor    =  -6.79 kcal/mol
DOCKED: USER        Moving Ligand-Moving Receptor   =  +0.00 kcal/mol
DOCKED: USER    (2) Final Total Internal Energy     =  -1.05 kcal/mol
DOCKED: USER    (3) Torsional Free Energy           =  +1.49 kcal/mol
DOCKED: USER    (4) Unbound System's Energy         =  -1.05 kcal/mol
DOCKED: USER
DOCKED: USER
DOCKED: REMARK  5 active torsions:
DOCKED: REMARK  status: ('A' for Active; 'I' for Inactive)
DOCKED: REMARK    1  A    between atoms: C_2  and  C_19 
DOCKED: REMARK    2  A    between atoms: C_2  and  C_11 
DOCKED: REMARK    3  A    between atoms: C_19  and  C_20 
DOCKED: REMARK    4  A    between atoms: C_20  and  C_21 
DOCKED: REMARK    5  A    between atoms: C_21  and  N_22 
DOCKED: USER                              x       y       z     vdW  Elec       q    Type
DOCKED: USER                           _______ _______ _______ _____ _____    ______ ____
DOCKED: ROOT
DOCKED: ATOM      1  O   UNL     1     -42.482 -18.150  11.960 -0.01 -0.00    -0.346 OA 
DOCKED: ATOM      2  C   UNL     1     -41.206 -17.480  11.706 -0.10 +0.00    +0.130 C  
DOCKED: ATOM      3  C   UNL     1     -40.974 -17.693  10.238 -0.23 +0.00    +0.004 A  
DOCKED: ATOM      4  C   UNL     1     -42.072 -18.332   9.680 -0.28 +0.00    +0.006 A  
DOCKED: ATOM      5  C   UNL     1     -43.097 -18.571  10.720 -0.16 +0.00    +0.169 C  
DOCKED: ATOM      6  C   UNL     1     -39.883 -17.339   9.458 -0.34 -0.00    -0.001 A  
DOCKED: ATOM      7  C   UNL     1     -42.116 -18.641   8.331 -0.35 +0.00    +0.008 A  
DOCKED: ATOM      8  C   UNL     1     -39.911 -17.648   8.097 -0.35 +0.00    +0.010 A  
DOCKED: ATOM      9  C   UNL     1     -41.022 -18.296   7.537 -0.33 +0.00    +0.068 A  
DOCKED: ATOM     10  N   UNL     1     -41.043 -18.851   5.006 -3.01 -0.00    -0.191 NA 
DOCKED: ATOM     11  C   UNL     1     -41.033 -18.603   6.141 -0.26 +0.00    +0.101 C  
DOCKED: ENDROOT
DOCKED: BRANCH   2  12
DOCKED: ATOM     12  C   UNL     1     -41.352 -16.009  12.077 -0.09 +0.00    +0.038 C  
DOCKED: BRANCH  12  13
DOCKED: ATOM     13  C   UNL     1     -40.237 -15.166  11.461 -0.13 +0.00    +0.038 C  
DOCKED: BRANCH  13  14
DOCKED: ATOM     14  C   UNL     1     -40.798 -13.903  10.810 -0.13 +0.00    +0.251 C  
DOCKED: BRANCH  14  15
DOCKED: ATOM     15  N   UNL     1     -42.224 -13.781  11.087 -0.11 +0.00    +0.141 N  
DOCKED: ATOM     16  C   UNL     1     -42.488 -12.613  11.928 -0.02 +0.00    +0.285 C  
DOCKED: ATOM     17  C   UNL     1     -42.985 -13.690   9.840 -0.10 +0.00    +0.285 C  
DOCKED: ENDBRANCH  14  15
DOCKED: ENDBRANCH  13  14
DOCKED: ENDBRANCH  12  13
DOCKED: ENDBRANCH   2  12
DOCKED: BRANCH   2  18
DOCKED: ATOM     18  C   UNL     1     -40.183 -18.151  12.560 -0.14 +0.00    +0.006 A  
DOCKED: ATOM     19  C   UNL     1     -39.537 -17.434  13.567 -0.08 +0.00    +0.001 A  
DOCKED: ATOM     20  C   UNL     1     -38.580 -18.063  14.365 -0.11 +0.00    +0.029 A  
DOCKED: ATOM     21  C   UNL     1     -38.271 -19.407  14.155 -0.07 +0.00    +0.140 A  
DOCKED: ATOM     22  C   UNL     1     -38.918 -20.123  13.148 -0.12 +0.00    +0.029 A  
DOCKED: ATOM     23  F   UNL     1     -37.354 -20.010  14.922 -0.02 -0.00    -0.204 F  
DOCKED: ATOM     24  C   UNL     1     -39.875 -19.494  12.349 -0.26 +0.00    +0.001 A  
DOCKED: ENDBRANCH   2  18
DOCKED: TORSDOF 5
DOCKED: TER
DOCKED: ENDMDL
________________________________________________________________________________


    FINAL DOCKED STATE:
    ________________________


Run:   351 / 512
Time taken for this run:   0.002s

DOCKED: MODEL        351
DOCKED: USER    Run = 351
DOCKED: USER
DOCKED: USER    Estimated Free Energy of Binding    =  -4.11 kcal/mol  [=(1)+(2)+(3)-(4)]
DOCKED: USER
DOCKED: USER    (1) Final Intermolecular Energy     =  -5.60 kcal/mol
DOCKED: USER        vdW + Hbond + desolv Energy     =  -5.60 kcal/mol
DOCKED: USER        Electrostatic Energy            =  +0.00 kcal/mol
DOCKED: USER        Moving Ligand-Fixed Receptor    =  -5.60 kcal/mol
DOCKED: USER        Moving Ligand-Moving Receptor   =  +0.00 kcal/mol
DOCKED: USER    (2) Final Total Internal Energy     =  -1.08 kcal/mol
DOCKED: USER    (3) Torsional Free Energy           =  +1.49 kcal/mol
DOCKED: USER    (4) Unbound System's Energy         =  -1.08 kcal/mol
DOCKED: USER
DOCKED: USER
DOCKED: REMARK  5 active torsions:
DOCKED: REMARK  status: ('A' for Active; 'I' for Inactive)
DOCKED: REMARK    1  A    between atoms: C_2  and  C_19 
DOCKED: REMARK    2  A    between atoms: C_2  and  C_11 
DOCKED: REMARK    3  A    between atoms: C_19  and  C_20 
DOCKED: REMARK    4  A    between atoms: C_20  and  C_21 
DOCKED: REMARK    5  A    between atoms: C_21  and  N_22 
DOCKED: USER                              x       y       z     vdW  Elec       q    Type
DOCKED: USER                           _______ _______ _______ _____ _____    ______ ____
DOCKED: ROOT
DOCKED: ATOM      1  O   UNL     1     -32.988  -6.440   2.864 -0.08 -0.00    -0.346 OA 
DOCKED: ATOM      2  C   UNL     1     -33.179  -7.851   2.526 -0.12 +0.00    +0.130 C  
DOCKED: ATOM      3  C   UNL     1     -34.264  -7.829   1.489 -0.16 +0.00    +0.004 A  
DOCKED: ATOM      4  C   UNL     1     -34.587  -6.516   1.179 -0.22 +0.00    +0.006 A  
DOCKED: ATOM      5  C   UNL     1     -33.743  -5.591   1.969 -0.18 +0.00    +0.169 C  
DOCKED: ATOM      6  C   UNL     1     -34.905  -8.887   0.861 -0.20 -0.00    -0.001 A  
DOCKED: ATOM      7  C   UNL     1     -35.560  -6.215   0.241 -0.29 +0.00    +0.008 A  
DOCKED: ATOM      8  C   UNL     1     -35.891  -8.600  -0.085 -0.22 +0.00    +0.010 A  
DOCKED: ATOM      9  C   UNL     1     -36.216  -7.271  -0.394 -0.35 +0.00    +0.068 A  
DOCKED: ATOM     10  N   UNL     1     -38.047  -6.773  -2.158 -2.55 -0.00    -0.191 NA 
DOCKED: ATOM     11  C   UNL     1     -37.226  -6.996  -1.366 -0.43 +0.00    +0.101 C  
DOCKED: ENDROOT
DOCKED: BRANCH   2  12
DOCKED: ATOM     12  C   UNL     1     -31.861  -8.403   1.995 -0.04 +0.00    +0.038 C  
DOCKED: BRANCH  12  13
DOCKED: ATOM     13  C   UNL     1     -32.027  -9.824   1.461 -0.02 +0.00    +0.038 C  
DOCKED: BRANCH  13  14
DOCKED: ATOM     14  C   UNL     1     -30.917 -10.172   0.472 +0.00 +0.00    +0.251 C  
DOCKED: BRANCH  14  15
DOCKED: ATOM     15  N   UNL     1     -31.440 -10.201  -0.889 -0.01 +0.00    +0.141 N  
DOCKED: ATOM     16  C   UNL     1     -32.646 -11.027  -0.961 -0.03 +0.00    +0.285 C  
DOCKED: ATOM     17  C   UNL     1     -31.725  -8.844  -1.360 +0.00 +0.00    +0.285 C  
DOCKED: ENDBRANCH  14  15
DOCKED: ENDBRANCH  13  14
DOCKED: ENDBRANCH  12  13
DOCKED: ENDBRANCH   2  12
DOCKED: BRANCH   2  18
DOCKED: ATOM     18  C   UNL     1     -33.588  -8.548   3.781 -0.14 +0.00    +0.006 A  
DOCKED: ATOM     19  C   UNL     1     -32.779  -8.476   4.914 -0.11 +0.00    +0.001 A  
DOCKED: ATOM     20  C   UNL     1     -33.162  -9.129   6.086 -0.09 +0.00    +0.029 A  
DOCKED: ATOM     21  C   UNL     1     -34.354  -9.852   6.124 -0.08 +0.00    +0.140 A  
DOCKED: ATOM     22  C   UNL     1     -35.163  -9.923   4.990 -0.14 +0.00    +0.029 A  
DOCKED: ATOM     23  F   UNL     1     -34.722 -10.477   7.250 -0.00 -0.00    -0.204 F  
DOCKED: ATOM     24  C   UNL     1     -34.780  -9.271   3.817 -0.16 +0.00    +0.001 A  
DOCKED: ENDBRANCH   2  18
DOCKED: TORSDOF 5
DOCKED: TER
DOCKED: ENDMDL
________________________________________________________________________________


    FINAL DOCKED STATE:
    ________________________


Run:   352 / 512
Time taken for this run:   0.002s

DOCKED: MODEL        352
DOCKED: USER    Run = 352
DOCKED: USER
DOCKED: USER    Estimated Free Energy of Binding    =  -4.21 kcal/mol  [=(1)+(2)+(3)-(4)]
DOCKED: USER
DOCKED: USER    (1) Final Intermolecular Energy     =  -5.70 kcal/mol
DOCKED: USER        vdW + Hbond + desolv Energy     =  -5.70 kcal/mol
DOCKED: USER        Electrostatic Energy            =  +0.00 kcal/mol
DOCKED: USER        Moving Ligand-Fixed Receptor    =  -5.70 kcal/mol
DOCKED: USER        Moving Ligand-Moving Receptor   =  +0.00 kcal/mol
DOCKED: USER    (2) Final Total Internal Energy     =  -1.41 kcal/mol
DOCKED: USER    (3) Torsional Free Energy           =  +1.49 kcal/mol
DOCKED: USER    (4) Unbound System's Energy         =  -1.41 kcal/mol
DOCKED: USER
DOCKED: USER
DOCKED: REMARK  5 active torsions:
DOCKED: REMARK  status: ('A' for Active; 'I' for Inactive)
DOCKED: REMARK    1  A    between atoms: C_2  and  C_19 
DOCKED: REMARK    2  A    between atoms: C_2  and  C_11 
DOCKED: REMARK    3  A    between atoms: C_19  and  C_20 
DOCKED: REMARK    4  A    between atoms: C_20  and  C_21 
DOCKED: REMARK    5  A    between atoms: C_21  and  N_22 
DOCKED: USER                              x       y       z     vdW  Elec       q    Type
DOCKED: USER                           _______ _______ _______ _____ _____    ______ ____
DOCKED: ROOT
DOCKED: ATOM      1  O   UNL     1     -37.352 -14.823  11.321 -0.05 -0.00    -0.346 OA 
DOCKED: ATOM      2  C   UNL     1     -38.769 -14.478  11.204 -0.11 +0.00    +0.130 C  
DOCKED: ATOM      3  C   UNL     1     -39.393 -15.711  10.619 -0.22 +0.00    +0.004 A  
DOCKED: ATOM      4  C   UNL     1     -38.437 -16.712  10.513 -0.25 +0.00    +0.006 A  
DOCKED: ATOM      5  C   UNL     1     -37.138 -16.223  11.026 -0.09 +0.00    +0.169 C  
DOCKED: ATOM      6  C   UNL     1     -40.703 -15.934  10.221 -0.24 -0.00    -0.001 A  
DOCKED: ATOM      7  C   UNL     1     -38.755 -17.961  10.006 -0.32 +0.00    +0.008 A  
DOCKED: ATOM      8  C   UNL     1     -41.038 -17.186   9.704 -0.25 +0.00    +0.010 A  
DOCKED: ATOM      9  C   UNL     1     -40.069 -18.195   9.598 -0.29 +0.00    +0.068 A  
DOCKED: ATOM     10  N   UNL     1     -40.725 -20.510   8.638 -2.56 -0.00    -0.191 NA 
DOCKED: ATOM     11  C   UNL     1     -40.431 -19.471   9.068 -0.34 +0.00    +0.101 C  
DOCKED: ENDROOT
DOCKED: BRANCH   2  12
DOCKED: ATOM     12  C   UNL     1     -39.301 -14.146  12.594 -0.04 +0.00    +0.038 C  
DOCKED: BRANCH  12  13
DOCKED: ATOM     13  C   UNL     1     -38.478 -14.830  13.683 -0.02 +0.00    +0.038 C  
DOCKED: BRANCH  13  14
DOCKED: ATOM     14  C   UNL     1     -39.346 -15.764  14.524 -0.01 +0.00    +0.251 C  
DOCKED: BRANCH  14  15
DOCKED: ATOM     15  N   UNL     1     -39.334 -17.110  13.963 -0.04 +0.00    +0.141 N  
DOCKED: ATOM     16  C   UNL     1     -38.836 -18.074  14.946 -0.05 +0.00    +0.285 C  
DOCKED: ATOM     17  C   UNL     1     -40.672 -17.492  13.510 -0.02 +0.00    +0.285 C  
DOCKED: ENDBRANCH  14  15
DOCKED: ENDBRANCH  13  14
DOCKED: ENDBRANCH  12  13
DOCKED: ENDBRANCH   2  12
DOCKED: BRANCH   2  18
DOCKED: ATOM     18  C   UNL     1     -38.857 -13.295  10.298 -0.15 +0.00    +0.006 A  
DOCKED: ATOM     19  C   UNL     1     -40.056 -12.594  10.182 -0.17 +0.00    +0.001 A  
DOCKED: ATOM     20  C   UNL     1     -40.136 -11.489   9.333 -0.16 +0.00    +0.029 A  
DOCKED: ATOM     21  C   UNL     1     -39.019 -11.087   8.604 -0.10 +0.00    +0.140 A  
DOCKED: ATOM     22  C   UNL     1     -37.819 -11.788   8.721 -0.08 +0.00    +0.029 A  
DOCKED: ATOM     23  F   UNL     1     -39.096 -10.025   7.792 -0.02 -0.00    -0.204 F  
DOCKED: ATOM     24  C   UNL     1     -37.738 -12.894   9.569 -0.13 +0.00    +0.001 A  
DOCKED: ENDBRANCH   2  18
DOCKED: TORSDOF 5
DOCKED: TER
DOCKED: ENDMDL
________________________________________________________________________________


    FINAL DOCKED STATE:
    ________________________


Run:   353 / 512
Time taken for this run:   0.002s

DOCKED: MODEL        353
DOCKED: USER    Run = 353
DOCKED: USER
DOCKED: USER    Estimated Free Energy of Binding    =  -4.08 kcal/mol  [=(1)+(2)+(3)-(4)]
DOCKED: USER
DOCKED: USER    (1) Final Intermolecular Energy     =  -5.57 kcal/mol
DOCKED: USER        vdW + Hbond + desolv Energy     =  -5.57 kcal/mol
DOCKED: USER        Electrostatic Energy            =  +0.00 kcal/mol
DOCKED: USER        Moving Ligand-Fixed Receptor    =  -5.57 kcal/mol
DOCKED: USER        Moving Ligand-Moving Receptor   =  +0.00 kcal/mol
DOCKED: USER    (2) Final Total Internal Energy     =  -1.26 kcal/mol
DOCKED: USER    (3) Torsional Free Energy           =  +1.49 kcal/mol
DOCKED: USER    (4) Unbound System's Energy         =  -1.26 kcal/mol
DOCKED: USER
DOCKED: USER
DOCKED: REMARK  5 active torsions:
DOCKED: REMARK  status: ('A' for Active; 'I' for Inactive)
DOCKED: REMARK    1  A    between atoms: C_2  and  C_19 
DOCKED: REMARK    2  A    between atoms: C_2  and  C_11 
DOCKED: REMARK    3  A    between atoms: C_19  and  C_20 
DOCKED: REMARK    4  A    between atoms: C_20  and  C_21 
DOCKED: REMARK    5  A    between atoms: C_21  and  N_22 
DOCKED: USER                              x       y       z     vdW  Elec       q    Type
DOCKED: USER                           _______ _______ _______ _____ _____    ______ ____
DOCKED: ROOT
DOCKED: ATOM      1  O   UNL     1     -33.117 -10.776   1.339 +0.01 -0.00    -0.346 OA 
DOCKED: ATOM      2  C   UNL     1     -34.271 -10.710   2.237 -0.09 +0.00    +0.130 C  
DOCKED: ATOM      3  C   UNL     1     -35.238  -9.816   1.515 -0.21 +0.00    +0.004 A  
DOCKED: ATOM      4  C   UNL     1     -34.729  -9.490   0.267 -0.17 +0.00    +0.006 A  
DOCKED: ATOM      5  C   UNL     1     -33.416 -10.145   0.072 -0.07 +0.00    +0.169 C  
DOCKED: ATOM      6  C   UNL     1     -36.474  -9.340   1.927 -0.30 -0.00    -0.001 A  
DOCKED: ATOM      7  C   UNL     1     -35.430  -8.678  -0.608 -0.22 +0.00    +0.008 A  
DOCKED: ATOM      8  C   UNL     1     -37.192  -8.516   1.058 -0.35 +0.00    +0.010 A  
DOCKED: ATOM      9  C   UNL     1     -36.673  -8.187  -0.203 -0.16 +0.00    +0.068 A  
DOCKED: ATOM     10  N   UNL     1     -38.033  -6.660  -1.793 -2.38 -0.00    -0.191 NA 
DOCKED: ATOM     11  C   UNL     1     -37.423  -7.344  -1.080 -0.40 +0.00    +0.101 C  
DOCKED: ENDROOT
DOCKED: BRANCH   2  12
DOCKED: ATOM     12  C   UNL     1     -34.806 -12.122   2.440 -0.17 +0.00    +0.038 C  
DOCKED: BRANCH  12  13
DOCKED: ATOM     13  C   UNL     1     -35.371 -12.307   3.847 -0.16 +0.00    +0.038 C  
DOCKED: BRANCH  13  14
DOCKED: ATOM     14  C   UNL     1     -36.885 -12.108   3.863 -0.18 +0.00    +0.251 C  
DOCKED: BRANCH  14  15
DOCKED: ATOM     15  N   UNL     1     -37.235 -10.944   4.668 -0.18 +0.00    +0.141 N  
DOCKED: ATOM     16  C   UNL     1     -38.680 -10.891   4.897 -0.17 +0.00    +0.285 C  
DOCKED: ATOM     17  C   UNL     1     -36.519 -10.966   5.944 -0.08 +0.00    +0.285 C  
DOCKED: ENDBRANCH  14  15
DOCKED: ENDBRANCH  13  14
DOCKED: ENDBRANCH  12  13
DOCKED: ENDBRANCH   2  12
DOCKED: BRANCH   2  18
DOCKED: ATOM     18  C   UNL     1     -33.790 -10.127   3.524 -0.08 +0.00    +0.006 A  
DOCKED: ATOM     19  C   UNL     1     -34.474  -9.060   4.105 -0.14 +0.00    +0.001 A  
DOCKED: ATOM     20  C   UNL     1     -34.023  -8.516   5.308 +0.07 +0.00    +0.029 A  
DOCKED: ATOM     21  C   UNL     1     -32.889  -9.038   5.928 -0.07 +0.00    +0.140 A  
DOCKED: ATOM     22  C   UNL     1     -32.205 -10.106   5.346 -0.03 +0.00    +0.029 A  
DOCKED: ATOM     23  F   UNL     1     -32.457  -8.517   7.083 -0.03 -0.00    -0.204 F  
DOCKED: ATOM     24  C   UNL     1     -32.655 -10.651   4.143 -0.03 +0.00    +0.001 A  
DOCKED: ENDBRANCH   2  18
DOCKED: TORSDOF 5
DOCKED: TER
DOCKED: ENDMDL
________________________________________________________________________________


    FINAL DOCKED STATE:
    ________________________


Run:   354 / 512
Time taken for this run:   0.002s

DOCKED: MODEL        354
DOCKED: USER    Run = 354
DOCKED: USER
DOCKED: USER    Estimated Free Energy of Binding    =  -3.42 kcal/mol  [=(1)+(2)+(3)-(4)]
DOCKED: USER
DOCKED: USER    (1) Final Intermolecular Energy     =  -4.92 kcal/mol
DOCKED: USER        vdW + Hbond + desolv Energy     =  -4.92 kcal/mol
DOCKED: USER        Electrostatic Energy            =  +0.00 kcal/mol
DOCKED: USER        Moving Ligand-Fixed Receptor    =  -4.92 kcal/mol
DOCKED: USER        Moving Ligand-Moving Receptor   =  +0.00 kcal/mol
DOCKED: USER    (2) Final Total Internal Energy     =  -1.30 kcal/mol
DOCKED: USER    (3) Torsional Free Energy           =  +1.49 kcal/mol
DOCKED: USER    (4) Unbound System's Energy         =  -1.30 kcal/mol
DOCKED: USER
DOCKED: USER
DOCKED: REMARK  5 active torsions:
DOCKED: REMARK  status: ('A' for Active; 'I' for Inactive)
DOCKED: REMARK    1  A    between atoms: C_2  and  C_19 
DOCKED: REMARK    2  A    between atoms: C_2  and  C_11 
DOCKED: REMARK    3  A    between atoms: C_19  and  C_20 
DOCKED: REMARK    4  A    between atoms: C_20  and  C_21 
DOCKED: REMARK    5  A    between atoms: C_21  and  N_22 
DOCKED: USER                              x       y       z     vdW  Elec       q    Type
DOCKED: USER                           _______ _______ _______ _____ _____    ______ ____
DOCKED: ROOT
DOCKED: ATOM      1  O   UNL     1     -39.556 -15.590  13.976 +0.00 -0.00    -0.346 OA 
DOCKED: ATOM      2  C   UNL     1     -38.493 -15.474  12.976 -0.04 +0.00    +0.130 C  
DOCKED: ATOM      3  C   UNL     1     -38.875 -16.479  11.928 -0.12 +0.00    +0.004 A  
DOCKED: ATOM      4  C   UNL     1     -40.104 -17.041  12.245 -0.09 +0.00    +0.006 A  
DOCKED: ATOM      5  C   UNL     1     -40.619 -16.446  13.499 -0.03 +0.00    +0.169 C  
DOCKED: ATOM      6  C   UNL     1     -38.195 -16.858  10.780 -0.23 -0.00    -0.001 A  
DOCKED: ATOM      7  C   UNL     1     -40.690 -17.997  11.434 -0.16 +0.00    +0.008 A  
DOCKED: ATOM      8  C   UNL     1     -38.771 -17.825   9.954 -0.32 +0.00    +0.010 A  
DOCKED: ATOM      9  C   UNL     1     -40.013 -18.391  10.279 -0.24 +0.00    +0.068 A  
DOCKED: ATOM     10  N   UNL     1     -41.056 -20.179   8.722 -2.55 -0.00    -0.191 NA 
DOCKED: ATOM     11  C   UNL     1     -40.588 -19.378   9.421 -0.31 +0.00    +0.101 C  
DOCKED: ENDROOT
DOCKED: BRANCH   2  12
DOCKED: ATOM     12  C   UNL     1     -38.480 -14.044  12.449 -0.05 +0.00    +0.038 C  
DOCKED: BRANCH  12  13
DOCKED: ATOM     13  C   UNL     1     -39.884 -13.578  12.068 -0.06 +0.00    +0.038 C  
DOCKED: BRANCH  13  14
DOCKED: ATOM     14  C   UNL     1     -40.273 -14.085  10.681 -0.14 +0.00    +0.251 C  
DOCKED: BRANCH  14  15
DOCKED: ATOM     15  N   UNL     1     -41.711 -13.953  10.477 -0.19 +0.00    +0.141 N  
DOCKED: ATOM     16  C   UNL     1     -42.311 -15.253  10.173 -0.11 +0.00    +0.285 C  
DOCKED: ATOM     17  C   UNL     1     -42.346 -13.364  11.657 -0.04 +0.00    +0.285 C  
DOCKED: ENDBRANCH  14  15
DOCKED: ENDBRANCH  13  14
DOCKED: ENDBRANCH  12  13
DOCKED: ENDBRANCH   2  12
DOCKED: BRANCH   2  18
DOCKED: ATOM     18  C   UNL     1     -37.210 -15.808  13.661 -0.04 +0.00    +0.006 A  
DOCKED: ATOM     19  C   UNL     1     -36.160 -14.891  13.657 -0.03 +0.00    +0.001 A  
DOCKED: ATOM     20  C   UNL     1     -34.960 -15.204  14.298 -0.02 +0.00    +0.029 A  
DOCKED: ATOM     21  C   UNL     1     -34.814 -16.432  14.942 -0.02 +0.00    +0.140 A  
DOCKED: ATOM     22  C   UNL     1     -35.866 -17.348  14.946 -0.07 +0.00    +0.029 A  
DOCKED: ATOM     23  F   UNL     1     -33.663 -16.731  15.559 +0.00 -0.00    -0.204 F  
DOCKED: ATOM     24  C   UNL     1     -37.066 -17.036  14.305 -0.08 +0.00    +0.001 A  
DOCKED: ENDBRANCH   2  18
DOCKED: TORSDOF 5
DOCKED: TER
DOCKED: ENDMDL
________________________________________________________________________________


    FINAL DOCKED STATE:
    ________________________


Run:   355 / 512
Time taken for this run:   0.002s

DOCKED: MODEL        355
DOCKED: USER    Run = 355
DOCKED: USER
DOCKED: USER    Estimated Free Energy of Binding    =  -5.46 kcal/mol  [=(1)+(2)+(3)-(4)]
DOCKED: USER
DOCKED: USER    (1) Final Intermolecular Energy     =  -6.95 kcal/mol
DOCKED: USER        vdW + Hbond + desolv Energy     =  -6.95 kcal/mol
DOCKED: USER        Electrostatic Energy            =  +0.00 kcal/mol
DOCKED: USER        Moving Ligand-Fixed Receptor    =  -6.95 kcal/mol
DOCKED: USER        Moving Ligand-Moving Receptor   =  +0.00 kcal/mol
DOCKED: USER    (2) Final Total Internal Energy     =  -1.15 kcal/mol
DOCKED: USER    (3) Torsional Free Energy           =  +1.49 kcal/mol
DOCKED: USER    (4) Unbound System's Energy         =  -1.15 kcal/mol
DOCKED: USER
DOCKED: USER
DOCKED: REMARK  5 active torsions:
DOCKED: REMARK  status: ('A' for Active; 'I' for Inactive)
DOCKED: REMARK    1  A    between atoms: C_2  and  C_19 
DOCKED: REMARK    2  A    between atoms: C_2  and  C_11 
DOCKED: REMARK    3  A    between atoms: C_19  and  C_20 
DOCKED: REMARK    4  A    between atoms: C_20  and  C_21 
DOCKED: REMARK    5  A    between atoms: C_21  and  N_22 
DOCKED: USER                              x       y       z     vdW  Elec       q    Type
DOCKED: USER                           _______ _______ _______ _____ _____    ______ ____
DOCKED: ROOT
DOCKED: ATOM      1  O   UNL     1     -38.844 -17.243  11.614 -0.05 -0.00    -0.346 OA 
DOCKED: ATOM      2  C   UNL     1     -39.995 -18.142  11.711 -0.15 +0.00    +0.130 C  
DOCKED: ATOM      3  C   UNL     1     -40.400 -18.363  10.283 -0.26 +0.00    +0.004 A  
DOCKED: ATOM      4  C   UNL     1     -39.494 -17.737   9.438 -0.36 +0.00    +0.006 A  
DOCKED: ATOM      5  C   UNL     1     -38.436 -17.078  10.236 -0.22 +0.00    +0.169 C  
DOCKED: ATOM      6  C   UNL     1     -41.477 -19.072   9.771 -0.26 -0.00    -0.001 A  
DOCKED: ATOM      7  C   UNL     1     -39.634 -17.793   8.062 -0.21 +0.00    +0.008 A  
DOCKED: ATOM      8  C   UNL     1     -41.634 -19.135   8.385 -0.39 +0.00    +0.010 A  
DOCKED: ATOM      9  C   UNL     1     -40.717 -18.498   7.535 -0.40 +0.00    +0.068 A  
DOCKED: ATOM     10  N   UNL     1     -41.036 -18.638   4.968 -3.18 -0.00    -0.191 NA 
DOCKED: ATOM     11  C   UNL     1     -40.893 -18.575   6.119 -0.33 +0.00    +0.101 C  
DOCKED: ENDROOT
DOCKED: BRANCH   2  12
DOCKED: ATOM     12  C   UNL     1     -39.550 -19.422  12.408 -0.30 +0.00    +0.038 C  
DOCKED: BRANCH  12  13
DOCKED: ATOM     13  C   UNL     1     -39.609 -19.279  13.927 -0.23 +0.00    +0.038 C  
DOCKED: BRANCH  13  14
DOCKED: ATOM     14  C   UNL     1     -38.301 -19.734  14.573 -0.12 +0.00    +0.251 C  
DOCKED: BRANCH  14  15
DOCKED: ATOM     15  N   UNL     1     -37.468 -18.582  14.896 -0.11 +0.00    +0.141 N  
DOCKED: ATOM     16  C   UNL     1     -38.087 -17.776  15.949 -0.03 +0.00    +0.285 C  
DOCKED: ATOM     17  C   UNL     1     -36.130 -19.012  15.306 -0.05 +0.00    +0.285 C  
DOCKED: ENDBRANCH  14  15
DOCKED: ENDBRANCH  13  14
DOCKED: ENDBRANCH  12  13
DOCKED: ENDBRANCH   2  12
DOCKED: BRANCH   2  18
DOCKED: ATOM     18  C   UNL     1     -41.038 -17.431  12.507 -0.09 +0.00    +0.006 A  
DOCKED: ATOM     19  C   UNL     1     -42.247 -18.063  12.794 -0.10 +0.00    +0.001 A  
DOCKED: ATOM     20  C   UNL     1     -43.222 -17.397  13.538 -0.05 +0.00    +0.029 A  
DOCKED: ATOM     21  C   UNL     1     -42.986 -16.101  13.995 -0.01 +0.00    +0.140 A  
DOCKED: ATOM     22  C   UNL     1     -41.776 -15.469  13.708 -0.02 +0.00    +0.029 A  
DOCKED: ATOM     23  F   UNL     1     -43.921 -15.463  14.711 +0.01 -0.00    -0.204 F  
DOCKED: ATOM     24  C   UNL     1     -40.801 -16.134  12.963 -0.05 +0.00    +0.001 A  
DOCKED: ENDBRANCH   2  18
DOCKED: TORSDOF 5
DOCKED: TER
DOCKED: ENDMDL
________________________________________________________________________________


    FINAL DOCKED STATE:
    ________________________


Run:   356 / 512
Time taken for this run:   0.002s

DOCKED: MODEL        356
DOCKED: USER    Run = 356
DOCKED: USER
DOCKED: USER    Estimated Free Energy of Binding    =  -4.58 kcal/mol  [=(1)+(2)+(3)-(4)]
DOCKED: USER
DOCKED: USER    (1) Final Intermolecular Energy     =  -6.07 kcal/mol
DOCKED: USER        vdW + Hbond + desolv Energy     =  -6.07 kcal/mol
DOCKED: USER        Electrostatic Energy            =  +0.00 kcal/mol
DOCKED: USER        Moving Ligand-Fixed Receptor    =  -6.07 kcal/mol
DOCKED: USER        Moving Ligand-Moving Receptor   =  +0.00 kcal/mol
DOCKED: USER    (2) Final Total Internal Energy     =  -1.25 kcal/mol
DOCKED: USER    (3) Torsional Free Energy           =  +1.49 kcal/mol
DOCKED: USER    (4) Unbound System's Energy         =  -1.25 kcal/mol
DOCKED: USER
DOCKED: USER
DOCKED: REMARK  5 active torsions:
DOCKED: REMARK  status: ('A' for Active; 'I' for Inactive)
DOCKED: REMARK    1  A    between atoms: C_2  and  C_19 
DOCKED: REMARK    2  A    between atoms: C_2  and  C_11 
DOCKED: REMARK    3  A    between atoms: C_19  and  C_20 
DOCKED: REMARK    4  A    between atoms: C_20  and  C_21 
DOCKED: REMARK    5  A    between atoms: C_21  and  N_22 
DOCKED: USER                              x       y       z     vdW  Elec       q    Type
DOCKED: USER                           _______ _______ _______ _____ _____    ______ ____
DOCKED: ROOT
DOCKED: ATOM      1  O   UNL     1     -41.692 -16.562  11.399 -0.02 -0.00    -0.346 OA 
DOCKED: ATOM      2  C   UNL     1     -40.320 -17.049  11.247 -0.13 +0.00    +0.130 C  
DOCKED: ATOM      3  C   UNL     1     -40.318 -17.703   9.896 -0.28 +0.00    +0.004 A  
DOCKED: ATOM      4  C   UNL     1     -41.547 -17.510   9.282 -0.24 +0.00    +0.006 A  
DOCKED: ATOM      5  C   UNL     1     -42.431 -16.717  10.165 -0.18 +0.00    +0.169 C  
DOCKED: ATOM      6  C   UNL     1     -39.305 -18.403   9.256 -0.38 -0.00    -0.001 A  
DOCKED: ATOM      7  C   UNL     1     -41.807 -18.010   8.017 -0.02 +0.00    +0.008 A  
DOCKED: ATOM      8  C   UNL     1     -39.553 -18.917   7.983 -0.35 +0.00    +0.010 A  
DOCKED: ATOM      9  C   UNL     1     -40.798 -18.721   7.366 -0.42 +0.00    +0.068 A  
DOCKED: ATOM     10  N   UNL     1     -41.224 -19.685   4.999 -2.31 -0.00    -0.191 NA 
DOCKED: ATOM     11  C   UNL     1     -41.033 -19.253   6.061 -0.34 +0.00    +0.101 C  
DOCKED: ENDROOT
DOCKED: BRANCH   2  12
DOCKED: ATOM     12  C   UNL     1     -39.373 -15.858  11.332 -0.15 +0.00    +0.038 C  
DOCKED: BRANCH  12  13
DOCKED: ATOM     13  C   UNL     1     -40.070 -14.633  11.919 -0.08 +0.00    +0.038 C  
DOCKED: BRANCH  13  14
DOCKED: ATOM     14  C   UNL     1     -40.763 -13.820  10.828 -0.13 +0.00    +0.251 C  
DOCKED: BRANCH  14  15
DOCKED: ATOM     15  N   UNL     1     -42.010 -13.254  11.331 -0.08 +0.00    +0.141 N  
DOCKED: ATOM     16  C   UNL     1     -42.075 -13.365  12.789 -0.01 +0.00    +0.285 C  
DOCKED: ATOM     17  C   UNL     1     -42.143 -11.855  10.921 -0.06 +0.00    +0.285 C  
DOCKED: ENDBRANCH  14  15
DOCKED: ENDBRANCH  13  14
DOCKED: ENDBRANCH  12  13
DOCKED: ENDBRANCH   2  12
DOCKED: BRANCH   2  18
DOCKED: ATOM     18  C   UNL     1     -40.074 -18.013  12.360 -0.14 +0.00    +0.006 A  
DOCKED: ATOM     19  C   UNL     1     -38.786 -18.495  12.592 -0.20 +0.00    +0.001 A  
DOCKED: ATOM     20  C   UNL     1     -38.558 -19.396  13.633 -0.14 +0.00    +0.029 A  
DOCKED: ATOM     21  C   UNL     1     -39.616 -19.813  14.439 -0.08 +0.00    +0.140 A  
DOCKED: ATOM     22  C   UNL     1     -40.903 -19.330  14.207 -0.14 +0.00    +0.029 A  
DOCKED: ATOM     23  F   UNL     1     -39.396 -20.677  15.439 -0.05 -0.00    -0.204 F  
DOCKED: ATOM     24  C   UNL     1     -41.133 -18.429  13.166 -0.13 +0.00    +0.001 A  
DOCKED: ENDBRANCH   2  18
DOCKED: TORSDOF 5
DOCKED: TER
DOCKED: ENDMDL
________________________________________________________________________________


    FINAL DOCKED STATE:
    ________________________


Run:   357 / 512
Time taken for this run:   0.002s

DOCKED: MODEL        357
DOCKED: USER    Run = 357
DOCKED: USER
DOCKED: USER    Estimated Free Energy of Binding    =  -4.90 kcal/mol  [=(1)+(2)+(3)-(4)]
DOCKED: USER
DOCKED: USER    (1) Final Intermolecular Energy     =  -6.39 kcal/mol
DOCKED: USER        vdW + Hbond + desolv Energy     =  -6.39 kcal/mol
DOCKED: USER        Electrostatic Energy            =  +0.00 kcal/mol
DOCKED: USER        Moving Ligand-Fixed Receptor    =  -6.39 kcal/mol
DOCKED: USER        Moving Ligand-Moving Receptor   =  +0.00 kcal/mol
DOCKED: USER    (2) Final Total Internal Energy     =  -1.19 kcal/mol
DOCKED: USER    (3) Torsional Free Energy           =  +1.49 kcal/mol
DOCKED: USER    (4) Unbound System's Energy         =  -1.19 kcal/mol
DOCKED: USER
DOCKED: USER
DOCKED: REMARK  5 active torsions:
DOCKED: REMARK  status: ('A' for Active; 'I' for Inactive)
DOCKED: REMARK    1  A    between atoms: C_2  and  C_19 
DOCKED: REMARK    2  A    between atoms: C_2  and  C_11 
DOCKED: REMARK    3  A    between atoms: C_19  and  C_20 
DOCKED: REMARK    4  A    between atoms: C_20  and  C_21 
DOCKED: REMARK    5  A    between atoms: C_21  and  N_22 
DOCKED: USER                              x       y       z     vdW  Elec       q    Type
DOCKED: USER                           _______ _______ _______ _____ _____    ______ ____
DOCKED: ROOT
DOCKED: ATOM      1  O   UNL     1     -39.954 -16.009  11.638 -0.02 -0.00    -0.346 OA 
DOCKED: ATOM      2  C   UNL     1     -39.017 -17.133  11.605 -0.15 +0.00    +0.130 C  
DOCKED: ATOM      3  C   UNL     1     -39.324 -17.820  10.306 -0.30 +0.00    +0.004 A  
DOCKED: ATOM      4  C   UNL     1     -40.275 -17.091   9.607 -0.30 +0.00    +0.006 A  
DOCKED: ATOM      5  C   UNL     1     -40.649 -15.883  10.376 -0.19 +0.00    +0.169 C  
DOCKED: ATOM      6  C   UNL     1     -38.795 -18.989   9.781 -0.41 -0.00    -0.001 A  
DOCKED: ATOM      7  C   UNL     1     -40.732 -17.506   8.367 -0.08 +0.00    +0.008 A  
DOCKED: ATOM      8  C   UNL     1     -39.249 -19.423   8.534 -0.36 +0.00    +0.010 A  
DOCKED: ATOM      9  C   UNL     1     -40.212 -18.684   7.831 -0.42 +0.00    +0.068 A  
DOCKED: ATOM     10  N   UNL     1     -41.029 -19.515   5.516 -2.05 -0.00    -0.191 NA 
DOCKED: ATOM     11  C   UNL     1     -40.663 -19.143   6.555 -0.51 +0.00    +0.101 C  
DOCKED: ENDROOT
DOCKED: BRANCH   2  12
DOCKED: ATOM     12  C   UNL     1     -37.598 -16.579  11.663 -0.19 +0.00    +0.038 C  
DOCKED: BRANCH  12  13
DOCKED: ATOM     13  C   UNL     1     -37.575 -15.076  11.391 -0.14 +0.00    +0.038 C  
DOCKED: BRANCH  13  14
DOCKED: ATOM     14  C   UNL     1     -36.704 -14.750  10.180 -0.06 +0.00    +0.251 C  
DOCKED: BRANCH  14  15
DOCKED: ATOM     15  N   UNL     1     -37.282 -13.647   9.422 -0.15 +0.00    +0.141 N  
DOCKED: ATOM     16  C   UNL     1     -38.255 -12.915  10.235 -0.09 +0.00    +0.285 C  
DOCKED: ATOM     17  C   UNL     1     -36.234 -12.742   8.948 -0.08 +0.00    +0.285 C  
DOCKED: ENDBRANCH  14  15
DOCKED: ENDBRANCH  13  14
DOCKED: ENDBRANCH  12  13
DOCKED: ENDBRANCH   2  12
DOCKED: BRANCH   2  18
DOCKED: ATOM     18  C   UNL     1     -39.312 -17.982  12.796 -0.14 +0.00    +0.006 A  
DOCKED: ATOM     19  C   UNL     1     -38.347 -18.149  13.789 -0.14 +0.00    +0.001 A  
DOCKED: ATOM     20  C   UNL     1     -38.624 -18.944  14.902 -0.16 +0.00    +0.029 A  
DOCKED: ATOM     21  C   UNL     1     -39.864 -19.570  15.021 -0.12 +0.00    +0.140 A  
DOCKED: ATOM     22  C   UNL     1     -40.828 -19.402  14.027 -0.14 +0.00    +0.029 A  
DOCKED: ATOM     23  F   UNL     1     -40.130 -20.331  16.090 -0.04 -0.00    -0.204 F  
DOCKED: ATOM     24  C   UNL     1     -40.552 -18.608  12.913 -0.16 +0.00    +0.001 A  
DOCKED: ENDBRANCH   2  18
DOCKED: TORSDOF 5
DOCKED: TER
DOCKED: ENDMDL
________________________________________________________________________________


    FINAL DOCKED STATE:
    ________________________


Run:   358 / 512
Time taken for this run:   0.002s

DOCKED: MODEL        358
DOCKED: USER    Run = 358
DOCKED: USER
DOCKED: USER    Estimated Free Energy of Binding    =  -4.90 kcal/mol  [=(1)+(2)+(3)-(4)]
DOCKED: USER
DOCKED: USER    (1) Final Intermolecular Energy     =  -6.39 kcal/mol
DOCKED: USER        vdW + Hbond + desolv Energy     =  -6.39 kcal/mol
DOCKED: USER        Electrostatic Energy            =  +0.00 kcal/mol
DOCKED: USER        Moving Ligand-Fixed Receptor    =  -6.39 kcal/mol
DOCKED: USER        Moving Ligand-Moving Receptor   =  +0.00 kcal/mol
DOCKED: USER    (2) Final Total Internal Energy     =  -1.29 kcal/mol
DOCKED: USER    (3) Torsional Free Energy           =  +1.49 kcal/mol
DOCKED: USER    (4) Unbound System's Energy         =  -1.29 kcal/mol
DOCKED: USER
DOCKED: USER
DOCKED: REMARK  5 active torsions:
DOCKED: REMARK  status: ('A' for Active; 'I' for Inactive)
DOCKED: REMARK    1  A    between atoms: C_2  and  C_19 
DOCKED: REMARK    2  A    between atoms: C_2  and  C_11 
DOCKED: REMARK    3  A    between atoms: C_19  and  C_20 
DOCKED: REMARK    4  A    between atoms: C_20  and  C_21 
DOCKED: REMARK    5  A    between atoms: C_21  and  N_22 
DOCKED: USER                              x       y       z     vdW  Elec       q    Type
DOCKED: USER                           _______ _______ _______ _____ _____    ______ ____
DOCKED: ROOT
DOCKED: ATOM      1  O   UNL     1     -40.167 -18.968  12.402 -0.08 -0.00    -0.346 OA 
DOCKED: ATOM      2  C   UNL     1     -39.747 -17.658  11.904 -0.13 +0.00    +0.130 C  
DOCKED: ATOM      3  C   UNL     1     -39.941 -17.759  10.419 -0.25 +0.00    +0.004 A  
DOCKED: ATOM      4  C   UNL     1     -40.526 -18.979  10.106 -0.29 +0.00    +0.006 A  
DOCKED: ATOM      5  C   UNL     1     -40.767 -19.752  11.345 -0.14 +0.00    +0.169 C  
DOCKED: ATOM      6  C   UNL     1     -39.636 -16.841   9.425 -0.33 -0.00    -0.001 A  
DOCKED: ATOM      7  C   UNL     1     -40.820 -19.323   8.798 -0.41 +0.00    +0.008 A  
DOCKED: ATOM      8  C   UNL     1     -39.922 -17.175   8.100 -0.11 +0.00    +0.010 A  
DOCKED: ATOM      9  C   UNL     1     -40.512 -18.409   7.788 -0.39 +0.00    +0.068 A  
DOCKED: ATOM     10  N   UNL     1     -41.034 -18.995   5.319 -2.59 -0.00    -0.191 NA 
DOCKED: ATOM     11  C   UNL     1     -40.799 -18.733   6.427 -0.43 +0.00    +0.101 C  
DOCKED: ENDROOT
DOCKED: BRANCH   2  12
DOCKED: ATOM     12  C   UNL     1     -40.626 -16.592  12.546 -0.08 +0.00    +0.038 C  
DOCKED: BRANCH  12  13
DOCKED: ATOM     13  C   UNL     1     -40.471 -15.245  11.844 -0.10 +0.00    +0.038 C  
DOCKED: BRANCH  13  14
DOCKED: ATOM     14  C   UNL     1     -39.393 -14.396  12.516 -0.02 +0.00    +0.251 C  
DOCKED: BRANCH  14  15
DOCKED: ATOM     15  N   UNL     1     -38.317 -14.106  11.576 -0.05 +0.00    +0.141 N  
DOCKED: ATOM     16  C   UNL     1     -38.859 -13.749  10.265 -0.12 +0.00    +0.285 C  
DOCKED: ATOM     17  C   UNL     1     -37.466 -13.028  12.084 -0.02 +0.00    +0.285 C  
DOCKED: ENDBRANCH  14  15
DOCKED: ENDBRANCH  13  14
DOCKED: ENDBRANCH  12  13
DOCKED: ENDBRANCH   2  12
DOCKED: BRANCH   2  18
DOCKED: ATOM     18  C   UNL     1     -38.317 -17.482  12.292 -0.16 +0.00    +0.006 A  
DOCKED: ATOM     19  C   UNL     1     -37.310 -17.668  11.346 -0.25 +0.00    +0.001 A  
DOCKED: ATOM     20  C   UNL     1     -35.973 -17.503  11.711 -0.17 +0.00    +0.029 A  
DOCKED: ATOM     21  C   UNL     1     -35.645 -17.153  13.020 -0.10 +0.00    +0.140 A  
DOCKED: ATOM     22  C   UNL     1     -36.653 -16.968  13.966 -0.08 +0.00    +0.029 A  
DOCKED: ATOM     23  F   UNL     1     -34.362 -16.994  13.369 -0.01 -0.00    -0.204 F  
DOCKED: ATOM     24  C   UNL     1     -37.991 -17.133  13.602 -0.09 +0.00    +0.001 A  
DOCKED: ENDBRANCH   2  18
DOCKED: TORSDOF 5
DOCKED: TER
DOCKED: ENDMDL
________________________________________________________________________________


    FINAL DOCKED STATE:
    ________________________


Run:   359 / 512
Time taken for this run:   0.002s

DOCKED: MODEL        359
DOCKED: USER    Run = 359
DOCKED: USER
DOCKED: USER    Estimated Free Energy of Binding    =  -4.67 kcal/mol  [=(1)+(2)+(3)-(4)]
DOCKED: USER
DOCKED: USER    (1) Final Intermolecular Energy     =  -6.16 kcal/mol
DOCKED: USER        vdW + Hbond + desolv Energy     =  -6.16 kcal/mol
DOCKED: USER        Electrostatic Energy            =  +0.00 kcal/mol
DOCKED: USER        Moving Ligand-Fixed Receptor    =  -6.16 kcal/mol
DOCKED: USER        Moving Ligand-Moving Receptor   =  +0.00 kcal/mol
DOCKED: USER    (2) Final Total Internal Energy     =  -1.47 kcal/mol
DOCKED: USER    (3) Torsional Free Energy           =  +1.49 kcal/mol
DOCKED: USER    (4) Unbound System's Energy         =  -1.47 kcal/mol
DOCKED: USER
DOCKED: USER
DOCKED: REMARK  5 active torsions:
DOCKED: REMARK  status: ('A' for Active; 'I' for Inactive)
DOCKED: REMARK    1  A    between atoms: C_2  and  C_19 
DOCKED: REMARK    2  A    between atoms: C_2  and  C_11 
DOCKED: REMARK    3  A    between atoms: C_19  and  C_20 
DOCKED: REMARK    4  A    between atoms: C_20  and  C_21 
DOCKED: REMARK    5  A    between atoms: C_21  and  N_22 
DOCKED: USER                              x       y       z     vdW  Elec       q    Type
DOCKED: USER                           _______ _______ _______ _____ _____    ______ ____
DOCKED: ROOT
DOCKED: ATOM      1  O   UNL     1     -38.611 -13.940  10.587 -0.06 -0.00    -0.346 OA 
DOCKED: ATOM      2  C   UNL     1     -39.993 -14.112  11.037 -0.13 +0.00    +0.130 C  
DOCKED: ATOM      3  C   UNL     1     -40.348 -15.499  10.585 -0.21 +0.00    +0.004 A  
DOCKED: ATOM      4  C   UNL     1     -39.233 -16.107  10.025 -0.28 +0.00    +0.006 A  
DOCKED: ATOM      5  C   UNL     1     -38.078 -15.184  10.078 -0.19 +0.00    +0.169 C  
DOCKED: ATOM      6  C   UNL     1     -41.557 -16.173  10.673 -0.19 -0.00    -0.001 A  
DOCKED: ATOM      7  C   UNL     1     -39.289 -17.400   9.533 -0.34 +0.00    +0.008 A  
DOCKED: ATOM      8  C   UNL     1     -41.631 -17.475  10.177 -0.22 +0.00    +0.010 A  
DOCKED: ATOM      9  C   UNL     1     -40.502 -18.086   9.610 -0.26 +0.00    +0.068 A  
DOCKED: ATOM     10  N   UNL     1     -40.672 -20.507   8.704 -2.61 -0.00    -0.191 NA 
DOCKED: ATOM     11  C   UNL     1     -40.596 -19.421   9.110 -0.35 +0.00    +0.101 C  
DOCKED: ENDROOT
DOCKED: BRANCH   2  12
DOCKED: ATOM     12  C   UNL     1     -40.030 -13.953  12.552 -0.04 +0.00    +0.038 C  
DOCKED: BRANCH  12  13
DOCKED: ATOM     13  C   UNL     1     -38.964 -14.813  13.228 -0.03 +0.00    +0.038 C  
DOCKED: BRANCH  13  14
DOCKED: ATOM     14  C   UNL     1     -39.584 -16.053  13.871 -0.01 +0.00    +0.251 C  
DOCKED: BRANCH  14  15
DOCKED: ATOM     15  N   UNL     1     -39.348 -17.227  13.039 -0.06 +0.00    +0.141 N  
DOCKED: ATOM     16  C   UNL     1     -37.935 -17.605  13.069 -0.07 +0.00    +0.285 C  
DOCKED: ATOM     17  C   UNL     1     -40.183 -18.346  13.479 -0.06 +0.00    +0.285 C  
DOCKED: ENDBRANCH  14  15
DOCKED: ENDBRANCH  13  14
DOCKED: ENDBRANCH  12  13
DOCKED: ENDBRANCH   2  12
DOCKED: BRANCH   2  18
DOCKED: ATOM     18  C   UNL     1     -40.805 -13.056  10.365 -0.19 +0.00    +0.006 A  
DOCKED: ATOM     19  C   UNL     1     -42.194 -13.064  10.483 -0.20 +0.00    +0.001 A  
DOCKED: ATOM     20  C   UNL     1     -42.953 -12.076   9.854 -0.19 +0.00    +0.029 A  
DOCKED: ATOM     21  C   UNL     1     -42.322 -11.082   9.108 -0.12 +0.00    +0.140 A  
DOCKED: ATOM     22  C   UNL     1     -40.932 -11.074   8.990 -0.16 +0.00    +0.029 A  
DOCKED: ATOM     23  F   UNL     1     -43.050 -10.133   8.506 -0.03 -0.00    -0.204 F  
DOCKED: ATOM     24  C   UNL     1     -40.172 -12.062   9.619 -0.17 +0.00    +0.001 A  
DOCKED: ENDBRANCH   2  18
DOCKED: TORSDOF 5
DOCKED: TER
DOCKED: ENDMDL
________________________________________________________________________________


    FINAL DOCKED STATE:
    ________________________


Run:   360 / 512
Time taken for this run:   0.002s

DOCKED: MODEL        360
DOCKED: USER    Run = 360
DOCKED: USER
DOCKED: USER    Estimated Free Energy of Binding    =  -4.37 kcal/mol  [=(1)+(2)+(3)-(4)]
DOCKED: USER
DOCKED: USER    (1) Final Intermolecular Energy     =  -5.86 kcal/mol
DOCKED: USER        vdW + Hbond + desolv Energy     =  -5.86 kcal/mol
DOCKED: USER        Electrostatic Energy            =  +0.00 kcal/mol
DOCKED: USER        Moving Ligand-Fixed Receptor    =  -5.86 kcal/mol
DOCKED: USER        Moving Ligand-Moving Receptor   =  +0.00 kcal/mol
DOCKED: USER    (2) Final Total Internal Energy     =  -1.42 kcal/mol
DOCKED: USER    (3) Torsional Free Energy           =  +1.49 kcal/mol
DOCKED: USER    (4) Unbound System's Energy         =  -1.42 kcal/mol
DOCKED: USER
DOCKED: USER
DOCKED: REMARK  5 active torsions:
DOCKED: REMARK  status: ('A' for Active; 'I' for Inactive)
DOCKED: REMARK    1  A    between atoms: C_2  and  C_19 
DOCKED: REMARK    2  A    between atoms: C_2  and  C_11 
DOCKED: REMARK    3  A    between atoms: C_19  and  C_20 
DOCKED: REMARK    4  A    between atoms: C_20  and  C_21 
DOCKED: REMARK    5  A    between atoms: C_21  and  N_22 
DOCKED: USER                              x       y       z     vdW  Elec       q    Type
DOCKED: USER                           _______ _______ _______ _____ _____    ______ ____
DOCKED: ROOT
DOCKED: ATOM      1  O   UNL     1     -36.770 -15.366  11.521 -0.06 -0.00    -0.346 OA 
DOCKED: ATOM      2  C   UNL     1     -38.051 -14.762  11.152 -0.13 +0.00    +0.130 C  
DOCKED: ATOM      3  C   UNL     1     -38.824 -15.900  10.549 -0.23 +0.00    +0.004 A  
DOCKED: ATOM      4  C   UNL     1     -38.093 -17.074  10.664 -0.24 +0.00    +0.006 A  
DOCKED: ATOM      5  C   UNL     1     -36.811 -16.802  11.351 -0.12 +0.00    +0.169 C  
DOCKED: ATOM      6  C   UNL     1     -40.079 -15.898   9.957 -0.26 -0.00    -0.001 A  
DOCKED: ATOM      7  C   UNL     1     -38.585 -18.278  10.190 -0.33 +0.00    +0.008 A  
DOCKED: ATOM      8  C   UNL     1     -40.586 -17.104   9.470 -0.29 +0.00    +0.010 A  
DOCKED: ATOM      9  C   UNL     1     -39.843 -18.288   9.587 -0.30 +0.00    +0.068 A  
DOCKED: ATOM     10  N   UNL     1     -40.817 -20.510   8.677 -2.56 -0.00    -0.191 NA 
DOCKED: ATOM     11  C   UNL     1     -40.380 -19.513   9.085 -0.32 +0.00    +0.101 C  
DOCKED: ENDROOT
DOCKED: BRANCH   2  12
DOCKED: ATOM     12  C   UNL     1     -38.703 -14.204  12.412 -0.05 +0.00    +0.038 C  
DOCKED: BRANCH  12  13
DOCKED: ATOM     13  C   UNL     1     -39.347 -15.312  13.243 -0.04 +0.00    +0.038 C  
DOCKED: BRANCH  13  14
DOCKED: ATOM     14  C   UNL     1     -38.343 -15.919  14.222 -0.01 +0.00    +0.251 C  
DOCKED: BRANCH  14  15
DOCKED: ATOM     15  N   UNL     1     -38.664 -17.318  14.475 -0.04 +0.00    +0.141 N  
DOCKED: ATOM     16  C   UNL     1     -39.706 -17.783  13.558 -0.04 +0.00    +0.285 C  
DOCKED: ATOM     17  C   UNL     1     -37.468 -18.153  14.350 -0.07 +0.00    +0.285 C  
DOCKED: ENDBRANCH  14  15
DOCKED: ENDBRANCH  13  14
DOCKED: ENDBRANCH  12  13
DOCKED: ENDBRANCH   2  12
DOCKED: BRANCH   2  18
DOCKED: ATOM     18  C   UNL     1     -37.756 -13.676  10.172 -0.15 +0.00    +0.006 A  
DOCKED: ATOM     19  C   UNL     1     -38.666 -12.636   9.990 -0.13 +0.00    +0.001 A  
DOCKED: ATOM     20  C   UNL     1     -38.389 -11.621   9.073 -0.11 +0.00    +0.029 A  
DOCKED: ATOM     21  C   UNL     1     -37.203 -11.647   8.341 -0.07 +0.00    +0.140 A  
DOCKED: ATOM     22  C   UNL     1     -36.293 -12.688   8.524 -0.12 +0.00    +0.029 A  
DOCKED: ATOM     23  F   UNL     1     -36.936 -10.672   7.463 -0.02 -0.00    -0.204 F  
DOCKED: ATOM     24  C   UNL     1     -36.570 -13.704   9.440 -0.16 +0.00    +0.001 A  
DOCKED: ENDBRANCH   2  18
DOCKED: TORSDOF 5
DOCKED: TER
DOCKED: ENDMDL
________________________________________________________________________________


    FINAL DOCKED STATE:
    ________________________


Run:   361 / 512
Time taken for this run:   0.002s

DOCKED: MODEL        361
DOCKED: USER    Run = 361
DOCKED: USER
DOCKED: USER    Estimated Free Energy of Binding    =  -4.07 kcal/mol  [=(1)+(2)+(3)-(4)]
DOCKED: USER
DOCKED: USER    (1) Final Intermolecular Energy     =  -5.56 kcal/mol
DOCKED: USER        vdW + Hbond + desolv Energy     =  -5.56 kcal/mol
DOCKED: USER        Electrostatic Energy            =  +0.00 kcal/mol
DOCKED: USER        Moving Ligand-Fixed Receptor    =  -5.56 kcal/mol
DOCKED: USER        Moving Ligand-Moving Receptor   =  +0.00 kcal/mol
DOCKED: USER    (2) Final Total Internal Energy     =  -1.57 kcal/mol
DOCKED: USER    (3) Torsional Free Energy           =  +1.49 kcal/mol
DOCKED: USER    (4) Unbound System's Energy         =  -1.57 kcal/mol
DOCKED: USER
DOCKED: USER
DOCKED: REMARK  5 active torsions:
DOCKED: REMARK  status: ('A' for Active; 'I' for Inactive)
DOCKED: REMARK    1  A    between atoms: C_2  and  C_19 
DOCKED: REMARK    2  A    between atoms: C_2  and  C_11 
DOCKED: REMARK    3  A    between atoms: C_19  and  C_20 
DOCKED: REMARK    4  A    between atoms: C_20  and  C_21 
DOCKED: REMARK    5  A    between atoms: C_21  and  N_22 
DOCKED: USER                              x       y       z     vdW  Elec       q    Type
DOCKED: USER                           _______ _______ _______ _____ _____    ______ ____
DOCKED: ROOT
DOCKED: ATOM      1  O   UNL     1     -41.809 -13.812  10.905 -0.07 -0.00    -0.346 OA 
DOCKED: ATOM      2  C   UNL     1     -40.385 -13.933  10.587 -0.18 +0.00    +0.130 C  
DOCKED: ATOM      3  C   UNL     1     -40.233 -15.365  10.160 -0.23 +0.00    +0.004 A  
DOCKED: ATOM      4  C   UNL     1     -41.477 -15.978  10.131 -0.21 +0.00    +0.006 A  
DOCKED: ATOM      5  C   UNL     1     -42.525 -15.007  10.517 -0.18 +0.00    +0.169 C  
DOCKED: ATOM      6  C   UNL     1     -39.086 -16.065   9.815 -0.29 -0.00    -0.001 A  
DOCKED: ATOM      7  C   UNL     1     -41.618 -17.305   9.762 -0.24 +0.00    +0.008 A  
DOCKED: ATOM      8  C   UNL     1     -39.211 -17.405   9.445 -0.34 +0.00    +0.010 A  
DOCKED: ATOM      9  C   UNL     1     -40.471 -18.022   9.418 -0.28 +0.00    +0.068 A  
DOCKED: ATOM     10  N   UNL     1     -40.667 -20.509   8.721 -2.62 -0.00    -0.191 NA 
DOCKED: ATOM     11  C   UNL     1     -40.579 -19.394   9.034 -0.38 +0.00    +0.101 C  
DOCKED: ENDROOT
DOCKED: BRANCH   2  12
DOCKED: ATOM     12  C   UNL     1     -40.053 -12.945   9.476 -0.13 +0.00    +0.038 C  
DOCKED: BRANCH  12  13
DOCKED: ATOM     13  C   UNL     1     -40.999 -11.745   9.496 -0.20 +0.00    +0.038 C  
DOCKED: BRANCH  13  14
DOCKED: ATOM     14  C   UNL     1     -40.343 -10.539  10.166 -0.05 +0.00    +0.251 C  
DOCKED: BRANCH  14  15
DOCKED: ATOM     15  N   UNL     1     -40.575 -10.569  11.605 -0.02 +0.00    +0.141 N  
DOCKED: ATOM     16  C   UNL     1     -40.163  -9.307  12.220 -0.00 +0.00    +0.285 C  
DOCKED: ATOM     17  C   UNL     1     -41.984 -10.839  11.894 -0.01 +0.00    +0.285 C  
DOCKED: ENDBRANCH  14  15
DOCKED: ENDBRANCH  13  14
DOCKED: ENDBRANCH  12  13
DOCKED: ENDBRANCH   2  12
DOCKED: BRANCH   2  18
DOCKED: ATOM     18  C   UNL     1     -39.631 -13.615  11.834 -0.06 +0.00    +0.006 A  
DOCKED: ATOM     19  C   UNL     1     -38.318 -13.153  11.755 -0.05 +0.00    +0.001 A  
DOCKED: ATOM     20  C   UNL     1     -37.613 -12.855  12.923 -0.01 +0.00    +0.029 A  
DOCKED: ATOM     21  C   UNL     1     -38.222 -13.020  14.166 -0.00 +0.00    +0.140 A  
DOCKED: ATOM     22  C   UNL     1     -39.536 -13.482  14.244 -0.00 +0.00    +0.029 A  
DOCKED: ATOM     23  F   UNL     1     -37.546 -12.733  15.286 -0.00 -0.00    -0.204 F  
DOCKED: ATOM     24  C   UNL     1     -40.241 -13.780  13.077 -0.02 +0.00    +0.001 A  
DOCKED: ENDBRANCH   2  18
DOCKED: TORSDOF 5
DOCKED: TER
DOCKED: ENDMDL
________________________________________________________________________________


    FINAL DOCKED STATE:
    ________________________


Run:   362 / 512
Time taken for this run:   0.002s

DOCKED: MODEL        362
DOCKED: USER    Run = 362
DOCKED: USER
DOCKED: USER    Estimated Free Energy of Binding    =  -4.19 kcal/mol  [=(1)+(2)+(3)-(4)]
DOCKED: USER
DOCKED: USER    (1) Final Intermolecular Energy     =  -5.68 kcal/mol
DOCKED: USER        vdW + Hbond + desolv Energy     =  -5.68 kcal/mol
DOCKED: USER        Electrostatic Energy            =  +0.00 kcal/mol
DOCKED: USER        Moving Ligand-Fixed Receptor    =  -5.68 kcal/mol
DOCKED: USER        Moving Ligand-Moving Receptor   =  +0.00 kcal/mol
DOCKED: USER    (2) Final Total Internal Energy     =  -1.27 kcal/mol
DOCKED: USER    (3) Torsional Free Energy           =  +1.49 kcal/mol
DOCKED: USER    (4) Unbound System's Energy         =  -1.27 kcal/mol
DOCKED: USER
DOCKED: USER
DOCKED: REMARK  5 active torsions:
DOCKED: REMARK  status: ('A' for Active; 'I' for Inactive)
DOCKED: REMARK    1  A    between atoms: C_2  and  C_19 
DOCKED: REMARK    2  A    between atoms: C_2  and  C_11 
DOCKED: REMARK    3  A    between atoms: C_19  and  C_20 
DOCKED: REMARK    4  A    between atoms: C_20  and  C_21 
DOCKED: REMARK    5  A    between atoms: C_21  and  N_22 
DOCKED: USER                              x       y       z     vdW  Elec       q    Type
DOCKED: USER                           _______ _______ _______ _____ _____    ______ ____
DOCKED: ROOT
DOCKED: ATOM      1  O   UNL     1     -38.854 -13.996  11.264 -0.03 -0.00    -0.346 OA 
DOCKED: ATOM      2  C   UNL     1     -40.314 -13.973  11.164 -0.12 +0.00    +0.130 C  
DOCKED: ATOM      3  C   UNL     1     -40.658 -15.324  10.606 -0.21 +0.00    +0.004 A  
DOCKED: ATOM      4  C   UNL     1     -39.507 -16.092  10.500 -0.23 +0.00    +0.006 A  
DOCKED: ATOM      5  C   UNL     1     -38.341 -15.320  10.985 -0.15 +0.00    +0.169 C  
DOCKED: ATOM      6  C   UNL     1     -41.892 -15.836  10.233 -0.22 -0.00    -0.001 A  
DOCKED: ATOM      7  C   UNL     1     -39.548 -17.388  10.016 -0.30 +0.00    +0.008 A  
DOCKED: ATOM      8  C   UNL     1     -41.950 -17.140   9.739 -0.23 +0.00    +0.010 A  
DOCKED: ATOM      9  C   UNL     1     -40.783 -17.912   9.632 -0.24 +0.00    +0.068 A  
DOCKED: ATOM     10  N   UNL     1     -40.926 -20.332   8.715 -2.54 -0.00    -0.191 NA 
DOCKED: ATOM     11  C   UNL     1     -40.862 -19.246   9.126 -0.35 +0.00    +0.101 C  
DOCKED: ENDROOT
DOCKED: BRANCH   2  12
DOCKED: ATOM     12  C   UNL     1     -40.889 -13.743  12.557 -0.04 +0.00    +0.038 C  
DOCKED: BRANCH  12  13
DOCKED: ATOM     13  C   UNL     1     -39.824 -13.925  13.636 -0.02 +0.00    +0.038 C  
DOCKED: BRANCH  13  14
DOCKED: ATOM     14  C   UNL     1     -40.280 -14.928  14.694 -0.00 +0.00    +0.251 C  
DOCKED: BRANCH  14  15
DOCKED: ATOM     15  N   UNL     1     -39.393 -16.085  14.712 -0.01 +0.00    +0.141 N  
DOCKED: ATOM     16  C   UNL     1     -39.226 -16.587  16.077 -0.00 +0.00    +0.285 C  
DOCKED: ATOM     17  C   UNL     1     -39.908 -17.143  13.842 -0.02 +0.00    +0.285 C  
DOCKED: ENDBRANCH  14  15
DOCKED: ENDBRANCH  13  14
DOCKED: ENDBRANCH  12  13
DOCKED: ENDBRANCH   2  12
DOCKED: BRANCH   2  18
DOCKED: ATOM     18  C   UNL     1     -40.671 -12.855  10.243 -0.19 +0.00    +0.006 A  
DOCKED: ATOM     19  C   UNL     1     -39.669 -12.178   9.548 -0.15 +0.00    +0.001 A  
DOCKED: ATOM     20  C   UNL     1     -40.004 -11.132   8.687 -0.16 +0.00    +0.029 A  
DOCKED: ATOM     21  C   UNL     1     -41.339 -10.766   8.521 -0.10 +0.00    +0.140 A  
DOCKED: ATOM     22  C   UNL     1     -42.340 -11.444   9.216 -0.12 +0.00    +0.029 A  
DOCKED: ATOM     23  F   UNL     1     -41.660  -9.763   7.693 -0.03 -0.00    -0.204 F  
DOCKED: ATOM     24  C   UNL     1     -42.006 -12.489  10.078 -0.21 +0.00    +0.001 A  
DOCKED: ENDBRANCH   2  18
DOCKED: TORSDOF 5
DOCKED: TER
DOCKED: ENDMDL
________________________________________________________________________________


    FINAL DOCKED STATE:
    ________________________


Run:   363 / 512
Time taken for this run:   0.002s

DOCKED: MODEL        363
DOCKED: USER    Run = 363
DOCKED: USER
DOCKED: USER    Estimated Free Energy of Binding    =  -4.21 kcal/mol  [=(1)+(2)+(3)-(4)]
DOCKED: USER
DOCKED: USER    (1) Final Intermolecular Energy     =  -5.71 kcal/mol
DOCKED: USER        vdW + Hbond + desolv Energy     =  -5.71 kcal/mol
DOCKED: USER        Electrostatic Energy            =  +0.00 kcal/mol
DOCKED: USER        Moving Ligand-Fixed Receptor    =  -5.71 kcal/mol
DOCKED: USER        Moving Ligand-Moving Receptor   =  +0.00 kcal/mol
DOCKED: USER    (2) Final Total Internal Energy     =  -1.45 kcal/mol
DOCKED: USER    (3) Torsional Free Energy           =  +1.49 kcal/mol
DOCKED: USER    (4) Unbound System's Energy         =  -1.45 kcal/mol
DOCKED: USER
DOCKED: USER
DOCKED: REMARK  5 active torsions:
DOCKED: REMARK  status: ('A' for Active; 'I' for Inactive)
DOCKED: REMARK    1  A    between atoms: C_2  and  C_19 
DOCKED: REMARK    2  A    between atoms: C_2  and  C_11 
DOCKED: REMARK    3  A    between atoms: C_19  and  C_20 
DOCKED: REMARK    4  A    between atoms: C_20  and  C_21 
DOCKED: REMARK    5  A    between atoms: C_21  and  N_22 
DOCKED: USER                              x       y       z     vdW  Elec       q    Type
DOCKED: USER                           _______ _______ _______ _____ _____    ______ ____
DOCKED: ROOT
DOCKED: ATOM      1  O   UNL     1     -35.955 -16.390  11.862 -0.09 -0.00    -0.346 OA 
DOCKED: ATOM      2  C   UNL     1     -36.971 -15.453  11.381 -0.13 +0.00    +0.130 C  
DOCKED: ATOM      3  C   UNL     1     -37.991 -16.335  10.723 -0.21 +0.00    +0.004 A  
DOCKED: ATOM      4  C   UNL     1     -37.646 -17.667  10.907 -0.22 +0.00    +0.006 A  
DOCKED: ATOM      5  C   UNL     1     -36.399 -17.757  11.699 -0.12 +0.00    +0.169 C  
DOCKED: ATOM      6  C   UNL     1     -39.140 -15.988  10.026 -0.27 -0.00    -0.001 A  
DOCKED: ATOM      7  C   UNL     1     -38.428 -18.691  10.401 -0.36 +0.00    +0.008 A  
DOCKED: ATOM      8  C   UNL     1     -39.936 -17.010   9.506 -0.32 +0.00    +0.010 A  
DOCKED: ATOM      9  C   UNL     1     -39.582 -18.354   9.693 -0.31 +0.00    +0.068 A  
DOCKED: ATOM     10  N   UNL     1     -41.086 -20.225   8.719 -2.53 -0.00    -0.191 NA 
DOCKED: ATOM     11  C   UNL     1     -40.411 -19.386   9.156 -0.36 +0.00    +0.101 C  
DOCKED: ENDROOT
DOCKED: BRANCH   2  12
DOCKED: ATOM     12  C   UNL     1     -37.529 -14.691  12.578 -0.05 +0.00    +0.038 C  
DOCKED: BRANCH  12  13
DOCKED: ATOM     13  C   UNL     1     -37.029 -15.279  13.895 -0.03 +0.00    +0.038 C  
DOCKED: BRANCH  13  14
DOCKED: ATOM     14  C   UNL     1     -35.905 -14.430  14.485 -0.00 +0.00    +0.251 C  
DOCKED: BRANCH  14  15
DOCKED: ATOM     15  N   UNL     1     -34.687 -14.583  13.698 -0.01 +0.00    +0.141 N  
DOCKED: ATOM     16  C   UNL     1     -33.909 -13.343  13.705 -0.00 +0.00    +0.285 C  
DOCKED: ATOM     17  C   UNL     1     -33.879 -15.692  14.208 -0.01 +0.00    +0.285 C  
DOCKED: ENDBRANCH  14  15
DOCKED: ENDBRANCH  13  14
DOCKED: ENDBRANCH  12  13
DOCKED: ENDBRANCH   2  12
DOCKED: BRANCH   2  18
DOCKED: ATOM     18  C   UNL     1     -36.295 -14.530  10.423 -0.13 +0.00    +0.006 A  
DOCKED: ATOM     19  C   UNL     1     -34.908 -14.560  10.287 -0.10 +0.00    +0.001 A  
DOCKED: ATOM     20  C   UNL     1     -34.277 -13.696   9.391 -0.09 +0.00    +0.029 A  
DOCKED: ATOM     21  C   UNL     1     -35.034 -12.805   8.632 -0.07 +0.00    +0.140 A  
DOCKED: ATOM     22  C   UNL     1     -36.421 -12.775   8.768 -0.12 +0.00    +0.029 A  
DOCKED: ATOM     23  F   UNL     1     -34.428 -11.977   7.770 -0.00 -0.00    -0.204 F  
DOCKED: ATOM     24  C   UNL     1     -37.053 -13.638   9.665 -0.16 +0.00    +0.001 A  
DOCKED: ENDBRANCH   2  18
DOCKED: TORSDOF 5
DOCKED: TER
DOCKED: ENDMDL
________________________________________________________________________________


    FINAL DOCKED STATE:
    ________________________


Run:   364 / 512
Time taken for this run:   0.002s

DOCKED: MODEL        364
DOCKED: USER    Run = 364
DOCKED: USER
DOCKED: USER    Estimated Free Energy of Binding    =  -3.95 kcal/mol  [=(1)+(2)+(3)-(4)]
DOCKED: USER
DOCKED: USER    (1) Final Intermolecular Energy     =  -5.44 kcal/mol
DOCKED: USER        vdW + Hbond + desolv Energy     =  -5.44 kcal/mol
DOCKED: USER        Electrostatic Energy            =  +0.00 kcal/mol
DOCKED: USER        Moving Ligand-Fixed Receptor    =  -5.44 kcal/mol
DOCKED: USER        Moving Ligand-Moving Receptor   =  +0.00 kcal/mol
DOCKED: USER    (2) Final Total Internal Energy     =  -1.57 kcal/mol
DOCKED: USER    (3) Torsional Free Energy           =  +1.49 kcal/mol
DOCKED: USER    (4) Unbound System's Energy         =  -1.57 kcal/mol
DOCKED: USER
DOCKED: USER
DOCKED: REMARK  5 active torsions:
DOCKED: REMARK  status: ('A' for Active; 'I' for Inactive)
DOCKED: REMARK    1  A    between atoms: C_2  and  C_19 
DOCKED: REMARK    2  A    between atoms: C_2  and  C_11 
DOCKED: REMARK    3  A    between atoms: C_19  and  C_20 
DOCKED: REMARK    4  A    between atoms: C_20  and  C_21 
DOCKED: REMARK    5  A    between atoms: C_21  and  N_22 
DOCKED: USER                              x       y       z     vdW  Elec       q    Type
DOCKED: USER                           _______ _______ _______ _____ _____    ______ ____
DOCKED: ROOT
DOCKED: ATOM      1  O   UNL     1     -40.096 -14.210  12.060 -0.01 -0.00    -0.346 OA 
DOCKED: ATOM      2  C   UNL     1     -41.463 -14.313  11.547 -0.10 +0.00    +0.130 C  
DOCKED: ATOM      3  C   UNL     1     -41.485 -15.642  10.848 -0.18 +0.00    +0.004 A  
DOCKED: ATOM      4  C   UNL     1     -40.273 -16.290  11.040 -0.16 +0.00    +0.006 A  
DOCKED: ATOM      5  C   UNL     1     -39.383 -15.455  11.876 -0.07 +0.00    +0.169 C  
DOCKED: ATOM      6  C   UNL     1     -42.500 -16.234  10.112 -0.21 -0.00    -0.001 A  
DOCKED: ATOM      7  C   UNL     1     -40.033 -17.543  10.502 -0.23 +0.00    +0.008 A  
DOCKED: ATOM      8  C   UNL     1     -42.273 -17.496   9.560 -0.25 +0.00    +0.010 A  
DOCKED: ATOM      9  C   UNL     1     -41.045 -18.147   9.754 -0.23 +0.00    +0.068 A  
DOCKED: ATOM     10  N   UNL     1     -40.657 -20.490   8.720 -2.61 -0.00    -0.191 NA 
DOCKED: ATOM     11  C   UNL     1     -40.831 -19.439   9.183 -0.32 +0.00    +0.101 C  
DOCKED: ENDROOT
DOCKED: BRANCH   2  12
DOCKED: ATOM     12  C   UNL     1     -42.427 -14.246  12.725 -0.05 +0.00    +0.038 C  
DOCKED: BRANCH  12  13
DOCKED: ATOM     13  C   UNL     1     -41.791 -13.550  13.927 -0.02 +0.00    +0.038 C  
DOCKED: BRANCH  13  14
DOCKED: ATOM     14  C   UNL     1     -42.268 -12.103  14.040 -0.00 +0.00    +0.251 C  
DOCKED: BRANCH  14  15
DOCKED: ATOM     15  N   UNL     1     -41.490 -11.242  13.157 -0.01 +0.00    +0.141 N  
DOCKED: ATOM     16  C   UNL     1     -41.846  -9.837  13.362 +0.00 +0.00    +0.285 C  
DOCKED: ATOM     17  C   UNL     1     -40.056 -11.439  13.377 -0.00 +0.00    +0.285 C  
DOCKED: ENDBRANCH  14  15
DOCKED: ENDBRANCH  13  14
DOCKED: ENDBRANCH  12  13
DOCKED: ENDBRANCH   2  12
DOCKED: BRANCH   2  18
DOCKED: ATOM     18  C   UNL     1     -41.667 -13.164  10.617 -0.19 +0.00    +0.006 A  
DOCKED: ATOM     19  C   UNL     1     -42.948 -12.650  10.416 -0.19 +0.00    +0.001 A  
DOCKED: ATOM     20  C   UNL     1     -43.138 -11.575   9.546 -0.17 +0.00    +0.029 A  
DOCKED: ATOM     21  C   UNL     1     -42.048 -11.017   8.880 -0.07 +0.00    +0.140 A  
DOCKED: ATOM     22  C   UNL     1     -40.768 -11.531   9.081 -0.15 +0.00    +0.029 A  
DOCKED: ATOM     23  F   UNL     1     -42.231  -9.984   8.046 -0.03 -0.00    -0.204 F  
DOCKED: ATOM     24  C   UNL     1     -40.577 -12.607   9.951 -0.19 +0.00    +0.001 A  
DOCKED: ENDBRANCH   2  18
DOCKED: TORSDOF 5
DOCKED: TER
DOCKED: ENDMDL
________________________________________________________________________________


    FINAL DOCKED STATE:
    ________________________


Run:   365 / 512
Time taken for this run:   0.002s

DOCKED: MODEL        365
DOCKED: USER    Run = 365
DOCKED: USER
DOCKED: USER    Estimated Free Energy of Binding    =  -4.05 kcal/mol  [=(1)+(2)+(3)-(4)]
DOCKED: USER
DOCKED: USER    (1) Final Intermolecular Energy     =  -5.54 kcal/mol
DOCKED: USER        vdW + Hbond + desolv Energy     =  -5.54 kcal/mol
DOCKED: USER        Electrostatic Energy            =  +0.00 kcal/mol
DOCKED: USER        Moving Ligand-Fixed Receptor    =  -5.54 kcal/mol
DOCKED: USER        Moving Ligand-Moving Receptor   =  +0.00 kcal/mol
DOCKED: USER    (2) Final Total Internal Energy     =  -1.24 kcal/mol
DOCKED: USER    (3) Torsional Free Energy           =  +1.49 kcal/mol
DOCKED: USER    (4) Unbound System's Energy         =  -1.24 kcal/mol
DOCKED: USER
DOCKED: USER
DOCKED: REMARK  5 active torsions:
DOCKED: REMARK  status: ('A' for Active; 'I' for Inactive)
DOCKED: REMARK    1  A    between atoms: C_2  and  C_19 
DOCKED: REMARK    2  A    between atoms: C_2  and  C_11 
DOCKED: REMARK    3  A    between atoms: C_19  and  C_20 
DOCKED: REMARK    4  A    between atoms: C_20  and  C_21 
DOCKED: REMARK    5  A    between atoms: C_21  and  N_22 
DOCKED: USER                              x       y       z     vdW  Elec       q    Type
DOCKED: USER                           _______ _______ _______ _____ _____    ______ ____
DOCKED: ROOT
DOCKED: ATOM      1  O   UNL     1     -36.970 -10.163   5.045 -0.08 -0.00    -0.346 OA 
DOCKED: ATOM      2  C   UNL     1     -35.807 -10.406   4.191 -0.16 +0.00    +0.130 C  
DOCKED: ATOM      3  C   UNL     1     -36.195  -9.798   2.874 -0.26 +0.00    +0.004 A  
DOCKED: ATOM      4  C   UNL     1     -37.424  -9.166   2.996 -0.19 +0.00    +0.006 A  
DOCKED: ATOM      5  C   UNL     1     -37.922  -9.298   4.383 -0.27 +0.00    +0.169 C  
DOCKED: ATOM      6  C   UNL     1     -35.510  -9.796   1.668 -0.23 -0.00    -0.001 A  
DOCKED: ATOM      7  C   UNL     1     -38.010  -8.516   1.922 -0.04 +0.00    +0.008 A  
DOCKED: ATOM      8  C   UNL     1     -36.089  -9.149   0.575 -0.18 +0.00    +0.010 A  
DOCKED: ATOM      9  C   UNL     1     -37.333  -8.512   0.702 -0.21 +0.00    +0.068 A  
DOCKED: ATOM     10  N   UNL     1     -38.378  -7.316  -1.345 -2.38 -0.00    -0.191 NA 
DOCKED: ATOM     11  C   UNL     1     -37.909  -7.853  -0.427 -0.13 +0.00    +0.101 C  
DOCKED: ENDROOT
DOCKED: BRANCH   2  12
DOCKED: ATOM     12  C   UNL     1     -34.594  -9.732   4.821 -0.14 +0.00    +0.038 C  
DOCKED: BRANCH  12  13
DOCKED: ATOM     13  C   UNL     1     -34.214  -8.456   4.072 +0.00 +0.00    +0.038 C  
DOCKED: BRANCH  13  14
DOCKED: ATOM     14  C   UNL     1     -32.779  -8.532   3.553 -0.09 +0.00    +0.251 C  
DOCKED: BRANCH  14  15
DOCKED: ATOM     15  N   UNL     1     -32.610  -7.655   2.400 -0.08 +0.00    +0.141 N  
DOCKED: ATOM     16  C   UNL     1     -32.211  -8.425   1.220 -0.01 +0.00    +0.285 C  
DOCKED: ATOM     17  C   UNL     1     -33.844  -6.915   2.130 -0.04 +0.00    +0.285 C  
DOCKED: ENDBRANCH  14  15
DOCKED: ENDBRANCH  13  14
DOCKED: ENDBRANCH  12  13
DOCKED: ENDBRANCH   2  12
DOCKED: BRANCH   2  18
DOCKED: ATOM     18  C   UNL     1     -35.622 -11.885   4.117 -0.15 +0.00    +0.006 A  
DOCKED: ATOM     19  C   UNL     1     -36.705 -12.735   4.338 -0.23 +0.00    +0.001 A  
DOCKED: ATOM     20  C   UNL     1     -36.531 -14.117   4.269 -0.14 +0.00    +0.029 A  
DOCKED: ATOM     21  C   UNL     1     -35.275 -14.648   3.978 -0.21 +0.00    +0.140 A  
DOCKED: ATOM     22  C   UNL     1     -34.192 -13.798   3.756 -0.14 +0.00    +0.029 A  
DOCKED: ATOM     23  F   UNL     1     -35.109 -15.975   3.910 -0.10 -0.00    -0.204 F  
DOCKED: ATOM     24  C   UNL     1     -34.365 -12.415   3.826 -0.09 +0.00    +0.001 A  
DOCKED: ENDBRANCH   2  18
DOCKED: TORSDOF 5
DOCKED: TER
DOCKED: ENDMDL
________________________________________________________________________________


    FINAL DOCKED STATE:
    ________________________


Run:   366 / 512
Time taken for this run:   0.002s

DOCKED: MODEL        366
DOCKED: USER    Run = 366
DOCKED: USER
DOCKED: USER    Estimated Free Energy of Binding    =  -3.58 kcal/mol  [=(1)+(2)+(3)-(4)]
DOCKED: USER
DOCKED: USER    (1) Final Intermolecular Energy     =  -5.07 kcal/mol
DOCKED: USER        vdW + Hbond + desolv Energy     =  -5.07 kcal/mol
DOCKED: USER        Electrostatic Energy            =  +0.00 kcal/mol
DOCKED: USER        Moving Ligand-Fixed Receptor    =  -5.07 kcal/mol
DOCKED: USER        Moving Ligand-Moving Receptor   =  +0.00 kcal/mol
DOCKED: USER    (2) Final Total Internal Energy     =  -1.04 kcal/mol
DOCKED: USER    (3) Torsional Free Energy           =  +1.49 kcal/mol
DOCKED: USER    (4) Unbound System's Energy         =  -1.04 kcal/mol
DOCKED: USER
DOCKED: USER
DOCKED: REMARK  5 active torsions:
DOCKED: REMARK  status: ('A' for Active; 'I' for Inactive)
DOCKED: REMARK    1  A    between atoms: C_2  and  C_19 
DOCKED: REMARK    2  A    between atoms: C_2  and  C_11 
DOCKED: REMARK    3  A    between atoms: C_19  and  C_20 
DOCKED: REMARK    4  A    between atoms: C_20  and  C_21 
DOCKED: REMARK    5  A    between atoms: C_21  and  N_22 
DOCKED: USER                              x       y       z     vdW  Elec       q    Type
DOCKED: USER                           _______ _______ _______ _____ _____    ______ ____
DOCKED: ROOT
DOCKED: ATOM      1  O   UNL     1     -32.686 -14.304   4.817 +0.00 -0.00    -0.346 OA 
DOCKED: ATOM      2  C   UNL     1     -31.802 -15.194   4.063 -0.05 +0.00    +0.130 C  
DOCKED: ATOM      3  C   UNL     1     -32.028 -16.540   4.688 -0.10 +0.00    +0.004 A  
DOCKED: ATOM      4  C   UNL     1     -33.033 -16.449   5.641 -0.20 +0.00    +0.006 A  
DOCKED: ATOM      5  C   UNL     1     -33.543 -15.062   5.702 -0.13 +0.00    +0.169 C  
DOCKED: ATOM      6  C   UNL     1     -31.402 -17.750   4.426 -0.10 -0.00    -0.001 A  
DOCKED: ATOM      7  C   UNL     1     -33.442 -17.557   6.364 -0.23 +0.00    +0.008 A  
DOCKED: ATOM      8  C   UNL     1     -31.800 -18.875   5.150 -0.18 +0.00    +0.010 A  
DOCKED: ATOM      9  C   UNL     1     -32.815 -18.779   6.114 -0.28 +0.00    +0.068 A  
DOCKED: ATOM     10  N   UNL     1     -33.534 -20.888   7.436 -2.63 -0.00    -0.191 NA 
DOCKED: ATOM     11  C   UNL     1     -33.211 -19.942   6.844 -0.38 +0.00    +0.101 C  
DOCKED: ENDROOT
DOCKED: BRANCH   2  12
DOCKED: ATOM     12  C   UNL     1     -32.208 -15.146   2.594 -0.10 +0.00    +0.038 C  
DOCKED: BRANCH  12  13
DOCKED: ATOM     13  C   UNL     1     -33.643 -14.649   2.429 -0.19 +0.00    +0.038 C  
DOCKED: BRANCH  13  14
DOCKED: ATOM     14  C   UNL     1     -33.694 -13.401   1.549 -0.13 +0.00    +0.251 C  
DOCKED: BRANCH  14  15
DOCKED: ATOM     15  N   UNL     1     -33.377 -13.742   0.167 -0.13 +0.00    +0.141 N  
DOCKED: ATOM     16  C   UNL     1     -34.364 -14.680  -0.372 -0.17 +0.00    +0.285 C  
DOCKED: ATOM     17  C   UNL     1     -33.318 -12.537  -0.661 -0.08 +0.00    +0.285 C  
DOCKED: ENDBRANCH  14  15
DOCKED: ENDBRANCH  13  14
DOCKED: ENDBRANCH  12  13
DOCKED: ENDBRANCH   2  12
DOCKED: BRANCH   2  18
DOCKED: ATOM     18  C   UNL     1     -30.410 -14.690   4.253 -0.01 +0.00    +0.006 A  
DOCKED: ATOM     19  C   UNL     1     -30.011 -14.199   5.496 -0.01 +0.00    +0.001 A  
DOCKED: ATOM     20  C   UNL     1     -28.710 -13.728   5.672 -0.00 +0.00    +0.029 A  
DOCKED: ATOM     21  C   UNL     1     -27.810 -13.749   4.608 +0.00 +0.00    +0.140 A  
DOCKED: ATOM     22  C   UNL     1     -28.209 -14.241   3.366 +0.00 +0.00    +0.029 A  
DOCKED: ATOM     23  F   UNL     1     -26.560 -13.299   4.778 +0.00 -0.00    -0.204 F  
DOCKED: ATOM     24  C   UNL     1     -29.511 -14.712   3.188 -0.00 +0.00    +0.001 A  
DOCKED: ENDBRANCH   2  18
DOCKED: TORSDOF 5
DOCKED: TER
DOCKED: ENDMDL
________________________________________________________________________________


    FINAL DOCKED STATE:
    ________________________


Run:   367 / 512
Time taken for this run:   0.002s

DOCKED: MODEL        367
DOCKED: USER    Run = 367
DOCKED: USER
DOCKED: USER    Estimated Free Energy of Binding    =  -3.83 kcal/mol  [=(1)+(2)+(3)-(4)]
DOCKED: USER
DOCKED: USER    (1) Final Intermolecular Energy     =  -5.32 kcal/mol
DOCKED: USER        vdW + Hbond + desolv Energy     =  -5.32 kcal/mol
DOCKED: USER        Electrostatic Energy            =  +0.00 kcal/mol
DOCKED: USER        Moving Ligand-Fixed Receptor    =  -5.32 kcal/mol
DOCKED: USER        Moving Ligand-Moving Receptor   =  +0.00 kcal/mol
DOCKED: USER    (2) Final Total Internal Energy     =  -1.38 kcal/mol
DOCKED: USER    (3) Torsional Free Energy           =  +1.49 kcal/mol
DOCKED: USER    (4) Unbound System's Energy         =  -1.38 kcal/mol
DOCKED: USER
DOCKED: USER
DOCKED: REMARK  5 active torsions:
DOCKED: REMARK  status: ('A' for Active; 'I' for Inactive)
DOCKED: REMARK    1  A    between atoms: C_2  and  C_19 
DOCKED: REMARK    2  A    between atoms: C_2  and  C_11 
DOCKED: REMARK    3  A    between atoms: C_19  and  C_20 
DOCKED: REMARK    4  A    between atoms: C_20  and  C_21 
DOCKED: REMARK    5  A    between atoms: C_21  and  N_22 
DOCKED: USER                              x       y       z     vdW  Elec       q    Type
DOCKED: USER                           _______ _______ _______ _____ _____    ______ ____
DOCKED: ROOT
DOCKED: ATOM      1  O   UNL     1     -34.862 -10.968   3.438 -0.02 -0.00    -0.346 OA 
DOCKED: ATOM      2  C   UNL     1     -36.256 -10.737   3.820 -0.19 +0.00    +0.130 C  
DOCKED: ATOM      3  C   UNL     1     -36.787  -9.857   2.726 -0.27 +0.00    +0.004 A  
DOCKED: ATOM      4  C   UNL     1     -35.817  -9.691   1.747 -0.25 +0.00    +0.006 A  
DOCKED: ATOM      5  C   UNL     1     -34.599 -10.448   2.114 -0.11 +0.00    +0.169 C  
DOCKED: ATOM      6  C   UNL     1     -38.034  -9.261   2.600 +0.08 -0.00    -0.001 A  
DOCKED: ATOM      7  C   UNL     1     -36.056  -8.925   0.619 -0.25 +0.00    +0.008 A  
DOCKED: ATOM      8  C   UNL     1     -38.288  -8.482   1.470 -0.26 +0.00    +0.010 A  
DOCKED: ATOM      9  C   UNL     1     -37.304  -8.315   0.485 -0.23 +0.00    +0.068 A  
DOCKED: ATOM     10  N   UNL     1     -37.810  -6.866  -1.603 -1.85 -0.00    -0.191 NA 
DOCKED: ATOM     11  C   UNL     1     -37.583  -7.515  -0.666 -0.38 +0.00    +0.101 C  
DOCKED: ENDROOT
DOCKED: BRANCH   2  12
DOCKED: ATOM     12  C   UNL     1     -36.965 -12.083   3.896 -0.27 +0.00    +0.038 C  
DOCKED: BRANCH  12  13
DOCKED: ATOM     13  C   UNL     1     -35.966 -13.236   3.974 -0.21 +0.00    +0.038 C  
DOCKED: BRANCH  13  14
DOCKED: ATOM     14  C   UNL     1     -36.159 -14.045   5.255 -0.18 +0.00    +0.251 C  
DOCKED: BRANCH  14  15
DOCKED: ATOM     15  N   UNL     1     -34.904 -14.135   5.991 -0.14 +0.00    +0.141 N  
DOCKED: ATOM     16  C   UNL     1     -33.795 -14.441   5.087 -0.08 +0.00    +0.285 C  
DOCKED: ATOM     17  C   UNL     1     -34.640 -12.890   6.714 -0.06 +0.00    +0.285 C  
DOCKED: ENDBRANCH  14  15
DOCKED: ENDBRANCH  13  14
DOCKED: ENDBRANCH  12  13
DOCKED: ENDBRANCH   2  12
DOCKED: BRANCH   2  18
DOCKED: ATOM     18  C   UNL     1     -36.237 -10.062   5.151 -0.18 +0.00    +0.006 A  
DOCKED: ATOM     19  C   UNL     1     -35.319  -9.043   5.402 -0.14 +0.00    +0.001 A  
DOCKED: ATOM     20  C   UNL     1     -35.302  -8.413   6.647 +0.08 +0.00    +0.029 A  
DOCKED: ATOM     21  C   UNL     1     -36.202  -8.802   7.638 -0.11 +0.00    +0.140 A  
DOCKED: ATOM     22  C   UNL     1     -37.120  -9.821   7.386 -0.11 +0.00    +0.029 A  
DOCKED: ATOM     23  F   UNL     1     -36.187  -8.196   8.832 -0.02 -0.00    -0.204 F  
DOCKED: ATOM     24  C   UNL     1     -37.138 -10.452   6.141 -0.16 +0.00    +0.001 A  
DOCKED: ENDBRANCH   2  18
DOCKED: TORSDOF 5
DOCKED: TER
DOCKED: ENDMDL
________________________________________________________________________________


    FINAL DOCKED STATE:
    ________________________


Run:   368 / 512
Time taken for this run:   0.002s

DOCKED: MODEL        368
DOCKED: USER    Run = 368
DOCKED: USER
DOCKED: USER    Estimated Free Energy of Binding    =  -5.76 kcal/mol  [=(1)+(2)+(3)-(4)]
DOCKED: USER
DOCKED: USER    (1) Final Intermolecular Energy     =  -7.25 kcal/mol
DOCKED: USER        vdW + Hbond + desolv Energy     =  -7.25 kcal/mol
DOCKED: USER        Electrostatic Energy            =  +0.00 kcal/mol
DOCKED: USER        Moving Ligand-Fixed Receptor    =  -7.25 kcal/mol
DOCKED: USER        Moving Ligand-Moving Receptor   =  +0.00 kcal/mol
DOCKED: USER    (2) Final Total Internal Energy     =  -1.03 kcal/mol
DOCKED: USER    (3) Torsional Free Energy           =  +1.49 kcal/mol
DOCKED: USER    (4) Unbound System's Energy         =  -1.03 kcal/mol
DOCKED: USER
DOCKED: USER
DOCKED: REMARK  5 active torsions:
DOCKED: REMARK  status: ('A' for Active; 'I' for Inactive)
DOCKED: REMARK    1  A    between atoms: C_2  and  C_19 
DOCKED: REMARK    2  A    between atoms: C_2  and  C_11 
DOCKED: REMARK    3  A    between atoms: C_19  and  C_20 
DOCKED: REMARK    4  A    between atoms: C_20  and  C_21 
DOCKED: REMARK    5  A    between atoms: C_21  and  N_22 
DOCKED: USER                              x       y       z     vdW  Elec       q    Type
DOCKED: USER                           _______ _______ _______ _____ _____    ______ ____
DOCKED: ROOT
DOCKED: ATOM      1  O   UNL     1     -38.590 -16.073  11.113 -0.06 -0.00    -0.346 OA 
DOCKED: ATOM      2  C   UNL     1     -38.440 -17.522  11.256 -0.22 +0.00    +0.130 C  
DOCKED: ATOM      3  C   UNL     1     -39.010 -18.070   9.980 -0.33 +0.00    +0.004 A  
DOCKED: ATOM      4  C   UNL     1     -39.353 -17.024   9.135 -0.32 +0.00    +0.006 A  
DOCKED: ATOM      5  C   UNL     1     -39.028 -15.731   9.777 -0.23 +0.00    +0.169 C  
DOCKED: ATOM      6  C   UNL     1     -39.198 -19.389   9.594 -0.40 -0.00    -0.001 A  
DOCKED: ATOM      7  C   UNL     1     -39.898 -17.258   7.884 -0.06 +0.00    +0.008 A  
DOCKED: ATOM      8  C   UNL     1     -39.751 -19.641   8.337 -0.48 +0.00    +0.010 A  
DOCKED: ATOM      9  C   UNL     1     -40.098 -18.581   7.486 -0.41 +0.00    +0.068 A  
DOCKED: ATOM     10  N   UNL     1     -41.116 -19.085   5.157 -2.72 -0.00    -0.191 NA 
DOCKED: ATOM     11  C   UNL     1     -40.660 -18.859   6.202 -0.46 +0.00    +0.101 C  
DOCKED: ENDROOT
DOCKED: BRANCH   2  12
DOCKED: ATOM     12  C   UNL     1     -36.960 -17.839  11.430 -0.23 +0.00    +0.038 C  
DOCKED: BRANCH  12  13
DOCKED: ATOM     13  C   UNL     1     -36.173 -16.604  11.864 -0.18 +0.00    +0.038 C  
DOCKED: BRANCH  13  14
DOCKED: ATOM     14  C   UNL     1     -34.731 -16.667  11.364 -0.04 +0.00    +0.251 C  
DOCKED: BRANCH  14  15
DOCKED: ATOM     15  N   UNL     1     -34.117 -17.933  11.745 -0.17 +0.00    +0.141 N  
DOCKED: ATOM     16  C   UNL     1     -32.918 -18.187  10.944 -0.12 +0.00    +0.285 C  
DOCKED: ATOM     17  C   UNL     1     -33.785 -17.937  13.170 -0.07 +0.00    +0.285 C  
DOCKED: ENDBRANCH  14  15
DOCKED: ENDBRANCH  13  14
DOCKED: ENDBRANCH  12  13
DOCKED: ENDBRANCH   2  12
DOCKED: BRANCH   2  18
DOCKED: ATOM     18  C   UNL     1     -39.222 -17.924  12.462 -0.15 +0.00    +0.006 A  
DOCKED: ATOM     19  C   UNL     1     -40.263 -17.117  12.919 -0.07 +0.00    +0.001 A  
DOCKED: ATOM     20  C   UNL     1     -40.993 -17.494  14.047 -0.05 +0.00    +0.029 A  
DOCKED: ATOM     21  C   UNL     1     -40.681 -18.676  14.716 -0.07 +0.00    +0.140 A  
DOCKED: ATOM     22  C   UNL     1     -39.640 -19.483  14.258 -0.19 +0.00    +0.029 A  
DOCKED: ATOM     23  F   UNL     1     -41.383 -19.039  15.797 -0.00 -0.00    -0.204 F  
DOCKED: ATOM     24  C   UNL     1     -38.909 -19.107  13.130 -0.22 +0.00    +0.001 A  
DOCKED: ENDBRANCH   2  18
DOCKED: TORSDOF 5
DOCKED: TER
DOCKED: ENDMDL
________________________________________________________________________________


    FINAL DOCKED STATE:
    ________________________


Run:   369 / 512
Time taken for this run:   0.002s

DOCKED: MODEL        369
DOCKED: USER    Run = 369
DOCKED: USER
DOCKED: USER    Estimated Free Energy of Binding    =  -3.27 kcal/mol  [=(1)+(2)+(3)-(4)]
DOCKED: USER
DOCKED: USER    (1) Final Intermolecular Energy     =  -4.77 kcal/mol
DOCKED: USER        vdW + Hbond + desolv Energy     =  -4.77 kcal/mol
DOCKED: USER        Electrostatic Energy            =  +0.00 kcal/mol
DOCKED: USER        Moving Ligand-Fixed Receptor    =  -4.77 kcal/mol
DOCKED: USER        Moving Ligand-Moving Receptor   =  +0.00 kcal/mol
DOCKED: USER    (2) Final Total Internal Energy     =  -1.52 kcal/mol
DOCKED: USER    (3) Torsional Free Energy           =  +1.49 kcal/mol
DOCKED: USER    (4) Unbound System's Energy         =  -1.52 kcal/mol
DOCKED: USER
DOCKED: USER
DOCKED: REMARK  5 active torsions:
DOCKED: REMARK  status: ('A' for Active; 'I' for Inactive)
DOCKED: REMARK    1  A    between atoms: C_2  and  C_19 
DOCKED: REMARK    2  A    between atoms: C_2  and  C_11 
DOCKED: REMARK    3  A    between atoms: C_19  and  C_20 
DOCKED: REMARK    4  A    between atoms: C_20  and  C_21 
DOCKED: REMARK    5  A    between atoms: C_21  and  N_22 
DOCKED: USER                              x       y       z     vdW  Elec       q    Type
DOCKED: USER                           _______ _______ _______ _____ _____    ______ ____
DOCKED: ROOT
DOCKED: ATOM      1  O   UNL     1     -31.192 -15.864   3.095 +0.01 -0.00    -0.346 OA 
DOCKED: ATOM      2  C   UNL     1     -31.265 -17.122   2.350 -0.09 +0.00    +0.130 C  
DOCKED: ATOM      3  C   UNL     1     -31.742 -18.116   3.369 -0.13 +0.00    +0.004 A  
DOCKED: ATOM      4  C   UNL     1     -32.024 -17.464   4.561 -0.13 +0.00    +0.006 A  
DOCKED: ATOM      5  C   UNL     1     -31.769 -16.014   4.413 -0.05 +0.00    +0.169 C  
DOCKED: ATOM      6  C   UNL     1     -31.924 -19.486   3.247 -0.17 -0.00    -0.001 A  
DOCKED: ATOM      7  C   UNL     1     -32.490 -18.154   5.667 -0.23 +0.00    +0.008 A  
DOCKED: ATOM      8  C   UNL     1     -32.389 -20.197   4.354 -0.28 +0.00    +0.010 A  
DOCKED: ATOM      9  C   UNL     1     -32.671 -19.534   5.558 -0.30 +0.00    +0.068 A  
DOCKED: ATOM     10  N   UNL     1     -33.538 -20.882   7.594 -2.68 -0.00    -0.191 NA 
DOCKED: ATOM     11  C   UNL     1     -33.148 -20.278   6.681 -0.40 +0.00    +0.101 C  
DOCKED: ENDROOT
DOCKED: BRANCH   2  12
DOCKED: ATOM     12  C   UNL     1     -32.241 -16.942   1.193 +0.01 +0.00    +0.038 C  
DOCKED: BRANCH  12  13
DOCKED: ATOM     13  C   UNL     1     -32.902 -15.566   1.231 -0.14 +0.00    +0.038 C  
DOCKED: BRANCH  13  14
DOCKED: ATOM     14  C   UNL     1     -32.151 -14.571   0.349 -0.07 +0.00    +0.251 C  
DOCKED: BRANCH  14  15
DOCKED: ATOM     15  N   UNL     1     -30.807 -15.060   0.063 -0.02 +0.00    +0.141 N  
DOCKED: ATOM     16  C   UNL     1     -30.660 -15.360  -1.362 -0.01 +0.00    +0.285 C  
DOCKED: ATOM     17  C   UNL     1     -29.802 -14.081   0.482 +0.00 +0.00    +0.285 C  
DOCKED: ENDBRANCH  14  15
DOCKED: ENDBRANCH  13  14
DOCKED: ENDBRANCH  12  13
DOCKED: ENDBRANCH   2  12
DOCKED: BRANCH   2  18
DOCKED: ATOM     18  C   UNL     1     -29.888 -17.415   1.853 -0.03 +0.00    +0.006 A  
DOCKED: ATOM     19  C   UNL     1     -28.781 -16.904   2.528 -0.01 +0.00    +0.001 A  
DOCKED: ATOM     20  C   UNL     1     -27.494 -17.179   2.062 -0.00 +0.00    +0.029 A  
DOCKED: ATOM     21  C   UNL     1     -27.318 -17.962   0.922 -0.00 +0.00    +0.140 A  
DOCKED: ATOM     22  C   UNL     1     -28.426 -18.472   0.247 -0.01 +0.00    +0.029 A  
DOCKED: ATOM     23  F   UNL     1     -26.083 -18.226   0.476 +0.00 -0.00    -0.204 F  
DOCKED: ATOM     24  C   UNL     1     -29.714 -18.198   0.713 -0.04 +0.00    +0.001 A  
DOCKED: ENDBRANCH   2  18
DOCKED: TORSDOF 5
DOCKED: TER
DOCKED: ENDMDL
________________________________________________________________________________


    FINAL DOCKED STATE:
    ________________________


Run:   370 / 512
Time taken for this run:   0.002s

DOCKED: MODEL        370
DOCKED: USER    Run = 370
DOCKED: USER
DOCKED: USER    Estimated Free Energy of Binding    =  -3.73 kcal/mol  [=(1)+(2)+(3)-(4)]
DOCKED: USER
DOCKED: USER    (1) Final Intermolecular Energy     =  -5.22 kcal/mol
DOCKED: USER        vdW + Hbond + desolv Energy     =  -5.22 kcal/mol
DOCKED: USER        Electrostatic Energy            =  +0.00 kcal/mol
DOCKED: USER        Moving Ligand-Fixed Receptor    =  -5.22 kcal/mol
DOCKED: USER        Moving Ligand-Moving Receptor   =  +0.00 kcal/mol
DOCKED: USER    (2) Final Total Internal Energy     =  -1.48 kcal/mol
DOCKED: USER    (3) Torsional Free Energy           =  +1.49 kcal/mol
DOCKED: USER    (4) Unbound System's Energy         =  -1.48 kcal/mol
DOCKED: USER
DOCKED: USER
DOCKED: REMARK  5 active torsions:
DOCKED: REMARK  status: ('A' for Active; 'I' for Inactive)
DOCKED: REMARK    1  A    between atoms: C_2  and  C_19 
DOCKED: REMARK    2  A    between atoms: C_2  and  C_11 
DOCKED: REMARK    3  A    between atoms: C_19  and  C_20 
DOCKED: REMARK    4  A    between atoms: C_20  and  C_21 
DOCKED: REMARK    5  A    between atoms: C_21  and  N_22 
DOCKED: USER                              x       y       z     vdW  Elec       q    Type
DOCKED: USER                           _______ _______ _______ _____ _____    ______ ____
DOCKED: ROOT
DOCKED: ATOM      1  O   UNL     1     -34.753 -14.717   4.475 -0.06 -0.00    -0.346 OA 
DOCKED: ATOM      2  C   UNL     1     -33.674 -14.553   5.450 -0.12 +0.00    +0.130 C  
DOCKED: ATOM      3  C   UNL     1     -33.419 -15.949   5.941 -0.20 +0.00    +0.004 A  
DOCKED: ATOM      4  C   UNL     1     -34.205 -16.845   5.231 -0.31 +0.00    +0.006 A  
DOCKED: ATOM      5  C   UNL     1     -35.012 -16.118   4.226 -0.15 +0.00    +0.169 C  
DOCKED: ATOM      6  C   UNL     1     -32.553 -16.391   6.931 -0.16 -0.00    -0.001 A  
DOCKED: ATOM      7  C   UNL     1     -34.156 -18.205   5.485 -0.25 +0.00    +0.008 A  
DOCKED: ATOM      8  C   UNL     1     -32.495 -17.759   7.202 -0.22 +0.00    +0.010 A  
DOCKED: ATOM      9  C   UNL     1     -33.293 -18.661   6.482 -0.24 +0.00    +0.068 A  
DOCKED: ATOM     10  N   UNL     1     -33.158 -21.195   7.007 -2.16 -0.00    -0.191 NA 
DOCKED: ATOM     11  C   UNL     1     -33.219 -20.059   6.772 -0.39 +0.00    +0.101 C  
DOCKED: ENDROOT
DOCKED: BRANCH   2  12
DOCKED: ATOM     12  C   UNL     1     -32.470 -13.945   4.740 -0.04 +0.00    +0.038 C  
DOCKED: BRANCH  12  13
DOCKED: ATOM     13  C   UNL     1     -32.746 -13.740   3.252 -0.06 +0.00    +0.038 C  
DOCKED: BRANCH  13  14
DOCKED: ATOM     14  C   UNL     1     -33.210 -12.313   2.971 -0.02 +0.00    +0.251 C  
DOCKED: BRANCH  14  15
DOCKED: ATOM     15  N   UNL     1     -34.446 -12.324   2.196 -0.12 +0.00    +0.141 N  
DOCKED: ATOM     16  C   UNL     1     -34.577 -13.579   1.453 -0.15 +0.00    +0.285 C  
DOCKED: ATOM     17  C   UNL     1     -35.604 -12.128   3.069 -0.13 +0.00    +0.285 C  
DOCKED: ENDBRANCH  14  15
DOCKED: ENDBRANCH  13  14
DOCKED: ENDBRANCH  12  13
DOCKED: ENDBRANCH   2  12
DOCKED: BRANCH   2  18
DOCKED: ATOM     18  C   UNL     1     -34.185 -13.645   6.518 -0.11 +0.00    +0.006 A  
DOCKED: ATOM     19  C   UNL     1     -33.786 -12.309   6.545 -0.04 +0.00    +0.001 A  
DOCKED: ATOM     20  C   UNL     1     -34.264 -11.460   7.545 -0.03 +0.00    +0.029 A  
DOCKED: ATOM     21  C   UNL     1     -35.140 -11.948   8.513 -0.04 +0.00    +0.140 A  
DOCKED: ATOM     22  C   UNL     1     -35.538 -13.284   8.485 -0.13 +0.00    +0.029 A  
DOCKED: ATOM     23  F   UNL     1     -35.600 -11.133   9.471 -0.00 -0.00    -0.204 F  
DOCKED: ATOM     24  C   UNL     1     -35.060 -14.134   7.486 -0.10 +0.00    +0.001 A  
DOCKED: ENDBRANCH   2  18
DOCKED: TORSDOF 5
DOCKED: TER
DOCKED: ENDMDL
________________________________________________________________________________


    FINAL DOCKED STATE:
    ________________________


Run:   371 / 512
Time taken for this run:   0.002s

DOCKED: MODEL        371
DOCKED: USER    Run = 371
DOCKED: USER
DOCKED: USER    Estimated Free Energy of Binding    =  -4.09 kcal/mol  [=(1)+(2)+(3)-(4)]
DOCKED: USER
DOCKED: USER    (1) Final Intermolecular Energy     =  -5.58 kcal/mol
DOCKED: USER        vdW + Hbond + desolv Energy     =  -5.58 kcal/mol
DOCKED: USER        Electrostatic Energy            =  +0.00 kcal/mol
DOCKED: USER        Moving Ligand-Fixed Receptor    =  -5.58 kcal/mol
DOCKED: USER        Moving Ligand-Moving Receptor   =  +0.00 kcal/mol
DOCKED: USER    (2) Final Total Internal Energy     =  -1.33 kcal/mol
DOCKED: USER    (3) Torsional Free Energy           =  +1.49 kcal/mol
DOCKED: USER    (4) Unbound System's Energy         =  -1.33 kcal/mol
DOCKED: USER
DOCKED: USER
DOCKED: REMARK  5 active torsions:
DOCKED: REMARK  status: ('A' for Active; 'I' for Inactive)
DOCKED: REMARK    1  A    between atoms: C_2  and  C_19 
DOCKED: REMARK    2  A    between atoms: C_2  and  C_11 
DOCKED: REMARK    3  A    between atoms: C_19  and  C_20 
DOCKED: REMARK    4  A    between atoms: C_20  and  C_21 
DOCKED: REMARK    5  A    between atoms: C_21  and  N_22 
DOCKED: USER                              x       y       z     vdW  Elec       q    Type
DOCKED: USER                           _______ _______ _______ _____ _____    ______ ____
DOCKED: ROOT
DOCKED: ATOM      1  O   UNL     1     -32.235  -5.770   1.767 -0.02 -0.00    -0.346 OA 
DOCKED: ATOM      2  C   UNL     1     -32.080  -5.483   0.340 -0.07 +0.00    +0.130 C  
DOCKED: ATOM      3  C   UNL     1     -33.407  -5.866  -0.250 -0.14 +0.00    +0.004 A  
DOCKED: ATOM      4  C   UNL     1     -34.280  -6.234   0.764 -0.23 +0.00    +0.006 A  
DOCKED: ATOM      5  C   UNL     1     -33.607  -6.110   2.077 -0.14 +0.00    +0.169 C  
DOCKED: ATOM      6  C   UNL     1     -33.812  -5.877  -1.576 -0.16 -0.00    -0.001 A  
DOCKED: ATOM      7  C   UNL     1     -35.578  -6.628   0.489 -0.32 +0.00    +0.008 A  
DOCKED: ATOM      8  C   UNL     1     -35.117  -6.276  -1.870 -0.27 +0.00    +0.010 A  
DOCKED: ATOM      9  C   UNL     1     -35.996  -6.649  -0.842 -0.35 +0.00    +0.068 A  
DOCKED: ATOM     10  N   UNL     1     -38.413  -7.379  -1.422 -2.51 -0.00    -0.191 NA 
DOCKED: ATOM     11  C   UNL     1     -37.329  -7.052  -1.162 -0.42 +0.00    +0.101 C  
DOCKED: ENDROOT
DOCKED: BRANCH   2  12
DOCKED: ATOM     12  C   UNL     1     -31.765  -4.001   0.177 -0.11 +0.00    +0.038 C  
DOCKED: BRANCH  12  13
DOCKED: ATOM     13  C   UNL     1     -32.409  -3.169   1.285 -0.13 +0.00    +0.038 C  
DOCKED: BRANCH  13  14
DOCKED: ATOM     14  C   UNL     1     -33.814  -2.720   0.888 -0.12 +0.00    +0.251 C  
DOCKED: BRANCH  14  15
DOCKED: ATOM     15  N   UNL     1     -34.557  -2.282   2.064 -0.19 +0.00    +0.141 N  
DOCKED: ATOM     16  C   UNL     1     -35.646  -3.213   2.363 -0.22 +0.00    +0.285 C  
DOCKED: ATOM     17  C   UNL     1     -33.667  -2.153   3.218 -0.09 +0.00    +0.285 C  
DOCKED: ENDBRANCH  14  15
DOCKED: ENDBRANCH  13  14
DOCKED: ENDBRANCH  12  13
DOCKED: ENDBRANCH   2  12
DOCKED: BRANCH   2  18
DOCKED: ATOM     18  C   UNL     1     -30.957  -6.330  -0.156 -0.03 +0.00    +0.006 A  
DOCKED: ATOM     19  C   UNL     1     -30.470  -7.373   0.632 -0.01 +0.00    +0.001 A  
DOCKED: ATOM     20  C   UNL     1     -29.419  -8.164   0.167 -0.00 +0.00    +0.029 A  
DOCKED: ATOM     21  C   UNL     1     -28.857  -7.913  -1.084 +0.00 +0.00    +0.140 A  
DOCKED: ATOM     22  C   UNL     1     -29.344  -6.870  -1.871 -0.01 +0.00    +0.029 A  
DOCKED: ATOM     23  F   UNL     1     -27.849  -8.674  -1.530 +0.00 -0.00    -0.204 F  
DOCKED: ATOM     24  C   UNL     1     -30.395  -6.077  -1.407 -0.03 +0.00    +0.001 A  
DOCKED: ENDBRANCH   2  18
DOCKED: TORSDOF 5
DOCKED: TER
DOCKED: ENDMDL
________________________________________________________________________________


    FINAL DOCKED STATE:
    ________________________


Run:   372 / 512
Time taken for this run:   0.002s

DOCKED: MODEL        372
DOCKED: USER    Run = 372
DOCKED: USER
DOCKED: USER    Estimated Free Energy of Binding    =  -5.10 kcal/mol  [=(1)+(2)+(3)-(4)]
DOCKED: USER
DOCKED: USER    (1) Final Intermolecular Energy     =  -6.59 kcal/mol
DOCKED: USER        vdW + Hbond + desolv Energy     =  -6.59 kcal/mol
DOCKED: USER        Electrostatic Energy            =  +0.00 kcal/mol
DOCKED: USER        Moving Ligand-Fixed Receptor    =  -6.59 kcal/mol
DOCKED: USER        Moving Ligand-Moving Receptor   =  +0.00 kcal/mol
DOCKED: USER    (2) Final Total Internal Energy     =  -1.29 kcal/mol
DOCKED: USER    (3) Torsional Free Energy           =  +1.49 kcal/mol
DOCKED: USER    (4) Unbound System's Energy         =  -1.29 kcal/mol
DOCKED: USER
DOCKED: USER
DOCKED: REMARK  5 active torsions:
DOCKED: REMARK  status: ('A' for Active; 'I' for Inactive)
DOCKED: REMARK    1  A    between atoms: C_2  and  C_19 
DOCKED: REMARK    2  A    between atoms: C_2  and  C_11 
DOCKED: REMARK    3  A    between atoms: C_19  and  C_20 
DOCKED: REMARK    4  A    between atoms: C_20  and  C_21 
DOCKED: REMARK    5  A    between atoms: C_21  and  N_22 
DOCKED: USER                              x       y       z     vdW  Elec       q    Type
DOCKED: USER                           _______ _______ _______ _____ _____    ______ ____
DOCKED: ROOT
DOCKED: ATOM      1  O   UNL     1     -38.689 -18.334  11.433 -0.09 -0.00    -0.346 OA 
DOCKED: ATOM      2  C   UNL     1     -40.039 -17.770  11.382 -0.15 +0.00    +0.130 C  
DOCKED: ATOM      3  C   UNL     1     -40.477 -18.015   9.967 -0.27 +0.00    +0.004 A  
DOCKED: ATOM      4  C   UNL     1     -39.509 -18.752   9.299 -0.40 +0.00    +0.006 A  
DOCKED: ATOM      5  C   UNL     1     -38.386 -19.052  10.215 -0.33 +0.00    +0.169 C  
DOCKED: ATOM      6  C   UNL     1     -41.644 -17.626   9.325 -0.26 -0.00    -0.001 A  
DOCKED: ATOM      7  C   UNL     1     -39.670 -19.120   7.974 -0.43 +0.00    +0.008 A  
DOCKED: ATOM      8  C   UNL     1     -41.820 -17.986   7.988 +0.03 +0.00    +0.010 A  
DOCKED: ATOM      9  C   UNL     1     -40.838 -18.730   7.316 -0.41 +0.00    +0.068 A  
DOCKED: ATOM     10  N   UNL     1     -41.197 -19.385   4.836 -2.75 -0.00    -0.191 NA 
DOCKED: ATOM     11  C   UNL     1     -41.036 -19.091   5.948 -0.30 +0.00    +0.101 C  
DOCKED: ENDROOT
DOCKED: BRANCH   2  12
DOCKED: ATOM     12  C   UNL     1     -40.904 -18.496  12.405 -0.17 +0.00    +0.038 C  
DOCKED: BRANCH  12  13
DOCKED: ATOM     13  C   UNL     1     -40.222 -19.765  12.911 -0.18 +0.00    +0.038 C  
DOCKED: BRANCH  13  14
DOCKED: ATOM     14  C   UNL     1     -39.936 -19.675  14.409 -0.07 +0.00    +0.251 C  
DOCKED: BRANCH  14  15
DOCKED: ATOM     15  N   UNL     1     -38.654 -19.020  14.642 -0.14 +0.00    +0.141 N  
DOCKED: ATOM     16  C   UNL     1     -38.830 -17.816  15.456 -0.03 +0.00    +0.285 C  
DOCKED: ATOM     17  C   UNL     1     -37.716 -19.938  15.289 -0.11 +0.00    +0.285 C  
DOCKED: ENDBRANCH  14  15
DOCKED: ENDBRANCH  13  14
DOCKED: ENDBRANCH  12  13
DOCKED: ENDBRANCH   2  12
DOCKED: BRANCH   2  18
DOCKED: ATOM     18  C   UNL     1     -39.918 -16.320  11.711 -0.11 +0.00    +0.006 A  
DOCKED: ATOM     19  C   UNL     1     -39.977 -15.899  13.039 -0.05 +0.00    +0.001 A  
DOCKED: ATOM     20  C   UNL     1     -39.864 -14.542  13.345 -0.02 +0.00    +0.029 A  
DOCKED: ATOM     21  C   UNL     1     -39.692 -13.609  12.323 -0.03 +0.00    +0.140 A  
DOCKED: ATOM     22  C   UNL     1     -39.634 -14.030  10.995 -0.13 +0.00    +0.029 A  
DOCKED: ATOM     23  F   UNL     1     -39.583 -12.307  12.617 +0.00 -0.00    -0.204 F  
DOCKED: ATOM     24  C   UNL     1     -39.747 -15.387  10.688 -0.20 +0.00    +0.001 A  
DOCKED: ENDBRANCH   2  18
DOCKED: TORSDOF 5
DOCKED: TER
DOCKED: ENDMDL
________________________________________________________________________________


    FINAL DOCKED STATE:
    ________________________


Run:   373 / 512
Time taken for this run:   0.002s

DOCKED: MODEL        373
DOCKED: USER    Run = 373
DOCKED: USER
DOCKED: USER    Estimated Free Energy of Binding    =  -3.76 kcal/mol  [=(1)+(2)+(3)-(4)]
DOCKED: USER
DOCKED: USER    (1) Final Intermolecular Energy     =  -5.25 kcal/mol
DOCKED: USER        vdW + Hbond + desolv Energy     =  -5.25 kcal/mol
DOCKED: USER        Electrostatic Energy            =  +0.00 kcal/mol
DOCKED: USER        Moving Ligand-Fixed Receptor    =  -5.25 kcal/mol
DOCKED: USER        Moving Ligand-Moving Receptor   =  +0.00 kcal/mol
DOCKED: USER    (2) Final Total Internal Energy     =  -1.28 kcal/mol
DOCKED: USER    (3) Torsional Free Energy           =  +1.49 kcal/mol
DOCKED: USER    (4) Unbound System's Energy         =  -1.28 kcal/mol
DOCKED: USER
DOCKED: USER
DOCKED: REMARK  5 active torsions:
DOCKED: REMARK  status: ('A' for Active; 'I' for Inactive)
DOCKED: REMARK    1  A    between atoms: C_2  and  C_19 
DOCKED: REMARK    2  A    between atoms: C_2  and  C_11 
DOCKED: REMARK    3  A    between atoms: C_19  and  C_20 
DOCKED: REMARK    4  A    between atoms: C_20  and  C_21 
DOCKED: REMARK    5  A    between atoms: C_21  and  N_22 
DOCKED: USER                              x       y       z     vdW  Elec       q    Type
DOCKED: USER                           _______ _______ _______ _____ _____    ______ ____
DOCKED: ROOT
DOCKED: ATOM      1  O   UNL     1     -37.857 -14.135  10.754 -0.05 -0.00    -0.346 OA 
DOCKED: ATOM      2  C   UNL     1     -37.221 -15.230  11.488 -0.12 +0.00    +0.130 C  
DOCKED: ATOM      3  C   UNL     1     -37.958 -16.452  11.021 -0.21 +0.00    +0.004 A  
DOCKED: ATOM      4  C   UNL     1     -38.860 -16.101  10.026 -0.27 +0.00    +0.006 A  
DOCKED: ATOM      5  C   UNL     1     -38.775 -14.647   9.761 -0.14 +0.00    +0.169 C  
DOCKED: ATOM      6  C   UNL     1     -37.832 -17.770  11.435 -0.25 -0.00    -0.001 A  
DOCKED: ATOM      7  C   UNL     1     -39.665 -17.048   9.417 -0.33 +0.00    +0.008 A  
DOCKED: ATOM      8  C   UNL     1     -38.641 -18.736  10.834 -0.33 +0.00    +0.010 A  
DOCKED: ATOM      9  C   UNL     1     -39.552 -18.377   9.830 -0.30 +0.00    +0.068 A  
DOCKED: ATOM     10  N   UNL     1     -41.034 -20.196   8.731 -2.56 -0.00    -0.191 NA 
DOCKED: ATOM     11  C   UNL     1     -40.370 -19.380   9.224 -0.35 +0.00    +0.101 C  
DOCKED: ENDROOT
DOCKED: BRANCH   2  12
DOCKED: ATOM     12  C   UNL     1     -35.740 -15.256  11.128 -0.12 +0.00    +0.038 C  
DOCKED: BRANCH  12  13
DOCKED: ATOM     13  C   UNL     1     -35.191 -13.845  10.926 -0.09 +0.00    +0.038 C  
DOCKED: BRANCH  13  14
DOCKED: ATOM     14  C   UNL     1     -34.807 -13.209  12.260 -0.01 +0.00    +0.251 C  
DOCKED: BRANCH  14  15
DOCKED: ATOM     15  N   UNL     1     -34.473 -11.802  12.073 -0.00 +0.00    +0.141 N  
DOCKED: ATOM     16  C   UNL     1     -35.172 -11.255  10.909 -0.00 +0.00    +0.285 C  
DOCKED: ATOM     17  C   UNL     1     -34.802 -11.030  13.272 -0.00 +0.00    +0.285 C  
DOCKED: ENDBRANCH  14  15
DOCKED: ENDBRANCH  13  14
DOCKED: ENDBRANCH  12  13
DOCKED: ENDBRANCH   2  12
DOCKED: BRANCH   2  18
DOCKED: ATOM     18  C   UNL     1     -37.417 -14.953  12.941 -0.04 +0.00    +0.006 A  
DOCKED: ATOM     19  C   UNL     1     -36.648 -15.628  13.889 -0.04 +0.00    +0.001 A  
DOCKED: ATOM     20  C   UNL     1     -36.833 -15.368  15.247 -0.01 +0.00    +0.029 A  
DOCKED: ATOM     21  C   UNL     1     -37.784 -14.434  15.656 -0.00 +0.00    +0.140 A  
DOCKED: ATOM     22  C   UNL     1     -38.552 -13.760  14.707 -0.00 +0.00    +0.029 A  
DOCKED: ATOM     23  F   UNL     1     -37.960 -14.184  16.960 +0.00 -0.00    -0.204 F  
DOCKED: ATOM     24  C   UNL     1     -38.369 -14.019  13.348 -0.02 +0.00    +0.001 A  
DOCKED: ENDBRANCH   2  18
DOCKED: TORSDOF 5
DOCKED: TER
DOCKED: ENDMDL
________________________________________________________________________________


    FINAL DOCKED STATE:
    ________________________


Run:   374 / 512
Time taken for this run:   0.002s

DOCKED: MODEL        374
DOCKED: USER    Run = 374
DOCKED: USER
DOCKED: USER    Estimated Free Energy of Binding    =  -3.85 kcal/mol  [=(1)+(2)+(3)-(4)]
DOCKED: USER
DOCKED: USER    (1) Final Intermolecular Energy     =  -5.34 kcal/mol
DOCKED: USER        vdW + Hbond + desolv Energy     =  -5.34 kcal/mol
DOCKED: USER        Electrostatic Energy            =  +0.00 kcal/mol
DOCKED: USER        Moving Ligand-Fixed Receptor    =  -5.34 kcal/mol
DOCKED: USER        Moving Ligand-Moving Receptor   =  +0.00 kcal/mol
DOCKED: USER    (2) Final Total Internal Energy     =  -1.41 kcal/mol
DOCKED: USER    (3) Torsional Free Energy           =  +1.49 kcal/mol
DOCKED: USER    (4) Unbound System's Energy         =  -1.41 kcal/mol
DOCKED: USER
DOCKED: USER
DOCKED: REMARK  5 active torsions:
DOCKED: REMARK  status: ('A' for Active; 'I' for Inactive)
DOCKED: REMARK    1  A    between atoms: C_2  and  C_19 
DOCKED: REMARK    2  A    between atoms: C_2  and  C_11 
DOCKED: REMARK    3  A    between atoms: C_19  and  C_20 
DOCKED: REMARK    4  A    between atoms: C_20  and  C_21 
DOCKED: REMARK    5  A    between atoms: C_21  and  N_22 
DOCKED: USER                              x       y       z     vdW  Elec       q    Type
DOCKED: USER                           _______ _______ _______ _____ _____    ______ ____
DOCKED: ROOT
DOCKED: ATOM      1  O   UNL     1     -37.748 -14.172  10.640 -0.06 -0.00    -0.346 OA 
DOCKED: ATOM      2  C   UNL     1     -37.202 -15.251  11.465 -0.12 +0.00    +0.130 C  
DOCKED: ATOM      3  C   UNL     1     -37.958 -16.467  11.013 -0.21 +0.00    +0.004 A  
DOCKED: ATOM      4  C   UNL     1     -38.784 -16.134   9.948 -0.27 +0.00    +0.006 A  
DOCKED: ATOM      5  C   UNL     1     -38.624 -14.701   9.617 -0.10 +0.00    +0.169 C  
DOCKED: ATOM      6  C   UNL     1     -37.911 -17.765  11.498 -0.25 -0.00    -0.001 A  
DOCKED: ATOM      7  C   UNL     1     -39.589 -17.081   9.338 -0.34 +0.00    +0.008 A  
DOCKED: ATOM      8  C   UNL     1     -38.720 -18.730  10.896 -0.33 +0.00    +0.010 A  
DOCKED: ATOM      9  C   UNL     1     -39.554 -18.390   9.821 -0.31 +0.00    +0.068 A  
DOCKED: ATOM     10  N   UNL     1     -41.040 -20.206   8.723 -2.56 -0.00    -0.191 NA 
DOCKED: ATOM     11  C   UNL     1     -40.374 -19.391   9.216 -0.35 +0.00    +0.101 C  
DOCKED: ENDROOT
DOCKED: BRANCH   2  12
DOCKED: ATOM     12  C   UNL     1     -35.704 -15.351  11.199 -0.11 +0.00    +0.038 C  
DOCKED: BRANCH  12  13
DOCKED: ATOM     13  C   UNL     1     -35.278 -14.429  10.059 -0.10 +0.00    +0.038 C  
DOCKED: BRANCH  13  14
DOCKED: ATOM     14  C   UNL     1     -34.754 -13.098  10.595 -0.04 +0.00    +0.251 C  
DOCKED: BRANCH  14  15
DOCKED: ATOM     15  N   UNL     1     -35.470 -11.986   9.982 -0.03 +0.00    +0.141 N  
DOCKED: ATOM     16  C   UNL     1     -36.144 -12.420   8.757 -0.07 +0.00    +0.285 C  
DOCKED: ATOM     17  C   UNL     1     -36.439 -11.417  10.920 -0.01 +0.00    +0.285 C  
DOCKED: ENDBRANCH  14  15
DOCKED: ENDBRANCH  13  14
DOCKED: ENDBRANCH  12  13
DOCKED: ENDBRANCH   2  12
DOCKED: BRANCH   2  18
DOCKED: ATOM     18  C   UNL     1     -37.474 -14.892  12.887 -0.04 +0.00    +0.006 A  
DOCKED: ATOM     19  C   UNL     1     -37.933 -13.616  13.208 -0.02 +0.00    +0.001 A  
DOCKED: ATOM     20  C   UNL     1     -38.187 -13.282  14.539 -0.00 +0.00    +0.029 A  
DOCKED: ATOM     21  C   UNL     1     -37.981 -14.223  15.546 -0.00 +0.00    +0.140 A  
DOCKED: ATOM     22  C   UNL     1     -37.521 -15.500  15.224 -0.01 +0.00    +0.029 A  
DOCKED: ATOM     23  F   UNL     1     -38.226 -13.903  16.823 +0.00 -0.00    -0.204 F  
DOCKED: ATOM     24  C   UNL     1     -37.267 -15.835  13.893 -0.04 +0.00    +0.001 A  
DOCKED: ENDBRANCH   2  18
DOCKED: TORSDOF 5
DOCKED: TER
DOCKED: ENDMDL
________________________________________________________________________________


    FINAL DOCKED STATE:
    ________________________


Run:   375 / 512
Time taken for this run:   0.002s

DOCKED: MODEL        375
DOCKED: USER    Run = 375
DOCKED: USER
DOCKED: USER    Estimated Free Energy of Binding    =  -4.67 kcal/mol  [=(1)+(2)+(3)-(4)]
DOCKED: USER
DOCKED: USER    (1) Final Intermolecular Energy     =  -6.16 kcal/mol
DOCKED: USER        vdW + Hbond + desolv Energy     =  -6.16 kcal/mol
DOCKED: USER        Electrostatic Energy            =  +0.00 kcal/mol
DOCKED: USER        Moving Ligand-Fixed Receptor    =  -6.16 kcal/mol
DOCKED: USER        Moving Ligand-Moving Receptor   =  +0.00 kcal/mol
DOCKED: USER    (2) Final Total Internal Energy     =  -1.04 kcal/mol
DOCKED: USER    (3) Torsional Free Energy           =  +1.49 kcal/mol
DOCKED: USER    (4) Unbound System's Energy         =  -1.04 kcal/mol
DOCKED: USER
DOCKED: USER
DOCKED: REMARK  5 active torsions:
DOCKED: REMARK  status: ('A' for Active; 'I' for Inactive)
DOCKED: REMARK    1  A    between atoms: C_2  and  C_19 
DOCKED: REMARK    2  A    between atoms: C_2  and  C_11 
DOCKED: REMARK    3  A    between atoms: C_19  and  C_20 
DOCKED: REMARK    4  A    between atoms: C_20  and  C_21 
DOCKED: REMARK    5  A    between atoms: C_21  and  N_22 
DOCKED: USER                              x       y       z     vdW  Elec       q    Type
DOCKED: USER                           _______ _______ _______ _____ _____    ______ ____
DOCKED: ROOT
DOCKED: ATOM      1  O   UNL     1     -41.892 -16.710  11.633 -0.01 -0.00    -0.346 OA 
DOCKED: ATOM      2  C   UNL     1     -40.474 -17.013  11.431 -0.11 +0.00    +0.130 C  
DOCKED: ATOM      3  C   UNL     1     -40.423 -17.584  10.044 -0.26 +0.00    +0.004 A  
DOCKED: ATOM      4  C   UNL     1     -41.681 -17.511   9.462 -0.26 +0.00    +0.006 A  
DOCKED: ATOM      5  C   UNL     1     -42.635 -16.886  10.405 -0.17 +0.00    +0.169 C  
DOCKED: ATOM      6  C   UNL     1     -39.347 -18.114   9.347 -0.37 -0.00    -0.001 A  
DOCKED: ATOM      7  C   UNL     1     -41.907 -17.967   8.174 -0.05 +0.00    +0.008 A  
DOCKED: ATOM      8  C   UNL     1     -39.559 -18.582   8.050 -0.31 +0.00    +0.010 A  
DOCKED: ATOM      9  C   UNL     1     -40.833 -18.508   7.466 -0.39 +0.00    +0.068 A  
DOCKED: ATOM     10  N   UNL     1     -41.192 -19.381   5.053 -2.64 -0.00    -0.191 NA 
DOCKED: ATOM     11  C   UNL     1     -41.031 -18.990   6.136 -0.29 +0.00    +0.101 C  
DOCKED: ENDROOT
DOCKED: BRANCH   2  12
DOCKED: ATOM     12  C   UNL     1     -39.680 -15.720  11.571 -0.13 +0.00    +0.038 C  
DOCKED: BRANCH  12  13
DOCKED: ATOM     13  C   UNL     1     -40.301 -14.593  10.748 -0.20 +0.00    +0.038 C  
DOCKED: BRANCH  13  14
DOCKED: ATOM     14  C   UNL     1     -39.939 -13.226  11.325 -0.06 +0.00    +0.251 C  
DOCKED: BRANCH  14  15
DOCKED: ATOM     15  N   UNL     1     -40.679 -12.984  12.558 -0.02 +0.00    +0.141 N  
DOCKED: ATOM     16  C   UNL     1     -39.841 -13.261  13.726 -0.00 +0.00    +0.285 C  
DOCKED: ATOM     17  C   UNL     1     -41.170 -11.605  12.602 -0.01 +0.00    +0.285 C  
DOCKED: ENDBRANCH  14  15
DOCKED: ENDBRANCH  13  14
DOCKED: ENDBRANCH  12  13
DOCKED: ENDBRANCH   2  12
DOCKED: BRANCH   2  18
DOCKED: ATOM     18  C   UNL     1     -40.085 -18.000  12.481 -0.13 +0.00    +0.006 A  
DOCKED: ATOM     19  C   UNL     1     -38.767 -18.448  12.561 -0.20 +0.00    +0.001 A  
DOCKED: ATOM     20  C   UNL     1     -38.404 -19.371  13.542 -0.07 +0.00    +0.029 A  
DOCKED: ATOM     21  C   UNL     1     -39.359 -19.844  14.442 -0.12 +0.00    +0.140 A  
DOCKED: ATOM     22  C   UNL     1     -40.677 -19.395  14.361 -0.15 +0.00    +0.029 A  
DOCKED: ATOM     23  F   UNL     1     -39.010 -20.728  15.385 -0.08 -0.00    -0.204 F  
DOCKED: ATOM     24  C   UNL     1     -41.041 -18.472  13.379 -0.13 +0.00    +0.001 A  
DOCKED: ENDBRANCH   2  18
DOCKED: TORSDOF 5
DOCKED: TER
DOCKED: ENDMDL
________________________________________________________________________________


    FINAL DOCKED STATE:
    ________________________


Run:   376 / 512
Time taken for this run:   0.002s

DOCKED: MODEL        376
DOCKED: USER    Run = 376
DOCKED: USER
DOCKED: USER    Estimated Free Energy of Binding    =  -3.53 kcal/mol  [=(1)+(2)+(3)-(4)]
DOCKED: USER
DOCKED: USER    (1) Final Intermolecular Energy     =  -5.03 kcal/mol
DOCKED: USER        vdW + Hbond + desolv Energy     =  -5.03 kcal/mol
DOCKED: USER        Electrostatic Energy            =  +0.00 kcal/mol
DOCKED: USER        Moving Ligand-Fixed Receptor    =  -5.03 kcal/mol
DOCKED: USER        Moving Ligand-Moving Receptor   =  +0.00 kcal/mol
DOCKED: USER    (2) Final Total Internal Energy     =  -1.40 kcal/mol
DOCKED: USER    (3) Torsional Free Energy           =  +1.49 kcal/mol
DOCKED: USER    (4) Unbound System's Energy         =  -1.40 kcal/mol
DOCKED: USER
DOCKED: USER
DOCKED: REMARK  5 active torsions:
DOCKED: REMARK  status: ('A' for Active; 'I' for Inactive)
DOCKED: REMARK    1  A    between atoms: C_2  and  C_19 
DOCKED: REMARK    2  A    between atoms: C_2  and  C_11 
DOCKED: REMARK    3  A    between atoms: C_19  and  C_20 
DOCKED: REMARK    4  A    between atoms: C_20  and  C_21 
DOCKED: REMARK    5  A    between atoms: C_21  and  N_22 
DOCKED: USER                              x       y       z     vdW  Elec       q    Type
DOCKED: USER                           _______ _______ _______ _____ _____    ______ ____
DOCKED: ROOT
DOCKED: ATOM      1  O   UNL     1     -32.356  -6.675   2.251 -0.04 -0.00    -0.346 OA 
DOCKED: ATOM      2  C   UNL     1     -32.638  -8.089   2.005 -0.07 +0.00    +0.130 C  
DOCKED: ATOM      3  C   UNL     1     -33.890  -8.067   1.176 -0.13 +0.00    +0.004 A  
DOCKED: ATOM      4  C   UNL     1     -34.231  -6.755   0.880 -0.20 +0.00    +0.006 A  
DOCKED: ATOM      5  C   UNL     1     -33.237  -5.832   1.473 -0.14 +0.00    +0.169 C  
DOCKED: ATOM      6  C   UNL     1     -34.658  -9.125   0.710 -0.17 -0.00    -0.001 A  
DOCKED: ATOM      7  C   UNL     1     -35.347  -6.455   0.118 -0.31 +0.00    +0.008 A  
DOCKED: ATOM      8  C   UNL     1     -35.789  -8.838  -0.056 -0.20 +0.00    +0.010 A  
DOCKED: ATOM      9  C   UNL     1     -36.131  -7.510  -0.351 -0.33 +0.00    +0.068 A  
DOCKED: ATOM     10  N   UNL     1     -38.234  -7.014  -1.780 -2.55 -0.00    -0.191 NA 
DOCKED: ATOM     11  C   UNL     1     -37.291  -7.236  -1.139 -0.43 +0.00    +0.101 C  
DOCKED: ENDROOT
DOCKED: BRANCH   2  12
DOCKED: ATOM     12  C   UNL     1     -31.450  -8.698   1.270 -0.02 +0.00    +0.038 C  
DOCKED: BRANCH  12  13
DOCKED: ATOM     13  C   UNL     1     -30.325  -7.681   1.093 -0.01 +0.00    +0.038 C  
DOCKED: BRANCH  13  14
DOCKED: ATOM     14  C   UNL     1     -29.465  -7.587   2.352 -0.00 +0.00    +0.251 C  
DOCKED: BRANCH  14  15
DOCKED: ATOM     15  N   UNL     1     -29.457  -6.221   2.861 -0.01 +0.00    +0.141 N  
DOCKED: ATOM     16  C   UNL     1     -29.902  -6.187   4.255 -0.02 +0.00    +0.285 C  
DOCKED: ATOM     17  C   UNL     1     -28.122  -5.633   2.740 +0.00 +0.00    +0.285 C  
DOCKED: ENDBRANCH  14  15
DOCKED: ENDBRANCH  13  14
DOCKED: ENDBRANCH  12  13
DOCKED: ENDBRANCH   2  12
DOCKED: BRANCH   2  18
DOCKED: ATOM     18  C   UNL     1     -32.835  -8.733   3.337 -0.10 +0.00    +0.006 A  
DOCKED: ATOM     19  C   UNL     1     -33.125 -10.095   3.417 -0.05 +0.00    +0.001 A  
DOCKED: ATOM     20  C   UNL     1     -33.309 -10.695   4.663 -0.04 +0.00    +0.029 A  
DOCKED: ATOM     21  C   UNL     1     -33.202  -9.935   5.826 -0.05 +0.00    +0.140 A  
DOCKED: ATOM     22  C   UNL     1     -32.911  -8.573   5.746 -0.09 +0.00    +0.029 A  
DOCKED: ATOM     23  F   UNL     1     -33.377 -10.512   7.022 -0.00 -0.00    -0.204 F  
DOCKED: ATOM     24  C   UNL     1     -32.728  -7.971   4.500 -0.07 +0.00    +0.001 A  
DOCKED: ENDBRANCH   2  18
DOCKED: TORSDOF 5
DOCKED: TER
DOCKED: ENDMDL
________________________________________________________________________________


    FINAL DOCKED STATE:
    ________________________


Run:   377 / 512
Time taken for this run:   0.002s

DOCKED: MODEL        377
DOCKED: USER    Run = 377
DOCKED: USER
DOCKED: USER    Estimated Free Energy of Binding    =  -4.19 kcal/mol  [=(1)+(2)+(3)-(4)]
DOCKED: USER
DOCKED: USER    (1) Final Intermolecular Energy     =  -5.69 kcal/mol
DOCKED: USER        vdW + Hbond + desolv Energy     =  -5.69 kcal/mol
DOCKED: USER        Electrostatic Energy            =  +0.00 kcal/mol
DOCKED: USER        Moving Ligand-Fixed Receptor    =  -5.69 kcal/mol
DOCKED: USER        Moving Ligand-Moving Receptor   =  +0.00 kcal/mol
DOCKED: USER    (2) Final Total Internal Energy     =  -1.40 kcal/mol
DOCKED: USER    (3) Torsional Free Energy           =  +1.49 kcal/mol
DOCKED: USER    (4) Unbound System's Energy         =  -1.40 kcal/mol
DOCKED: USER
DOCKED: USER
DOCKED: REMARK  5 active torsions:
DOCKED: REMARK  status: ('A' for Active; 'I' for Inactive)
DOCKED: REMARK    1  A    between atoms: C_2  and  C_19 
DOCKED: REMARK    2  A    between atoms: C_2  and  C_11 
DOCKED: REMARK    3  A    between atoms: C_19  and  C_20 
DOCKED: REMARK    4  A    between atoms: C_20  and  C_21 
DOCKED: REMARK    5  A    between atoms: C_21  and  N_22 
DOCKED: USER                              x       y       z     vdW  Elec       q    Type
DOCKED: USER                           _______ _______ _______ _____ _____    ______ ____
DOCKED: ROOT
DOCKED: ATOM      1  O   UNL     1     -36.015 -16.294  12.019 -0.08 -0.00    -0.346 OA 
DOCKED: ATOM      2  C   UNL     1     -36.916 -15.357  11.346 -0.13 +0.00    +0.130 C  
DOCKED: ATOM      3  C   UNL     1     -37.918 -16.245  10.668 -0.20 +0.00    +0.004 A  
DOCKED: ATOM      4  C   UNL     1     -37.679 -17.568  11.013 -0.24 +0.00    +0.006 A  
DOCKED: ATOM      5  C   UNL     1     -36.527 -17.645  11.939 -0.14 +0.00    +0.169 C  
DOCKED: ATOM      6  C   UNL     1     -38.965 -15.908   9.823 -0.28 -0.00    -0.001 A  
DOCKED: ATOM      7  C   UNL     1     -38.470 -18.594  10.525 -0.34 +0.00    +0.008 A  
DOCKED: ATOM      8  C   UNL     1     -39.769 -16.932   9.319 -0.32 +0.00    +0.010 A  
DOCKED: ATOM      9  C   UNL     1     -39.522 -18.268   9.668 -0.31 +0.00    +0.068 A  
DOCKED: ATOM     10  N   UNL     1     -41.037 -20.144   8.719 -2.56 -0.00    -0.191 NA 
DOCKED: ATOM     11  C   UNL     1     -40.357 -19.303   9.144 -0.37 +0.00    +0.101 C  
DOCKED: ENDROOT
DOCKED: BRANCH   2  12
DOCKED: ATOM     12  C   UNL     1     -37.542 -14.450  12.399 -0.05 +0.00    +0.038 C  
DOCKED: BRANCH  12  13
DOCKED: ATOM     13  C   UNL     1     -36.509 -13.991  13.425 -0.02 +0.00    +0.038 C  
DOCKED: BRANCH  13  14
DOCKED: ATOM     14  C   UNL     1     -36.468 -12.467  13.521 -0.00 +0.00    +0.251 C  
DOCKED: BRANCH  14  15
DOCKED: ATOM     15  N   UNL     1     -35.939 -11.895  12.288 -0.01 +0.00    +0.141 N  
DOCKED: ATOM     16  C   UNL     1     -36.883 -10.933  11.718 -0.00 +0.00    +0.285 C  
DOCKED: ATOM     17  C   UNL     1     -34.646 -11.254  12.531 -0.00 +0.00    +0.285 C  
DOCKED: ENDBRANCH  14  15
DOCKED: ENDBRANCH  13  14
DOCKED: ENDBRANCH  12  13
DOCKED: ENDBRANCH   2  12
DOCKED: BRANCH   2  18
DOCKED: ATOM     18  C   UNL     1     -36.088 -14.572  10.384 -0.11 +0.00    +0.006 A  
DOCKED: ATOM     19  C   UNL     1     -34.715 -14.798  10.301 -0.07 +0.00    +0.001 A  
DOCKED: ATOM     20  C   UNL     1     -33.942 -14.063   9.400 -0.10 +0.00    +0.029 A  
DOCKED: ATOM     21  C   UNL     1     -34.543 -13.106   8.584 -0.07 +0.00    +0.140 A  
DOCKED: ATOM     22  C   UNL     1     -35.917 -12.882   8.667 -0.12 +0.00    +0.029 A  
DOCKED: ATOM     23  F   UNL     1     -33.802 -12.403   7.719 -0.00 -0.00    -0.204 F  
DOCKED: ATOM     24  C   UNL     1     -36.691 -13.616   9.568 -0.15 +0.00    +0.001 A  
DOCKED: ENDBRANCH   2  18
DOCKED: TORSDOF 5
DOCKED: TER
DOCKED: ENDMDL
________________________________________________________________________________


    FINAL DOCKED STATE:
    ________________________


Run:   378 / 512
Time taken for this run:   0.002s

DOCKED: MODEL        378
DOCKED: USER    Run = 378
DOCKED: USER
DOCKED: USER    Estimated Free Energy of Binding    =  -3.88 kcal/mol  [=(1)+(2)+(3)-(4)]
DOCKED: USER
DOCKED: USER    (1) Final Intermolecular Energy     =  -5.38 kcal/mol
DOCKED: USER        vdW + Hbond + desolv Energy     =  -5.38 kcal/mol
DOCKED: USER        Electrostatic Energy            =  +0.00 kcal/mol
DOCKED: USER        Moving Ligand-Fixed Receptor    =  -5.38 kcal/mol
DOCKED: USER        Moving Ligand-Moving Receptor   =  +0.00 kcal/mol
DOCKED: USER    (2) Final Total Internal Energy     =  -1.28 kcal/mol
DOCKED: USER    (3) Torsional Free Energy           =  +1.49 kcal/mol
DOCKED: USER    (4) Unbound System's Energy         =  -1.28 kcal/mol
DOCKED: USER
DOCKED: USER
DOCKED: REMARK  5 active torsions:
DOCKED: REMARK  status: ('A' for Active; 'I' for Inactive)
DOCKED: REMARK    1  A    between atoms: C_2  and  C_19 
DOCKED: REMARK    2  A    between atoms: C_2  and  C_11 
DOCKED: REMARK    3  A    between atoms: C_19  and  C_20 
DOCKED: REMARK    4  A    between atoms: C_20  and  C_21 
DOCKED: REMARK    5  A    between atoms: C_21  and  N_22 
DOCKED: USER                              x       y       z     vdW  Elec       q    Type
DOCKED: USER                           _______ _______ _______ _____ _____    ______ ____
DOCKED: ROOT
DOCKED: ATOM      1  O   UNL     1     -37.846 -17.557  14.258 -0.03 -0.00    -0.346 OA 
DOCKED: ATOM      2  C   UNL     1     -37.341 -16.865  13.071 -0.10 +0.00    +0.130 C  
DOCKED: ATOM      3  C   UNL     1     -38.116 -17.479  11.941 -0.19 +0.00    +0.004 A  
DOCKED: ATOM      4  C   UNL     1     -39.058 -18.363  12.446 -0.19 +0.00    +0.006 A  
DOCKED: ATOM      5  C   UNL     1     -38.983 -18.387  13.924 -0.12 +0.00    +0.169 C  
DOCKED: ATOM      6  C   UNL     1     -38.003 -17.263  10.575 -0.23 -0.00    -0.001 A  
DOCKED: ATOM      7  C   UNL     1     -39.912 -19.062  11.610 -0.25 +0.00    +0.008 A  
DOCKED: ATOM      8  C   UNL     1     -38.854 -17.963   9.718 -0.32 +0.00    +0.010 A  
DOCKED: ATOM      9  C   UNL     1     -39.804 -18.857  10.234 -0.27 +0.00    +0.068 A  
DOCKED: ATOM     10  N   UNL     1     -41.372 -20.137   8.616 -2.26 -0.00    -0.191 NA 
DOCKED: ATOM     11  C   UNL     1     -40.668 -19.564   9.341 -0.19 +0.00    +0.101 C  
DOCKED: ENDROOT
DOCKED: BRANCH   2  12
DOCKED: ATOM     12  C   UNL     1     -37.608 -15.373  13.232 -0.05 +0.00    +0.038 C  
DOCKED: BRANCH  12  13
DOCKED: ATOM     13  C   UNL     1     -39.078 -15.040  12.984 -0.04 +0.00    +0.038 C  
DOCKED: BRANCH  13  14
DOCKED: ATOM     14  C   UNL     1     -39.219 -13.826  12.067 -0.03 +0.00    +0.251 C  
DOCKED: BRANCH  14  15
DOCKED: ATOM     15  N   UNL     1     -39.368 -14.252  10.681 -0.13 +0.00    +0.141 N  
DOCKED: ATOM     16  C   UNL     1     -40.480 -13.547  10.041 -0.15 +0.00    +0.285 C  
DOCKED: ATOM     17  C   UNL     1     -38.128 -14.026   9.936 -0.13 +0.00    +0.285 C  
DOCKED: ENDBRANCH  14  15
DOCKED: ENDBRANCH  13  14
DOCKED: ENDBRANCH  12  13
DOCKED: ENDBRANCH   2  12
DOCKED: BRANCH   2  18
DOCKED: ATOM     18  C   UNL     1     -35.877 -17.145  12.992 -0.14 +0.00    +0.006 A  
DOCKED: ATOM     19  C   UNL     1     -35.255 -17.889  13.995 -0.10 +0.00    +0.001 A  
DOCKED: ATOM     20  C   UNL     1     -33.887 -18.149  13.920 -0.11 +0.00    +0.029 A  
DOCKED: ATOM     21  C   UNL     1     -33.142 -17.667  12.844 -0.08 +0.00    +0.140 A  
DOCKED: ATOM     22  C   UNL     1     -33.765 -16.923  11.842 -0.14 +0.00    +0.029 A  
DOCKED: ATOM     23  F   UNL     1     -31.829 -17.919  12.772 +0.00 -0.00    -0.204 F  
DOCKED: ATOM     24  C   UNL     1     -35.135 -16.662  11.916 -0.15 +0.00    +0.001 A  
DOCKED: ENDBRANCH   2  18
DOCKED: TORSDOF 5
DOCKED: TER
DOCKED: ENDMDL
________________________________________________________________________________


    FINAL DOCKED STATE:
    ________________________


Run:   379 / 512
Time taken for this run:   0.002s

DOCKED: MODEL        379
DOCKED: USER    Run = 379
DOCKED: USER
DOCKED: USER    Estimated Free Energy of Binding    =  -6.71 kcal/mol  [=(1)+(2)+(3)-(4)]
DOCKED: USER
DOCKED: USER    (1) Final Intermolecular Energy     =  -8.20 kcal/mol
DOCKED: USER        vdW + Hbond + desolv Energy     =  -8.20 kcal/mol
DOCKED: USER        Electrostatic Energy            =  +0.00 kcal/mol
DOCKED: USER        Moving Ligand-Fixed Receptor    =  -8.20 kcal/mol
DOCKED: USER        Moving Ligand-Moving Receptor   =  +0.00 kcal/mol
DOCKED: USER    (2) Final Total Internal Energy     =  -1.02 kcal/mol
DOCKED: USER    (3) Torsional Free Energy           =  +1.49 kcal/mol
DOCKED: USER    (4) Unbound System's Energy         =  -1.02 kcal/mol
DOCKED: USER
DOCKED: USER
DOCKED: REMARK  5 active torsions:
DOCKED: REMARK  status: ('A' for Active; 'I' for Inactive)
DOCKED: REMARK    1  A    between atoms: C_2  and  C_19 
DOCKED: REMARK    2  A    between atoms: C_2  and  C_11 
DOCKED: REMARK    3  A    between atoms: C_19  and  C_20 
DOCKED: REMARK    4  A    between atoms: C_20  and  C_21 
DOCKED: REMARK    5  A    between atoms: C_21  and  N_22 
DOCKED: USER                              x       y       z     vdW  Elec       q    Type
DOCKED: USER                           _______ _______ _______ _____ _____    ______ ____
DOCKED: ROOT
DOCKED: ATOM      1  O   UNL     1     -37.963 -19.908  10.783 -0.41 -0.00    -0.346 OA 
DOCKED: ATOM      2  C   UNL     1     -39.021 -18.922  11.008 -0.29 +0.00    +0.130 C  
DOCKED: ATOM      3  C   UNL     1     -39.673 -18.781   9.663 -0.37 +0.00    +0.004 A  
DOCKED: ATOM      4  C   UNL     1     -39.111 -19.687   8.774 -0.39 +0.00    +0.006 A  
DOCKED: ATOM      5  C   UNL     1     -38.073 -20.487   9.462 -0.14 +0.00    +0.169 C  
DOCKED: ATOM      6  C   UNL     1     -40.690 -17.927   9.261 -0.33 -0.00    -0.001 A  
DOCKED: ATOM      7  C   UNL     1     -39.540 -19.768   7.461 -0.34 +0.00    +0.008 A  
DOCKED: ATOM      8  C   UNL     1     -41.131 -17.994   7.938 -0.18 +0.00    +0.010 A  
DOCKED: ATOM      9  C   UNL     1     -40.559 -18.910   7.043 -0.46 +0.00    +0.068 A  
DOCKED: ATOM     10  N   UNL     1     -41.404 -19.011   4.596 -3.34 -0.00    -0.191 NA 
DOCKED: ATOM     11  C   UNL     1     -41.024 -18.966   5.693 -0.28 +0.00    +0.101 C  
DOCKED: ENDROOT
DOCKED: BRANCH   2  12
DOCKED: ATOM     12  C   UNL     1     -39.967 -19.464  12.073 -0.30 +0.00    +0.038 C  
DOCKED: BRANCH  12  13
DOCKED: ATOM     13  C   UNL     1     -40.591 -18.334  12.891 -0.15 +0.00    +0.038 C  
DOCKED: BRANCH  13  14
DOCKED: ATOM     14  C   UNL     1     -41.938 -18.757  13.473 -0.07 +0.00    +0.251 C  
DOCKED: BRANCH  14  15
DOCKED: ATOM     15  N   UNL     1     -42.805 -19.275  12.422 -0.13 +0.00    +0.141 N  
DOCKED: ATOM     16  C   UNL     1     -44.027 -19.842  12.994 -0.07 +0.00    +0.285 C  
DOCKED: ATOM     17  C   UNL     1     -43.135 -18.223  11.460 -0.06 +0.00    +0.285 C  
DOCKED: ENDBRANCH  14  15
DOCKED: ENDBRANCH  13  14
DOCKED: ENDBRANCH  12  13
DOCKED: ENDBRANCH   2  12
DOCKED: BRANCH   2  18
DOCKED: ATOM     18  C   UNL     1     -38.357 -17.666  11.466 -0.23 +0.00    +0.006 A  
DOCKED: ATOM     19  C   UNL     1     -37.280 -17.731  12.349 -0.17 +0.00    +0.001 A  
DOCKED: ATOM     20  C   UNL     1     -36.660 -16.556  12.778 -0.11 +0.00    +0.029 A  
DOCKED: ATOM     21  C   UNL     1     -37.117 -15.320  12.322 -0.06 +0.00    +0.140 A  
DOCKED: ATOM     22  C   UNL     1     -38.194 -15.257  11.439 -0.12 +0.00    +0.029 A  
DOCKED: ATOM     23  F   UNL     1     -36.521 -14.193  12.732 -0.00 -0.00    -0.204 F  
DOCKED: ATOM     24  C   UNL     1     -38.815 -16.431  11.010 -0.20 +0.00    +0.001 A  
DOCKED: ENDBRANCH   2  18
DOCKED: TORSDOF 5
DOCKED: TER
DOCKED: ENDMDL
________________________________________________________________________________


    FINAL DOCKED STATE:
    ________________________


Run:   380 / 512
Time taken for this run:   0.002s

DOCKED: MODEL        380
DOCKED: USER    Run = 380
DOCKED: USER
DOCKED: USER    Estimated Free Energy of Binding    =  -4.05 kcal/mol  [=(1)+(2)+(3)-(4)]
DOCKED: USER
DOCKED: USER    (1) Final Intermolecular Energy     =  -5.54 kcal/mol
DOCKED: USER        vdW + Hbond + desolv Energy     =  -5.54 kcal/mol
DOCKED: USER        Electrostatic Energy            =  +0.00 kcal/mol
DOCKED: USER        Moving Ligand-Fixed Receptor    =  -5.54 kcal/mol
DOCKED: USER        Moving Ligand-Moving Receptor   =  +0.00 kcal/mol
DOCKED: USER    (2) Final Total Internal Energy     =  -1.36 kcal/mol
DOCKED: USER    (3) Torsional Free Energy           =  +1.49 kcal/mol
DOCKED: USER    (4) Unbound System's Energy         =  -1.36 kcal/mol
DOCKED: USER
DOCKED: USER
DOCKED: REMARK  5 active torsions:
DOCKED: REMARK  status: ('A' for Active; 'I' for Inactive)
DOCKED: REMARK    1  A    between atoms: C_2  and  C_19 
DOCKED: REMARK    2  A    between atoms: C_2  and  C_11 
DOCKED: REMARK    3  A    between atoms: C_19  and  C_20 
DOCKED: REMARK    4  A    between atoms: C_20  and  C_21 
DOCKED: REMARK    5  A    between atoms: C_21  and  N_22 
DOCKED: USER                              x       y       z     vdW  Elec       q    Type
DOCKED: USER                           _______ _______ _______ _____ _____    ______ ____
DOCKED: ROOT
DOCKED: ATOM      1  O   UNL     1     -40.328 -13.628  10.566 -0.08 -0.00    -0.346 OA 
DOCKED: ATOM      2  C   UNL     1     -38.993 -14.206  10.732 -0.15 +0.00    +0.130 C  
DOCKED: ATOM      3  C   UNL     1     -39.175 -15.646  10.346 -0.24 +0.00    +0.004 A  
DOCKED: ATOM      4  C   UNL     1     -40.471 -15.848   9.894 -0.24 +0.00    +0.006 A  
DOCKED: ATOM      5  C   UNL     1     -41.223 -14.574   9.935 -0.15 +0.00    +0.169 C  
DOCKED: ATOM      6  C   UNL     1     -38.263 -16.690  10.382 -0.22 -0.00    -0.001 A  
DOCKED: ATOM      7  C   UNL     1     -40.900 -17.094   9.468 -0.26 +0.00    +0.008 A  
DOCKED: ATOM      8  C   UNL     1     -38.681 -17.953   9.960 -0.31 +0.00    +0.010 A  
DOCKED: ATOM      9  C   UNL     1     -39.993 -18.154   9.505 -0.30 +0.00    +0.068 A  
DOCKED: ATOM     10  N   UNL     1     -40.735 -20.510   8.725 -2.60 -0.00    -0.191 NA 
DOCKED: ATOM     11  C   UNL     1     -40.402 -19.453   9.075 -0.35 +0.00    +0.101 C  
DOCKED: ENDROOT
DOCKED: BRANCH   2  12
DOCKED: ATOM     12  C   UNL     1     -38.028 -13.464   9.816 -0.17 +0.00    +0.038 C  
DOCKED: BRANCH  12  13
DOCKED: ATOM     13  C   UNL     1     -36.698 -14.203   9.691 -0.16 +0.00    +0.038 C  
DOCKED: BRANCH  13  14
DOCKED: ATOM     14  C   UNL     1     -35.629 -13.564  10.576 -0.07 +0.00    +0.251 C  
DOCKED: BRANCH  14  15
DOCKED: ATOM     15  N   UNL     1     -35.431 -14.356  11.784 -0.05 +0.00    +0.141 N  
DOCKED: ATOM     16  C   UNL     1     -34.970 -15.704  11.448 -0.07 +0.00    +0.285 C  
DOCKED: ATOM     17  C   UNL     1     -34.474 -13.701  12.678 -0.01 +0.00    +0.285 C  
DOCKED: ENDBRANCH  14  15
DOCKED: ENDBRANCH  13  14
DOCKED: ENDBRANCH  12  13
DOCKED: ENDBRANCH   2  12
DOCKED: BRANCH   2  18
DOCKED: ATOM     18  C   UNL     1     -38.617 -14.031  12.165 -0.05 +0.00    +0.006 A  
DOCKED: ATOM     19  C   UNL     1     -38.167 -12.793  12.621 -0.02 +0.00    +0.001 A  
DOCKED: ATOM     20  C   UNL     1     -37.815 -12.631  13.962 -0.00 +0.00    +0.029 A  
DOCKED: ATOM     21  C   UNL     1     -37.915 -13.706  14.844 -0.00 +0.00    +0.140 A  
DOCKED: ATOM     22  C   UNL     1     -38.366 -14.944  14.387 -0.01 +0.00    +0.029 A  
DOCKED: ATOM     23  F   UNL     1     -37.579 -13.549  16.131 +0.00 -0.00    -0.204 F  
DOCKED: ATOM     24  C   UNL     1     -38.717 -15.107  13.046 -0.04 +0.00    +0.001 A  
DOCKED: ENDBRANCH   2  18
DOCKED: TORSDOF 5
DOCKED: TER
DOCKED: ENDMDL
________________________________________________________________________________


    FINAL DOCKED STATE:
    ________________________


Run:   381 / 512
Time taken for this run:   0.002s

DOCKED: MODEL        381
DOCKED: USER    Run = 381
DOCKED: USER
DOCKED: USER    Estimated Free Energy of Binding    =  -4.91 kcal/mol  [=(1)+(2)+(3)-(4)]
DOCKED: USER
DOCKED: USER    (1) Final Intermolecular Energy     =  -6.40 kcal/mol
DOCKED: USER        vdW + Hbond + desolv Energy     =  -6.40 kcal/mol
DOCKED: USER        Electrostatic Energy            =  +0.00 kcal/mol
DOCKED: USER        Moving Ligand-Fixed Receptor    =  -6.40 kcal/mol
DOCKED: USER        Moving Ligand-Moving Receptor   =  +0.00 kcal/mol
DOCKED: USER    (2) Final Total Internal Energy     =  -1.52 kcal/mol
DOCKED: USER    (3) Torsional Free Energy           =  +1.49 kcal/mol
DOCKED: USER    (4) Unbound System's Energy         =  -1.52 kcal/mol
DOCKED: USER
DOCKED: USER
DOCKED: REMARK  5 active torsions:
DOCKED: REMARK  status: ('A' for Active; 'I' for Inactive)
DOCKED: REMARK    1  A    between atoms: C_2  and  C_19 
DOCKED: REMARK    2  A    between atoms: C_2  and  C_11 
DOCKED: REMARK    3  A    between atoms: C_19  and  C_20 
DOCKED: REMARK    4  A    between atoms: C_20  and  C_21 
DOCKED: REMARK    5  A    between atoms: C_21  and  N_22 
DOCKED: USER                              x       y       z     vdW  Elec       q    Type
DOCKED: USER                           _______ _______ _______ _____ _____    ______ ____
DOCKED: ROOT
DOCKED: ATOM      1  O   UNL     1     -39.023 -16.723  11.198 -0.05 -0.00    -0.346 OA 
DOCKED: ATOM      2  C   UNL     1     -40.242 -17.508  11.401 -0.13 +0.00    +0.130 C  
DOCKED: ATOM      3  C   UNL     1     -40.627 -17.939  10.015 -0.26 +0.00    +0.004 A  
DOCKED: ATOM      4  C   UNL     1     -39.655 -17.531   9.112 -0.37 +0.00    +0.006 A  
DOCKED: ATOM      5  C   UNL     1     -38.570 -16.824   9.828 -0.17 +0.00    +0.169 C  
DOCKED: ATOM      6  C   UNL     1     -41.742 -18.645   9.590 -0.29 -0.00    -0.001 A  
DOCKED: ATOM      7  C   UNL     1     -39.765 -17.810   7.761 -0.18 +0.00    +0.008 A  
DOCKED: ATOM      8  C   UNL     1     -41.870 -18.930   8.229 -0.37 +0.00    +0.010 A  
DOCKED: ATOM      9  C   UNL     1     -40.886 -18.515   7.320 -0.38 +0.00    +0.068 A  
DOCKED: ATOM     10  N   UNL     1     -41.152 -19.064   4.801 -3.01 -0.00    -0.191 NA 
DOCKED: ATOM     11  C   UNL     1     -41.033 -18.817   5.931 -0.27 +0.00    +0.101 C  
DOCKED: ENDROOT
DOCKED: BRANCH   2  12
DOCKED: ATOM     12  C   UNL     1     -39.914 -18.680  12.318 -0.22 +0.00    +0.038 C  
DOCKED: BRANCH  12  13
DOCKED: ATOM     13  C   UNL     1     -38.432 -18.700  12.687 -0.20 +0.00    +0.038 C  
DOCKED: BRANCH  13  14
DOCKED: ATOM     14  C   UNL     1     -38.176 -17.924  13.977 -0.08 +0.00    +0.251 C  
DOCKED: BRANCH  14  15
DOCKED: ATOM     15  N   UNL     1     -38.092 -16.495  13.700 -0.04 +0.00    +0.141 N  
DOCKED: ATOM     16  C   UNL     1     -38.476 -15.717  14.880 -0.00 +0.00    +0.285 C  
DOCKED: ATOM     17  C   UNL     1     -36.740 -16.131  13.271 -0.04 +0.00    +0.285 C  
DOCKED: ENDBRANCH  14  15
DOCKED: ENDBRANCH  13  14
DOCKED: ENDBRANCH  12  13
DOCKED: ENDBRANCH   2  12
DOCKED: BRANCH   2  18
DOCKED: ATOM     18  C   UNL     1     -41.247 -16.599  12.027 -0.09 +0.00    +0.006 A  
DOCKED: ATOM     19  C   UNL     1     -42.288 -17.130  12.787 -0.07 +0.00    +0.001 A  
DOCKED: ATOM     20  C   UNL     1     -43.227 -16.280  13.372 -0.04 +0.00    +0.029 A  
DOCKED: ATOM     21  C   UNL     1     -43.123 -14.900  13.197 -0.01 +0.00    +0.140 A  
DOCKED: ATOM     22  C   UNL     1     -42.080 -14.370  12.438 -0.05 +0.00    +0.029 A  
DOCKED: ATOM     23  F   UNL     1     -44.023 -14.084  13.760 +0.01 -0.00    -0.204 F  
DOCKED: ATOM     24  C   UNL     1     -41.141 -15.220  11.852 -0.09 +0.00    +0.001 A  
DOCKED: ENDBRANCH   2  18
DOCKED: TORSDOF 5
DOCKED: TER
DOCKED: ENDMDL
________________________________________________________________________________


    FINAL DOCKED STATE:
    ________________________


Run:   382 / 512
Time taken for this run:   0.002s

DOCKED: MODEL        382
DOCKED: USER    Run = 382
DOCKED: USER
DOCKED: USER    Estimated Free Energy of Binding    =  -3.89 kcal/mol  [=(1)+(2)+(3)-(4)]
DOCKED: USER
DOCKED: USER    (1) Final Intermolecular Energy     =  -5.38 kcal/mol
DOCKED: USER        vdW + Hbond + desolv Energy     =  -5.38 kcal/mol
DOCKED: USER        Electrostatic Energy            =  +0.00 kcal/mol
DOCKED: USER        Moving Ligand-Fixed Receptor    =  -5.38 kcal/mol
DOCKED: USER        Moving Ligand-Moving Receptor   =  +0.00 kcal/mol
DOCKED: USER    (2) Final Total Internal Energy     =  -1.49 kcal/mol
DOCKED: USER    (3) Torsional Free Energy           =  +1.49 kcal/mol
DOCKED: USER    (4) Unbound System's Energy         =  -1.49 kcal/mol
DOCKED: USER
DOCKED: USER
DOCKED: REMARK  5 active torsions:
DOCKED: REMARK  status: ('A' for Active; 'I' for Inactive)
DOCKED: REMARK    1  A    between atoms: C_2  and  C_19 
DOCKED: REMARK    2  A    between atoms: C_2  and  C_11 
DOCKED: REMARK    3  A    between atoms: C_19  and  C_20 
DOCKED: REMARK    4  A    between atoms: C_20  and  C_21 
DOCKED: REMARK    5  A    between atoms: C_21  and  N_22 
DOCKED: USER                              x       y       z     vdW  Elec       q    Type
DOCKED: USER                           _______ _______ _______ _____ _____    ______ ____
DOCKED: ROOT
DOCKED: ATOM      1  O   UNL     1     -37.561 -16.186  13.498 -0.01 -0.00    -0.346 OA 
DOCKED: ATOM      2  C   UNL     1     -37.560 -15.458  12.228 -0.08 +0.00    +0.130 C  
DOCKED: ATOM      3  C   UNL     1     -38.284 -16.376  11.287 -0.18 +0.00    +0.004 A  
DOCKED: ATOM      4  C   UNL     1     -38.755 -17.481  11.982 -0.16 +0.00    +0.006 A  
DOCKED: ATOM      5  C   UNL     1     -38.392 -17.366  13.412 -0.08 +0.00    +0.169 C  
DOCKED: ATOM      6  C   UNL     1     -38.518 -16.238   9.926 -0.23 -0.00    -0.001 A  
DOCKED: ATOM      7  C   UNL     1     -39.468 -18.482  11.345 -0.23 +0.00    +0.008 A  
DOCKED: ATOM      8  C   UNL     1     -39.231 -17.243   9.269 -0.32 +0.00    +0.010 A  
DOCKED: ATOM      9  C   UNL     1     -39.704 -18.359   9.976 -0.28 +0.00    +0.068 A  
DOCKED: ATOM     10  N   UNL     1     -41.029 -20.202   8.726 -2.56 -0.00    -0.191 NA 
DOCKED: ATOM     11  C   UNL     1     -40.434 -19.375   9.286 -0.34 +0.00    +0.101 C  
DOCKED: ENDROOT
DOCKED: BRANCH   2  12
DOCKED: ATOM     12  C   UNL     1     -38.279 -14.129  12.433 -0.05 +0.00    +0.038 C  
DOCKED: BRANCH  12  13
DOCKED: ATOM     13  C   UNL     1     -39.560 -14.309  13.245 -0.03 +0.00    +0.038 C  
DOCKED: BRANCH  13  14
DOCKED: ATOM     14  C   UNL     1     -40.793 -13.978  12.407 -0.02 +0.00    +0.251 C  
DOCKED: BRANCH  14  15
DOCKED: ATOM     15  N   UNL     1     -41.084 -15.067  11.481 -0.08 +0.00    +0.141 N  
DOCKED: ATOM     16  C   UNL     1     -42.034 -16.009  12.075 -0.02 +0.00    +0.285 C  
DOCKED: ATOM     17  C   UNL     1     -41.609 -14.545  10.219 -0.16 +0.00    +0.285 C  
DOCKED: ENDBRANCH  14  15
DOCKED: ENDBRANCH  13  14
DOCKED: ENDBRANCH  12  13
DOCKED: ENDBRANCH   2  12
DOCKED: BRANCH   2  18
DOCKED: ATOM     18  C   UNL     1     -36.132 -15.244  11.849 -0.10 +0.00    +0.006 A  
DOCKED: ATOM     19  C   UNL     1     -35.126 -15.970  12.486 -0.10 +0.00    +0.001 A  
DOCKED: ATOM     20  C   UNL     1     -33.792 -15.769  12.131 -0.08 +0.00    +0.029 A  
DOCKED: ATOM     21  C   UNL     1     -33.466 -14.845  11.139 -0.06 +0.00    +0.140 A  
DOCKED: ATOM     22  C   UNL     1     -34.472 -14.120  10.502 -0.08 +0.00    +0.029 A  
DOCKED: ATOM     23  F   UNL     1     -32.185 -14.654  10.797 -0.00 -0.00    -0.204 F  
DOCKED: ATOM     24  C   UNL     1     -35.808 -14.319  10.857 -0.11 +0.00    +0.001 A  
DOCKED: ENDBRANCH   2  18
DOCKED: TORSDOF 5
DOCKED: TER
DOCKED: ENDMDL
________________________________________________________________________________


    FINAL DOCKED STATE:
    ________________________


Run:   383 / 512
Time taken for this run:   0.002s

DOCKED: MODEL        383
DOCKED: USER    Run = 383
DOCKED: USER
DOCKED: USER    Estimated Free Energy of Binding    =  -6.10 kcal/mol  [=(1)+(2)+(3)-(4)]
DOCKED: USER
DOCKED: USER    (1) Final Intermolecular Energy     =  -7.59 kcal/mol
DOCKED: USER        vdW + Hbond + desolv Energy     =  -7.59 kcal/mol
DOCKED: USER        Electrostatic Energy            =  +0.00 kcal/mol
DOCKED: USER        Moving Ligand-Fixed Receptor    =  -7.59 kcal/mol
DOCKED: USER        Moving Ligand-Moving Receptor   =  +0.00 kcal/mol
DOCKED: USER    (2) Final Total Internal Energy     =  -0.99 kcal/mol
DOCKED: USER    (3) Torsional Free Energy           =  +1.49 kcal/mol
DOCKED: USER    (4) Unbound System's Energy         =  -0.99 kcal/mol
DOCKED: USER
DOCKED: USER
DOCKED: REMARK  5 active torsions:
DOCKED: REMARK  status: ('A' for Active; 'I' for Inactive)
DOCKED: REMARK    1  A    between atoms: C_2  and  C_19 
DOCKED: REMARK    2  A    between atoms: C_2  and  C_11 
DOCKED: REMARK    3  A    between atoms: C_19  and  C_20 
DOCKED: REMARK    4  A    between atoms: C_20  and  C_21 
DOCKED: REMARK    5  A    between atoms: C_21  and  N_22 
DOCKED: USER                              x       y       z     vdW  Elec       q    Type
DOCKED: USER                           _______ _______ _______ _____ _____    ______ ____
DOCKED: ROOT
DOCKED: ATOM      1  O   UNL     1     -38.631 -16.458  11.290 -0.06 -0.00    -0.346 OA 
DOCKED: ATOM      2  C   UNL     1     -38.409 -17.904  11.227 -0.24 +0.00    +0.130 C  
DOCKED: ATOM      3  C   UNL     1     -38.975 -18.296   9.893 -0.35 +0.00    +0.004 A  
DOCKED: ATOM      4  C   UNL     1     -39.384 -17.162   9.206 -0.33 +0.00    +0.006 A  
DOCKED: ATOM      5  C   UNL     1     -39.109 -15.956  10.020 -0.24 +0.00    +0.169 C  
DOCKED: ATOM      6  C   UNL     1     -39.107 -19.556   9.327 -0.37 -0.00    -0.001 A  
DOCKED: ATOM      7  C   UNL     1     -39.939 -17.246   7.941 -0.06 +0.00    +0.008 A  
DOCKED: ATOM      8  C   UNL     1     -39.670 -19.658   8.054 -0.46 +0.00    +0.010 A  
DOCKED: ATOM      9  C   UNL     1     -40.083 -18.509   7.364 -0.40 +0.00    +0.068 A  
DOCKED: ATOM     10  N   UNL     1     -41.118 -18.733   5.000 -3.07 -0.00    -0.191 NA 
DOCKED: ATOM     11  C   UNL     1     -40.654 -18.632   6.061 -0.43 +0.00    +0.101 C  
DOCKED: ENDROOT
DOCKED: BRANCH   2  12
DOCKED: ATOM     12  C   UNL     1     -36.912 -18.167  11.337 -0.14 +0.00    +0.038 C  
DOCKED: BRANCH  12  13
DOCKED: ATOM     13  C   UNL     1     -36.132 -16.871  11.552 -0.13 +0.00    +0.038 C  
DOCKED: BRANCH  13  14
DOCKED: ATOM     14  C   UNL     1     -34.758 -17.151  12.158 -0.11 +0.00    +0.251 C  
DOCKED: BRANCH  14  15
DOCKED: ATOM     15  N   UNL     1     -33.730 -17.109  11.125 -0.13 +0.00    +0.141 N  
DOCKED: ATOM     16  C   UNL     1     -33.259 -15.738  10.922 -0.06 +0.00    +0.285 C  
DOCKED: ATOM     17  C   UNL     1     -32.610 -17.984  11.477 -0.10 +0.00    +0.285 C  
DOCKED: ENDBRANCH  14  15
DOCKED: ENDBRANCH  13  14
DOCKED: ENDBRANCH  12  13
DOCKED: ENDBRANCH   2  12
DOCKED: BRANCH   2  18
DOCKED: ATOM     18  C   UNL     1     -39.148 -18.509  12.373 -0.20 +0.00    +0.006 A  
DOCKED: ATOM     19  C   UNL     1     -38.449 -19.182  13.375 -0.12 +0.00    +0.001 A  
DOCKED: ATOM     20  C   UNL     1     -39.142 -19.747  14.446 -0.23 +0.00    +0.029 A  
DOCKED: ATOM     21  C   UNL     1     -40.530 -19.639  14.515 -0.04 +0.00    +0.140 A  
DOCKED: ATOM     22  C   UNL     1     -41.228 -18.966  13.512 -0.14 +0.00    +0.029 A  
DOCKED: ATOM     23  F   UNL     1     -41.194 -20.180  15.544 -0.04 -0.00    -0.204 F  
DOCKED: ATOM     24  C   UNL     1     -40.536 -18.400  12.440 -0.15 +0.00    +0.001 A  
DOCKED: ENDBRANCH   2  18
DOCKED: TORSDOF 5
DOCKED: TER
DOCKED: ENDMDL
________________________________________________________________________________


    FINAL DOCKED STATE:
    ________________________


Run:   384 / 512
Time taken for this run:   0.002s

DOCKED: MODEL        384
DOCKED: USER    Run = 384
DOCKED: USER
DOCKED: USER    Estimated Free Energy of Binding    =  -4.45 kcal/mol  [=(1)+(2)+(3)-(4)]
DOCKED: USER
DOCKED: USER    (1) Final Intermolecular Energy     =  -5.94 kcal/mol
DOCKED: USER        vdW + Hbond + desolv Energy     =  -5.94 kcal/mol
DOCKED: USER        Electrostatic Energy            =  +0.00 kcal/mol
DOCKED: USER        Moving Ligand-Fixed Receptor    =  -5.94 kcal/mol
DOCKED: USER        Moving Ligand-Moving Receptor   =  +0.00 kcal/mol
DOCKED: USER    (2) Final Total Internal Energy     =  -1.16 kcal/mol
DOCKED: USER    (3) Torsional Free Energy           =  +1.49 kcal/mol
DOCKED: USER    (4) Unbound System's Energy         =  -1.16 kcal/mol
DOCKED: USER
DOCKED: USER
DOCKED: REMARK  5 active torsions:
DOCKED: REMARK  status: ('A' for Active; 'I' for Inactive)
DOCKED: REMARK    1  A    between atoms: C_2  and  C_19 
DOCKED: REMARK    2  A    between atoms: C_2  and  C_11 
DOCKED: REMARK    3  A    between atoms: C_19  and  C_20 
DOCKED: REMARK    4  A    between atoms: C_20  and  C_21 
DOCKED: REMARK    5  A    between atoms: C_21  and  N_22 
DOCKED: USER                              x       y       z     vdW  Elec       q    Type
DOCKED: USER                           _______ _______ _______ _____ _____    ______ ____
DOCKED: ROOT
DOCKED: ATOM      1  O   UNL     1     -40.661 -16.167  12.153 -0.00 -0.00    -0.346 OA 
DOCKED: ATOM      2  C   UNL     1     -39.703 -17.272  12.212 -0.10 +0.00    +0.130 C  
DOCKED: ATOM      3  C   UNL     1     -39.789 -17.896  10.850 -0.22 +0.00    +0.004 A  
DOCKED: ATOM      4  C   UNL     1     -40.639 -17.149  10.047 -0.25 +0.00    +0.006 A  
DOCKED: ATOM      5  C   UNL     1     -41.156 -15.988  10.805 -0.15 +0.00    +0.169 C  
DOCKED: ATOM      6  C   UNL     1     -39.157 -19.029  10.357 -0.37 -0.00    -0.001 A  
DOCKED: ATOM      7  C   UNL     1     -40.889 -17.508   8.733 -0.21 +0.00    +0.008 A  
DOCKED: ATOM      8  C   UNL     1     -39.403 -19.406   9.036 -0.43 +0.00    +0.010 A  
DOCKED: ATOM      9  C   UNL     1     -40.264 -18.649   8.228 -0.40 +0.00    +0.068 A  
DOCKED: ATOM     10  N   UNL     1     -40.694 -19.373   5.778 -1.88 -0.00    -0.191 NA 
DOCKED: ATOM     11  C   UNL     1     -40.502 -19.049   6.877 -0.53 +0.00    +0.101 C  
DOCKED: ENDROOT
DOCKED: BRANCH   2  12
DOCKED: ATOM     12  C   UNL     1     -38.323 -16.698  12.515 -0.12 +0.00    +0.038 C  
DOCKED: BRANCH  12  13
DOCKED: ATOM     13  C   UNL     1     -38.105 -15.366  11.801 -0.12 +0.00    +0.038 C  
DOCKED: BRANCH  13  14
DOCKED: ATOM     14  C   UNL     1     -37.618 -15.583  10.369 -0.08 +0.00    +0.251 C  
DOCKED: BRANCH  14  15
DOCKED: ATOM     15  N   UNL     1     -37.036 -14.356   9.840 -0.15 +0.00    +0.141 N  
DOCKED: ATOM     16  C   UNL     1     -38.071 -13.345   9.623 -0.08 +0.00    +0.285 C  
DOCKED: ATOM     17  C   UNL     1     -36.006 -13.842  10.744 -0.07 +0.00    +0.285 C  
DOCKED: ENDBRANCH  14  15
DOCKED: ENDBRANCH  13  14
DOCKED: ENDBRANCH  12  13
DOCKED: ENDBRANCH   2  12
DOCKED: BRANCH   2  18
DOCKED: ATOM     18  C   UNL     1     -40.157 -18.185  13.301 -0.12 +0.00    +0.006 A  
DOCKED: ATOM     19  C   UNL     1     -41.361 -18.876  13.174 -0.15 +0.00    +0.001 A  
DOCKED: ATOM     20  C   UNL     1     -41.785 -19.730  14.193 -0.12 +0.00    +0.029 A  
DOCKED: ATOM     21  C   UNL     1     -41.004 -19.893  15.336 -0.07 +0.00    +0.140 A  
DOCKED: ATOM     22  C   UNL     1     -39.799 -19.201  15.463 -0.14 +0.00    +0.029 A  
DOCKED: ATOM     23  F   UNL     1     -41.410 -20.714  16.313 -0.05 -0.00    -0.204 F  
DOCKED: ATOM     24  C   UNL     1     -39.375 -18.347  14.444 -0.12 +0.00    +0.001 A  
DOCKED: ENDBRANCH   2  18
DOCKED: TORSDOF 5
DOCKED: TER
DOCKED: ENDMDL
________________________________________________________________________________


    FINAL DOCKED STATE:
    ________________________


Run:   385 / 512
Time taken for this run:   0.002s

DOCKED: MODEL        385
DOCKED: USER    Run = 385
DOCKED: USER
DOCKED: USER    Estimated Free Energy of Binding    =  -3.70 kcal/mol  [=(1)+(2)+(3)-(4)]
DOCKED: USER
DOCKED: USER    (1) Final Intermolecular Energy     =  -5.19 kcal/mol
DOCKED: USER        vdW + Hbond + desolv Energy     =  -5.19 kcal/mol
DOCKED: USER        Electrostatic Energy            =  +0.00 kcal/mol
DOCKED: USER        Moving Ligand-Fixed Receptor    =  -5.19 kcal/mol
DOCKED: USER        Moving Ligand-Moving Receptor   =  +0.00 kcal/mol
DOCKED: USER    (2) Final Total Internal Energy     =  -1.29 kcal/mol
DOCKED: USER    (3) Torsional Free Energy           =  +1.49 kcal/mol
DOCKED: USER    (4) Unbound System's Energy         =  -1.29 kcal/mol
DOCKED: USER
DOCKED: USER
DOCKED: REMARK  5 active torsions:
DOCKED: REMARK  status: ('A' for Active; 'I' for Inactive)
DOCKED: REMARK    1  A    between atoms: C_2  and  C_19 
DOCKED: REMARK    2  A    between atoms: C_2  and  C_11 
DOCKED: REMARK    3  A    between atoms: C_19  and  C_20 
DOCKED: REMARK    4  A    between atoms: C_20  and  C_21 
DOCKED: REMARK    5  A    between atoms: C_21  and  N_22 
DOCKED: USER                              x       y       z     vdW  Elec       q    Type
DOCKED: USER                           _______ _______ _______ _____ _____    ______ ____
DOCKED: ROOT
DOCKED: ATOM      1  O   UNL     1     -37.548 -14.946  11.792 -0.03 -0.00    -0.346 OA 
DOCKED: ATOM      2  C   UNL     1     -38.973 -14.613  11.798 -0.07 +0.00    +0.130 C  
DOCKED: ATOM      3  C   UNL     1     -39.620 -15.786  11.121 -0.16 +0.00    +0.004 A  
DOCKED: ATOM      4  C   UNL     1     -38.664 -16.754  10.850 -0.23 +0.00    +0.006 A  
DOCKED: ATOM      5  C   UNL     1     -37.340 -16.302  11.334 -0.15 +0.00    +0.169 C  
DOCKED: ATOM      6  C   UNL     1     -40.950 -15.985  10.781 -0.19 -0.00    -0.001 A  
DOCKED: ATOM      7  C   UNL     1     -39.000 -17.946  10.231 -0.31 +0.00    +0.008 A  
DOCKED: ATOM      8  C   UNL     1     -41.304 -17.180  10.152 -0.22 +0.00    +0.010 A  
DOCKED: ATOM      9  C   UNL     1     -40.334 -18.156   9.879 -0.25 +0.00    +0.068 A  
DOCKED: ATOM     10  N   UNL     1     -41.026 -20.365   8.715 -2.55 -0.00    -0.191 NA 
DOCKED: ATOM     11  C   UNL     1     -40.715 -19.374   9.237 -0.34 +0.00    +0.101 C  
DOCKED: ENDROOT
DOCKED: BRANCH   2  12
DOCKED: ATOM     12  C   UNL     1     -39.423 -14.441  13.244 -0.03 +0.00    +0.038 C  
DOCKED: BRANCH  12  13
DOCKED: ATOM     13  C   UNL     1     -40.946 -14.400  13.353 -0.03 +0.00    +0.038 C  
DOCKED: BRANCH  13  14
DOCKED: ATOM     14  C   UNL     1     -41.467 -12.970  13.231 -0.01 +0.00    +0.251 C  
DOCKED: BRANCH  14  15
DOCKED: ATOM     15  N   UNL     1     -42.169 -12.792  11.966 -0.04 +0.00    +0.141 N  
DOCKED: ATOM     16  C   UNL     1     -43.302 -13.714  11.870 -0.03 +0.00    +0.285 C  
DOCKED: ATOM     17  C   UNL     1     -42.626 -11.409  11.819 -0.01 +0.00    +0.285 C  
DOCKED: ENDBRANCH  14  15
DOCKED: ENDBRANCH  13  14
DOCKED: ENDBRANCH  12  13
DOCKED: ENDBRANCH   2  12
DOCKED: BRANCH   2  18
DOCKED: ATOM     18  C   UNL     1     -39.128 -13.341  11.032 -0.11 +0.00    +0.006 A  
DOCKED: ATOM     19  C   UNL     1     -38.548 -12.166  11.509 -0.04 +0.00    +0.001 A  
DOCKED: ATOM     20  C   UNL     1     -38.693 -10.978  10.792 -0.04 +0.00    +0.029 A  
DOCKED: ATOM     21  C   UNL     1     -39.416 -10.967   9.600 -0.09 +0.00    +0.140 A  
DOCKED: ATOM     22  C   UNL     1     -39.995 -12.143   9.123 -0.09 +0.00    +0.029 A  
DOCKED: ATOM     23  F   UNL     1     -39.554  -9.826   8.911 -0.01 -0.00    -0.204 F  
DOCKED: ATOM     24  C   UNL     1     -39.851 -13.332   9.840 -0.18 +0.00    +0.001 A  
DOCKED: ENDBRANCH   2  18
DOCKED: TORSDOF 5
DOCKED: TER
DOCKED: ENDMDL
________________________________________________________________________________


    FINAL DOCKED STATE:
    ________________________


Run:   386 / 512
Time taken for this run:   0.002s

DOCKED: MODEL        386
DOCKED: USER    Run = 386
DOCKED: USER
DOCKED: USER    Estimated Free Energy of Binding    =  -4.12 kcal/mol  [=(1)+(2)+(3)-(4)]
DOCKED: USER
DOCKED: USER    (1) Final Intermolecular Energy     =  -5.61 kcal/mol
DOCKED: USER        vdW + Hbond + desolv Energy     =  -5.61 kcal/mol
DOCKED: USER        Electrostatic Energy            =  +0.00 kcal/mol
DOCKED: USER        Moving Ligand-Fixed Receptor    =  -5.61 kcal/mol
DOCKED: USER        Moving Ligand-Moving Receptor   =  +0.00 kcal/mol
DOCKED: USER    (2) Final Total Internal Energy     =  -1.15 kcal/mol
DOCKED: USER    (3) Torsional Free Energy           =  +1.49 kcal/mol
DOCKED: USER    (4) Unbound System's Energy         =  -1.15 kcal/mol
DOCKED: USER
DOCKED: USER
DOCKED: REMARK  5 active torsions:
DOCKED: REMARK  status: ('A' for Active; 'I' for Inactive)
DOCKED: REMARK    1  A    between atoms: C_2  and  C_19 
DOCKED: REMARK    2  A    between atoms: C_2  and  C_11 
DOCKED: REMARK    3  A    between atoms: C_19  and  C_20 
DOCKED: REMARK    4  A    between atoms: C_20  and  C_21 
DOCKED: REMARK    5  A    between atoms: C_21  and  N_22 
DOCKED: USER                              x       y       z     vdW  Elec       q    Type
DOCKED: USER                           _______ _______ _______ _____ _____    ______ ____
DOCKED: ROOT
DOCKED: ATOM      1  O   UNL     1     -36.632 -16.187  12.612 -0.04 -0.00    -0.346 OA 
DOCKED: ATOM      2  C   UNL     1     -37.267 -15.318  11.620 -0.11 +0.00    +0.130 C  
DOCKED: ATOM      3  C   UNL     1     -38.151 -16.247  10.840 -0.21 +0.00    +0.004 A  
DOCKED: ATOM      4  C   UNL     1     -38.111 -17.514  11.405 -0.23 +0.00    +0.006 A  
DOCKED: ATOM      5  C   UNL     1     -37.221 -17.509  12.588 -0.14 +0.00    +0.169 C  
DOCKED: ATOM      6  C   UNL     1     -38.937 -15.990   9.727 -0.27 -0.00    -0.001 A  
DOCKED: ATOM      7  C   UNL     1     -38.846 -18.562  10.878 -0.31 +0.00    +0.008 A  
DOCKED: ATOM      8  C   UNL     1     -39.681 -17.037   9.181 -0.33 +0.00    +0.010 A  
DOCKED: ATOM      9  C   UNL     1     -39.636 -18.316   9.754 -0.30 +0.00    +0.068 A  
DOCKED: ATOM     10  N   UNL     1     -41.034 -20.237   8.719 -2.56 -0.00    -0.191 NA 
DOCKED: ATOM     11  C   UNL     1     -40.406 -19.376   9.183 -0.36 +0.00    +0.101 C  
DOCKED: ENDROOT
DOCKED: BRANCH   2  12
DOCKED: ATOM     12  C   UNL     1     -38.047 -14.235  12.357 -0.05 +0.00    +0.038 C  
DOCKED: BRANCH  12  13
DOCKED: ATOM     13  C   UNL     1     -37.596 -14.116  13.811 -0.01 +0.00    +0.038 C  
DOCKED: BRANCH  13  14
DOCKED: ATOM     14  C   UNL     1     -36.236 -13.427  13.910 -0.00 +0.00    +0.251 C  
DOCKED: BRANCH  14  15
DOCKED: ATOM     15  N   UNL     1     -36.378 -12.109  14.518 -0.00 +0.00    +0.141 N  
DOCKED: ATOM     16  C   UNL     1     -37.473 -12.105  15.490 +0.00 +0.00    +0.285 C  
DOCKED: ATOM     17  C   UNL     1     -35.128 -11.700  15.160 +0.00 +0.00    +0.285 C  
DOCKED: ENDBRANCH  14  15
DOCKED: ENDBRANCH  13  14
DOCKED: ENDBRANCH  12  13
DOCKED: ENDBRANCH   2  12
DOCKED: BRANCH   2  18
DOCKED: ATOM     18  C   UNL     1     -36.173 -14.726  10.795 -0.12 +0.00    +0.006 A  
DOCKED: ATOM     19  C   UNL     1     -36.471 -13.768   9.827 -0.15 +0.00    +0.001 A  
DOCKED: ATOM     20  C   UNL     1     -35.448 -13.216   9.055 -0.11 +0.00    +0.029 A  
DOCKED: ATOM     21  C   UNL     1     -34.129 -13.622   9.254 -0.07 +0.00    +0.140 A  
DOCKED: ATOM     22  C   UNL     1     -33.832 -14.580  10.222 -0.09 +0.00    +0.029 A  
DOCKED: ATOM     23  F   UNL     1     -33.147 -13.091   8.514 -0.01 -0.00    -0.204 F  
DOCKED: ATOM     24  C   UNL     1     -34.855 -15.133  10.994 -0.11 +0.00    +0.001 A  
DOCKED: ENDBRANCH   2  18
DOCKED: TORSDOF 5
DOCKED: TER
DOCKED: ENDMDL
________________________________________________________________________________


    FINAL DOCKED STATE:
    ________________________


Run:   387 / 512
Time taken for this run:   0.002s

DOCKED: MODEL        387
DOCKED: USER    Run = 387
DOCKED: USER
DOCKED: USER    Estimated Free Energy of Binding    =  -4.11 kcal/mol  [=(1)+(2)+(3)-(4)]
DOCKED: USER
DOCKED: USER    (1) Final Intermolecular Energy     =  -5.60 kcal/mol
DOCKED: USER        vdW + Hbond + desolv Energy     =  -5.60 kcal/mol
DOCKED: USER        Electrostatic Energy            =  +0.00 kcal/mol
DOCKED: USER        Moving Ligand-Fixed Receptor    =  -5.60 kcal/mol
DOCKED: USER        Moving Ligand-Moving Receptor   =  +0.00 kcal/mol
DOCKED: USER    (2) Final Total Internal Energy     =  -1.05 kcal/mol
DOCKED: USER    (3) Torsional Free Energy           =  +1.49 kcal/mol
DOCKED: USER    (4) Unbound System's Energy         =  -1.05 kcal/mol
DOCKED: USER
DOCKED: USER
DOCKED: REMARK  5 active torsions:
DOCKED: REMARK  status: ('A' for Active; 'I' for Inactive)
DOCKED: REMARK    1  A    between atoms: C_2  and  C_19 
DOCKED: REMARK    2  A    between atoms: C_2  and  C_11 
DOCKED: REMARK    3  A    between atoms: C_19  and  C_20 
DOCKED: REMARK    4  A    between atoms: C_20  and  C_21 
DOCKED: REMARK    5  A    between atoms: C_21  and  N_22 
DOCKED: USER                              x       y       z     vdW  Elec       q    Type
DOCKED: USER                           _______ _______ _______ _____ _____    ______ ____
DOCKED: ROOT
DOCKED: ATOM      1  O   UNL     1     -40.192 -13.659  10.576 -0.08 -0.00    -0.346 OA 
DOCKED: ATOM      2  C   UNL     1     -38.878 -14.298  10.655 -0.15 +0.00    +0.130 C  
DOCKED: ATOM      3  C   UNL     1     -39.148 -15.724  10.272 -0.25 +0.00    +0.004 A  
DOCKED: ATOM      4  C   UNL     1     -40.478 -15.864   9.899 -0.24 +0.00    +0.006 A  
DOCKED: ATOM      5  C   UNL     1     -41.166 -14.557   9.996 -0.16 +0.00    +0.169 C  
DOCKED: ATOM      6  C   UNL     1     -38.284 -16.809  10.244 -0.22 -0.00    -0.001 A  
DOCKED: ATOM      7  C   UNL     1     -40.988 -17.085   9.493 -0.25 +0.00    +0.008 A  
DOCKED: ATOM      8  C   UNL     1     -38.785 -18.048   9.841 -0.33 +0.00    +0.010 A  
DOCKED: ATOM      9  C   UNL     1     -40.130 -18.185   9.467 -0.30 +0.00    +0.068 A  
DOCKED: ATOM     10  N   UNL     1     -41.025 -20.498   8.718 -2.55 -0.00    -0.191 NA 
DOCKED: ATOM     11  C   UNL     1     -40.624 -19.461   9.055 -0.35 +0.00    +0.101 C  
DOCKED: ENDROOT
DOCKED: BRANCH   2  12
DOCKED: ATOM     12  C   UNL     1     -37.938 -13.591   9.685 -0.16 +0.00    +0.038 C  
DOCKED: BRANCH  12  13
DOCKED: ATOM     13  C   UNL     1     -36.527 -14.172   9.754 -0.16 +0.00    +0.038 C  
DOCKED: BRANCH  13  14
DOCKED: ATOM     14  C   UNL     1     -35.517 -13.239   9.089 -0.09 +0.00    +0.251 C  
DOCKED: BRANCH  14  15
DOCKED: ATOM     15  N   UNL     1     -34.171 -13.517   9.578 -0.06 +0.00    +0.141 N  
DOCKED: ATOM     16  C   UNL     1     -34.214 -13.996  10.960 -0.04 +0.00    +0.285 C  
DOCKED: ATOM     17  C   UNL     1     -33.504 -14.499   8.721 -0.07 +0.00    +0.285 C  
DOCKED: ENDBRANCH  14  15
DOCKED: ENDBRANCH  13  14
DOCKED: ENDBRANCH  12  13
DOCKED: ENDBRANCH   2  12
DOCKED: BRANCH   2  18
DOCKED: ATOM     18  C   UNL     1     -38.406 -14.154  12.064 -0.06 +0.00    +0.006 A  
DOCKED: ATOM     19  C   UNL     1     -37.936 -12.922  12.518 -0.02 +0.00    +0.001 A  
DOCKED: ATOM     20  C   UNL     1     -37.495 -12.789  13.835 -0.00 +0.00    +0.029 A  
DOCKED: ATOM     21  C   UNL     1     -37.525 -13.886  14.695 -0.00 +0.00    +0.140 A  
DOCKED: ATOM     22  C   UNL     1     -37.996 -15.117  14.240 -0.01 +0.00    +0.029 A  
DOCKED: ATOM     23  F   UNL     1     -37.104 -13.757  15.960 +0.00 -0.00    -0.204 F  
DOCKED: ATOM     24  C   UNL     1     -38.437 -15.252  12.922 -0.04 +0.00    +0.001 A  
DOCKED: ENDBRANCH   2  18
DOCKED: TORSDOF 5
DOCKED: TER
DOCKED: ENDMDL
________________________________________________________________________________


    FINAL DOCKED STATE:
    ________________________


Run:   388 / 512
Time taken for this run:   0.002s

DOCKED: MODEL        388
DOCKED: USER    Run = 388
DOCKED: USER
DOCKED: USER    Estimated Free Energy of Binding    =  -5.75 kcal/mol  [=(1)+(2)+(3)-(4)]
DOCKED: USER
DOCKED: USER    (1) Final Intermolecular Energy     =  -7.24 kcal/mol
DOCKED: USER        vdW + Hbond + desolv Energy     =  -7.24 kcal/mol
DOCKED: USER        Electrostatic Energy            =  +0.00 kcal/mol
DOCKED: USER        Moving Ligand-Fixed Receptor    =  -7.24 kcal/mol
DOCKED: USER        Moving Ligand-Moving Receptor   =  +0.00 kcal/mol
DOCKED: USER    (2) Final Total Internal Energy     =  -1.03 kcal/mol
DOCKED: USER    (3) Torsional Free Energy           =  +1.49 kcal/mol
DOCKED: USER    (4) Unbound System's Energy         =  -1.03 kcal/mol
DOCKED: USER
DOCKED: USER
DOCKED: REMARK  5 active torsions:
DOCKED: REMARK  status: ('A' for Active; 'I' for Inactive)
DOCKED: REMARK    1  A    between atoms: C_2  and  C_19 
DOCKED: REMARK    2  A    between atoms: C_2  and  C_11 
DOCKED: REMARK    3  A    between atoms: C_19  and  C_20 
DOCKED: REMARK    4  A    between atoms: C_20  and  C_21 
DOCKED: REMARK    5  A    between atoms: C_21  and  N_22 
DOCKED: USER                              x       y       z     vdW  Elec       q    Type
DOCKED: USER                           _______ _______ _______ _____ _____    ______ ____
DOCKED: ROOT
DOCKED: ATOM      1  O   UNL     1     -39.071 -16.453  10.827 -0.07 -0.00    -0.346 OA 
DOCKED: ATOM      2  C   UNL     1     -39.517 -17.826  11.068 -0.19 +0.00    +0.130 C  
DOCKED: ATOM      3  C   UNL     1     -39.989 -18.292   9.721 -0.33 +0.00    +0.004 A  
DOCKED: ATOM      4  C   UNL     1     -39.733 -17.313   8.772 -0.34 +0.00    +0.006 A  
DOCKED: ATOM      5  C   UNL     1     -39.072 -16.153   9.412 -0.20 +0.00    +0.169 C  
DOCKED: ATOM      6  C   UNL     1     -40.586 -19.492   9.363 -0.24 -0.00    -0.001 A  
DOCKED: ATOM      7  C   UNL     1     -40.067 -17.495   7.441 -0.09 +0.00    +0.008 A  
DOCKED: ATOM      8  C   UNL     1     -40.933 -19.689   8.026 -0.46 +0.00    +0.010 A  
DOCKED: ATOM      9  C   UNL     1     -40.674 -18.695   7.069 -0.44 +0.00    +0.068 A  
DOCKED: ATOM     10  N   UNL     1     -41.326 -19.095   4.594 -3.20 -0.00    -0.191 NA 
DOCKED: ATOM     11  C   UNL     1     -41.034 -18.915   5.704 -0.29 +0.00    +0.101 C  
DOCKED: ENDROOT
DOCKED: BRANCH   2  12
DOCKED: ATOM     12  C   UNL     1     -38.335 -18.631  11.595 -0.29 +0.00    +0.038 C  
DOCKED: BRANCH  12  13
DOCKED: ATOM     13  C   UNL     1     -37.019 -17.881  11.402 -0.23 +0.00    +0.038 C  
DOCKED: BRANCH  13  14
DOCKED: ATOM     14  C   UNL     1     -36.447 -17.422  12.742 -0.10 +0.00    +0.251 C  
DOCKED: BRANCH  14  15
DOCKED: ATOM     15  N   UNL     1     -35.127 -16.831  12.555 -0.11 +0.00    +0.141 N  
DOCKED: ATOM     16  C   UNL     1     -34.784 -15.965  13.684 -0.02 +0.00    +0.285 C  
DOCKED: ATOM     17  C   UNL     1     -34.114 -17.875  12.390 -0.10 +0.00    +0.285 C  
DOCKED: ENDBRANCH  14  15
DOCKED: ENDBRANCH  13  14
DOCKED: ENDBRANCH  12  13
DOCKED: ENDBRANCH   2  12
DOCKED: BRANCH   2  18
DOCKED: ATOM     18  C   UNL     1     -40.614 -17.757  12.077 -0.12 +0.00    +0.006 A  
DOCKED: ATOM     19  C   UNL     1     -41.063 -18.922  12.698 -0.17 +0.00    +0.001 A  
DOCKED: ATOM     20  C   UNL     1     -42.090 -18.857  13.641 -0.12 +0.00    +0.029 A  
DOCKED: ATOM     21  C   UNL     1     -42.664 -17.628  13.963 -0.02 +0.00    +0.140 A  
DOCKED: ATOM     22  C   UNL     1     -42.213 -16.463  13.342 -0.04 +0.00    +0.029 A  
DOCKED: ATOM     23  F   UNL     1     -43.648 -17.565  14.869 +0.01 -0.00    -0.204 F  
DOCKED: ATOM     24  C   UNL     1     -41.187 -16.527  12.398 -0.07 +0.00    +0.001 A  
DOCKED: ENDBRANCH   2  18
DOCKED: TORSDOF 5
DOCKED: TER
DOCKED: ENDMDL
________________________________________________________________________________


    FINAL DOCKED STATE:
    ________________________


Run:   389 / 512
Time taken for this run:   0.002s

DOCKED: MODEL        389
DOCKED: USER    Run = 389
DOCKED: USER
DOCKED: USER    Estimated Free Energy of Binding    =  -4.51 kcal/mol  [=(1)+(2)+(3)-(4)]
DOCKED: USER
DOCKED: USER    (1) Final Intermolecular Energy     =  -6.00 kcal/mol
DOCKED: USER        vdW + Hbond + desolv Energy     =  -6.00 kcal/mol
DOCKED: USER        Electrostatic Energy            =  +0.00 kcal/mol
DOCKED: USER        Moving Ligand-Fixed Receptor    =  -6.00 kcal/mol
DOCKED: USER        Moving Ligand-Moving Receptor   =  +0.00 kcal/mol
DOCKED: USER    (2) Final Total Internal Energy     =  -1.02 kcal/mol
DOCKED: USER    (3) Torsional Free Energy           =  +1.49 kcal/mol
DOCKED: USER    (4) Unbound System's Energy         =  -1.02 kcal/mol
DOCKED: USER
DOCKED: USER
DOCKED: REMARK  5 active torsions:
DOCKED: REMARK  status: ('A' for Active; 'I' for Inactive)
DOCKED: REMARK    1  A    between atoms: C_2  and  C_19 
DOCKED: REMARK    2  A    between atoms: C_2  and  C_11 
DOCKED: REMARK    3  A    between atoms: C_19  and  C_20 
DOCKED: REMARK    4  A    between atoms: C_20  and  C_21 
DOCKED: REMARK    5  A    between atoms: C_21  and  N_22 
DOCKED: USER                              x       y       z     vdW  Elec       q    Type
DOCKED: USER                           _______ _______ _______ _____ _____    ______ ____
DOCKED: ROOT
DOCKED: ATOM      1  O   UNL     1     -39.800 -16.085  11.516 -0.02 -0.00    -0.346 OA 
DOCKED: ATOM      2  C   UNL     1     -38.885 -17.224  11.429 -0.17 +0.00    +0.130 C  
DOCKED: ATOM      3  C   UNL     1     -39.254 -17.884  10.132 -0.32 +0.00    +0.004 A  
DOCKED: ATOM      4  C   UNL     1     -40.218 -17.128   9.481 -0.32 +0.00    +0.006 A  
DOCKED: ATOM      5  C   UNL     1     -40.540 -15.926  10.283 -0.20 +0.00    +0.169 C  
DOCKED: ATOM      6  C   UNL     1     -38.768 -19.055   9.568 -0.40 -0.00    -0.001 A  
DOCKED: ATOM      7  C   UNL     1     -40.730 -17.514   8.254 -0.00 +0.00    +0.008 A  
DOCKED: ATOM      8  C   UNL     1     -39.277 -19.460   8.333 -0.32 +0.00    +0.010 A  
DOCKED: ATOM      9  C   UNL     1     -40.253 -18.693   7.680 -0.43 +0.00    +0.068 A  
DOCKED: ATOM     10  N   UNL     1     -41.173 -19.471   5.386 -2.23 -0.00    -0.191 NA 
DOCKED: ATOM     11  C   UNL     1     -40.761 -19.122   6.415 -0.46 +0.00    +0.101 C  
DOCKED: ENDROOT
DOCKED: BRANCH   2  12
DOCKED: ATOM     12  C   UNL     1     -37.455 -16.697  11.440 -0.21 +0.00    +0.038 C  
DOCKED: BRANCH  12  13
DOCKED: ATOM     13  C   UNL     1     -36.870 -16.702  12.851 -0.13 +0.00    +0.038 C  
DOCKED: BRANCH  13  14
DOCKED: ATOM     14  C   UNL     1     -35.868 -15.564  13.035 -0.04 +0.00    +0.251 C  
DOCKED: BRANCH  14  15
DOCKED: ATOM     15  N   UNL     1     -36.283 -14.696  14.131 -0.01 +0.00    +0.141 N  
DOCKED: ATOM     16  C   UNL     1     -36.567 -15.482  15.333 -0.00 +0.00    +0.285 C  
DOCKED: ATOM     17  C   UNL     1     -35.254 -13.693  14.412 -0.00 +0.00    +0.285 C  
DOCKED: ENDBRANCH  14  15
DOCKED: ENDBRANCH  13  14
DOCKED: ENDBRANCH  12  13
DOCKED: ENDBRANCH   2  12
DOCKED: BRANCH   2  18
DOCKED: ATOM     18  C   UNL     1     -39.149 -18.088  12.617 -0.16 +0.00    +0.006 A  
DOCKED: ATOM     19  C   UNL     1     -39.951 -17.617  13.656 -0.08 +0.00    +0.001 A  
DOCKED: ATOM     20  C   UNL     1     -40.198 -18.425  14.766 -0.10 +0.00    +0.029 A  
DOCKED: ATOM     21  C   UNL     1     -39.642 -19.702  14.836 -0.14 +0.00    +0.140 A  
DOCKED: ATOM     22  C   UNL     1     -38.840 -20.172  13.797 -0.14 +0.00    +0.029 A  
DOCKED: ATOM     23  F   UNL     1     -39.880 -20.478  15.902 -0.05 -0.00    -0.204 F  
DOCKED: ATOM     24  C   UNL     1     -38.593 -19.364  12.686 -0.09 +0.00    +0.001 A  
DOCKED: ENDBRANCH   2  18
DOCKED: TORSDOF 5
DOCKED: TER
DOCKED: ENDMDL
________________________________________________________________________________


    FINAL DOCKED STATE:
    ________________________


Run:   390 / 512
Time taken for this run:   0.002s

DOCKED: MODEL        390
DOCKED: USER    Run = 390
DOCKED: USER
DOCKED: USER    Estimated Free Energy of Binding    =  -4.19 kcal/mol  [=(1)+(2)+(3)-(4)]
DOCKED: USER
DOCKED: USER    (1) Final Intermolecular Energy     =  -5.68 kcal/mol
DOCKED: USER        vdW + Hbond + desolv Energy     =  -5.68 kcal/mol
DOCKED: USER        Electrostatic Energy            =  +0.00 kcal/mol
DOCKED: USER        Moving Ligand-Fixed Receptor    =  -5.68 kcal/mol
DOCKED: USER        Moving Ligand-Moving Receptor   =  +0.00 kcal/mol
DOCKED: USER    (2) Final Total Internal Energy     =  -1.09 kcal/mol
DOCKED: USER    (3) Torsional Free Energy           =  +1.49 kcal/mol
DOCKED: USER    (4) Unbound System's Energy         =  -1.09 kcal/mol
DOCKED: USER
DOCKED: USER
DOCKED: REMARK  5 active torsions:
DOCKED: REMARK  status: ('A' for Active; 'I' for Inactive)
DOCKED: REMARK    1  A    between atoms: C_2  and  C_19 
DOCKED: REMARK    2  A    between atoms: C_2  and  C_11 
DOCKED: REMARK    3  A    between atoms: C_19  and  C_20 
DOCKED: REMARK    4  A    between atoms: C_20  and  C_21 
DOCKED: REMARK    5  A    between atoms: C_21  and  N_22 
DOCKED: USER                              x       y       z     vdW  Elec       q    Type
DOCKED: USER                           _______ _______ _______ _____ _____    ______ ____
DOCKED: ROOT
DOCKED: ATOM      1  O   UNL     1     -36.505 -16.517  12.221 -0.07 -0.00    -0.346 OA 
DOCKED: ATOM      2  C   UNL     1     -37.352 -15.605  11.450 -0.13 +0.00    +0.130 C  
DOCKED: ATOM      3  C   UNL     1     -38.244 -16.521  10.664 -0.23 +0.00    +0.004 A  
DOCKED: ATOM      4  C   UNL     1     -38.005 -17.837  11.034 -0.27 +0.00    +0.006 A  
DOCKED: ATOM      5  C   UNL     1     -36.963 -17.882  12.084 -0.12 +0.00    +0.169 C  
DOCKED: ATOM      6  C   UNL     1     -39.199 -16.214   9.706 -0.29 -0.00    -0.001 A  
DOCKED: ATOM      7  C   UNL     1     -38.704 -18.886  10.461 -0.37 +0.00    +0.008 A  
DOCKED: ATOM      8  C   UNL     1     -39.909 -17.261   9.115 -0.35 +0.00    +0.010 A  
DOCKED: ATOM      9  C   UNL     1     -39.663 -18.589   9.491 -0.33 +0.00    +0.068 A  
DOCKED: ATOM     10  N   UNL     1     -41.003 -20.508   8.378 -2.38 -0.00    -0.191 NA 
DOCKED: ATOM     11  C   UNL     1     -40.402 -19.647   8.877 -0.34 +0.00    +0.101 C  
DOCKED: ENDROOT
DOCKED: BRANCH   2  12
DOCKED: ATOM     12  C   UNL     1     -38.120 -14.721  12.425 -0.06 +0.00    +0.038 C  
DOCKED: BRANCH  12  13
DOCKED: ATOM     13  C   UNL     1     -37.207 -13.683  13.074 -0.02 +0.00    +0.038 C  
DOCKED: BRANCH  13  14
DOCKED: ATOM     14  C   UNL     1     -37.808 -13.161  14.378 -0.00 +0.00    +0.251 C  
DOCKED: BRANCH  14  15
DOCKED: ATOM     15  N   UNL     1     -37.692 -14.167  15.427 -0.00 +0.00    +0.141 N  
DOCKED: ATOM     16  C   UNL     1     -36.373 -14.799  15.393 -0.00 +0.00    +0.285 C  
DOCKED: ATOM     17  C   UNL     1     -37.936 -13.571  16.742 +0.00 +0.00    +0.285 C  
DOCKED: ENDBRANCH  14  15
DOCKED: ENDBRANCH  13  14
DOCKED: ENDBRANCH  12  13
DOCKED: ENDBRANCH   2  12
DOCKED: BRANCH   2  18
DOCKED: ATOM     18  C   UNL     1     -36.445 -14.793  10.586 -0.13 +0.00    +0.006 A  
DOCKED: ATOM     19  C   UNL     1     -36.978 -13.991   9.578 -0.17 +0.00    +0.001 A  
DOCKED: ATOM     20  C   UNL     1     -36.129 -13.233   8.771 -0.14 +0.00    +0.029 A  
DOCKED: ATOM     21  C   UNL     1     -34.751 -13.277   8.973 -0.08 +0.00    +0.140 A  
DOCKED: ATOM     22  C   UNL     1     -34.219 -14.080   9.982 -0.09 +0.00    +0.029 A  
DOCKED: ATOM     23  F   UNL     1     -33.937 -12.548   8.199 -0.00 -0.00    -0.204 F  
DOCKED: ATOM     24  C   UNL     1     -35.067 -14.839  10.789 -0.10 +0.00    +0.001 A  
DOCKED: ENDBRANCH   2  18
DOCKED: TORSDOF 5
DOCKED: TER
DOCKED: ENDMDL
________________________________________________________________________________


    FINAL DOCKED STATE:
    ________________________


Run:   391 / 512
Time taken for this run:   0.002s

DOCKED: MODEL        391
DOCKED: USER    Run = 391
DOCKED: USER
DOCKED: USER    Estimated Free Energy of Binding    =  -5.39 kcal/mol  [=(1)+(2)+(3)-(4)]
DOCKED: USER
DOCKED: USER    (1) Final Intermolecular Energy     =  -6.88 kcal/mol
DOCKED: USER        vdW + Hbond + desolv Energy     =  -6.88 kcal/mol
DOCKED: USER        Electrostatic Energy            =  +0.00 kcal/mol
DOCKED: USER        Moving Ligand-Fixed Receptor    =  -6.88 kcal/mol
DOCKED: USER        Moving Ligand-Moving Receptor   =  +0.00 kcal/mol
DOCKED: USER    (2) Final Total Internal Energy     =  -1.02 kcal/mol
DOCKED: USER    (3) Torsional Free Energy           =  +1.49 kcal/mol
DOCKED: USER    (4) Unbound System's Energy         =  -1.02 kcal/mol
DOCKED: USER
DOCKED: USER
DOCKED: REMARK  5 active torsions:
DOCKED: REMARK  status: ('A' for Active; 'I' for Inactive)
DOCKED: REMARK    1  A    between atoms: C_2  and  C_19 
DOCKED: REMARK    2  A    between atoms: C_2  and  C_11 
DOCKED: REMARK    3  A    between atoms: C_19  and  C_20 
DOCKED: REMARK    4  A    between atoms: C_20  and  C_21 
DOCKED: REMARK    5  A    between atoms: C_21  and  N_22 
DOCKED: USER                              x       y       z     vdW  Elec       q    Type
DOCKED: USER                           _______ _______ _______ _____ _____    ______ ____
DOCKED: ROOT
DOCKED: ATOM      1  O   UNL     1     -38.703 -17.856  11.538 -0.07 -0.00    -0.346 OA 
DOCKED: ATOM      2  C   UNL     1     -40.107 -18.249  11.657 -0.16 +0.00    +0.130 C  
DOCKED: ATOM      3  C   UNL     1     -40.546 -18.451  10.236 -0.26 +0.00    +0.004 A  
DOCKED: ATOM      4  C   UNL     1     -39.461 -18.296   9.385 -0.37 +0.00    +0.006 A  
DOCKED: ATOM      5  C   UNL     1     -38.244 -17.998  10.173 -0.20 +0.00    +0.169 C  
DOCKED: ATOM      6  C   UNL     1     -41.803 -18.758   9.736 -0.28 -0.00    -0.001 A  
DOCKED: ATOM      7  C   UNL     1     -39.593 -18.437   8.014 -0.29 +0.00    +0.008 A  
DOCKED: ATOM      8  C   UNL     1     -41.954 -18.900   8.355 -0.37 +0.00    +0.010 A  
DOCKED: ATOM      9  C   UNL     1     -40.854 -18.740   7.499 -0.41 +0.00    +0.068 A  
DOCKED: ATOM     10  N   UNL     1     -41.168 -19.015   4.942 -3.01 -0.00    -0.191 NA 
DOCKED: ATOM     11  C   UNL     1     -41.027 -18.891   6.089 -0.28 +0.00    +0.101 C  
DOCKED: ENDROOT
DOCKED: BRANCH   2  12
DOCKED: ATOM     12  C   UNL     1     -40.183 -19.525  12.488 -0.27 +0.00    +0.038 C  
DOCKED: BRANCH  12  13
DOCKED: ATOM     13  C   UNL     1     -38.947 -19.688  13.371 -0.25 +0.00    +0.038 C  
DOCKED: BRANCH  13  14
DOCKED: ATOM     14  C   UNL     1     -39.182 -19.099  14.760 -0.12 +0.00    +0.251 C  
DOCKED: BRANCH  14  15
DOCKED: ATOM     15  N   UNL     1     -37.922 -18.990  15.485 -0.12 +0.00    +0.141 N  
DOCKED: ATOM     16  C   UNL     1     -38.014 -17.969  16.530 -0.02 +0.00    +0.285 C  
DOCKED: ATOM     17  C   UNL     1     -37.548 -20.280  16.067 -0.10 +0.00    +0.285 C  
DOCKED: ENDBRANCH  14  15
DOCKED: ENDBRANCH  13  14
DOCKED: ENDBRANCH  12  13
DOCKED: ENDBRANCH   2  12
DOCKED: BRANCH   2  18
DOCKED: ATOM     18  C   UNL     1     -40.819 -17.124  12.332 -0.08 +0.00    +0.006 A  
DOCKED: ATOM     19  C   UNL     1     -40.153 -16.345  13.276 -0.05 +0.00    +0.001 A  
DOCKED: ATOM     20  C   UNL     1     -40.820 -15.294  13.907 -0.02 +0.00    +0.029 A  
DOCKED: ATOM     21  C   UNL     1     -42.150 -15.023  13.591 -0.01 +0.00    +0.140 A  
DOCKED: ATOM     22  C   UNL     1     -42.816 -15.803  12.646 -0.05 +0.00    +0.029 A  
DOCKED: ATOM     23  F   UNL     1     -42.790 -14.013  14.195 +0.01 -0.00    -0.204 F  
DOCKED: ATOM     24  C   UNL     1     -42.150 -16.855  12.015 -0.09 +0.00    +0.001 A  
DOCKED: ENDBRANCH   2  18
DOCKED: TORSDOF 5
DOCKED: TER
DOCKED: ENDMDL
________________________________________________________________________________


    FINAL DOCKED STATE:
    ________________________


Run:   392 / 512
Time taken for this run:   0.002s

DOCKED: MODEL        392
DOCKED: USER    Run = 392
DOCKED: USER
DOCKED: USER    Estimated Free Energy of Binding    =  -3.63 kcal/mol  [=(1)+(2)+(3)-(4)]
DOCKED: USER
DOCKED: USER    (1) Final Intermolecular Energy     =  -5.12 kcal/mol
DOCKED: USER        vdW + Hbond + desolv Energy     =  -5.12 kcal/mol
DOCKED: USER        Electrostatic Energy            =  +0.00 kcal/mol
DOCKED: USER        Moving Ligand-Fixed Receptor    =  -5.12 kcal/mol
DOCKED: USER        Moving Ligand-Moving Receptor   =  +0.00 kcal/mol
DOCKED: USER    (2) Final Total Internal Energy     =  -1.42 kcal/mol
DOCKED: USER    (3) Torsional Free Energy           =  +1.49 kcal/mol
DOCKED: USER    (4) Unbound System's Energy         =  -1.42 kcal/mol
DOCKED: USER
DOCKED: USER
DOCKED: REMARK  5 active torsions:
DOCKED: REMARK  status: ('A' for Active; 'I' for Inactive)
DOCKED: REMARK    1  A    between atoms: C_2  and  C_19 
DOCKED: REMARK    2  A    between atoms: C_2  and  C_11 
DOCKED: REMARK    3  A    between atoms: C_19  and  C_20 
DOCKED: REMARK    4  A    between atoms: C_20  and  C_21 
DOCKED: REMARK    5  A    between atoms: C_21  and  N_22 
DOCKED: USER                              x       y       z     vdW  Elec       q    Type
DOCKED: USER                           _______ _______ _______ _____ _____    ______ ____
DOCKED: ROOT
DOCKED: ATOM      1  O   UNL     1     -35.612 -10.260   4.815 -0.05 -0.00    -0.346 OA 
DOCKED: ATOM      2  C   UNL     1     -36.797 -10.379   3.964 -0.23 +0.00    +0.130 C  
DOCKED: ATOM      3  C   UNL     1     -36.490  -9.487   2.795 -0.27 +0.00    +0.004 A  
DOCKED: ATOM      4  C   UNL     1     -35.200  -8.990   2.913 -0.09 +0.00    +0.006 A  
DOCKED: ATOM      5  C   UNL     1     -34.568  -9.520   4.142 -0.13 +0.00    +0.169 C  
DOCKED: ATOM      6  C   UNL     1     -37.285  -9.153   1.709 -0.23 -0.00    -0.001 A  
DOCKED: ATOM      7  C   UNL     1     -34.664  -8.143   1.958 -0.13 +0.00    +0.008 A  
DOCKED: ATOM      8  C   UNL     1     -36.761  -8.296   0.739 -0.35 +0.00    +0.010 A  
DOCKED: ATOM      9  C   UNL     1     -35.457  -7.795   0.863 -0.22 +0.00    +0.068 A  
DOCKED: ATOM     10  N   UNL     1     -34.512  -6.211  -0.957 -0.71 -0.00    -0.191 NA 
DOCKED: ATOM     11  C   UNL     1     -34.936  -6.921  -0.140 -0.25 +0.00    +0.101 C  
DOCKED: ENDROOT
DOCKED: BRANCH   2  12
DOCKED: ATOM     12  C   UNL     1     -36.962 -11.841   3.568 -0.24 +0.00    +0.038 C  
DOCKED: BRANCH  12  13
DOCKED: ATOM     13  C   UNL     1     -35.884 -12.716   4.205 -0.21 +0.00    +0.038 C  
DOCKED: BRANCH  13  14
DOCKED: ATOM     14  C   UNL     1     -35.045 -13.418   3.139 -0.14 +0.00    +0.251 C  
DOCKED: BRANCH  14  15
DOCKED: ATOM     15  N   UNL     1     -34.366 -12.437   2.301 -0.11 +0.00    +0.141 N  
DOCKED: ATOM     16  C   UNL     1     -32.932 -12.723   2.231 -0.03 +0.00    +0.285 C  
DOCKED: ATOM     17  C   UNL     1     -34.945 -12.417   0.957 -0.17 +0.00    +0.285 C  
DOCKED: ENDBRANCH  14  15
DOCKED: ENDBRANCH  13  14
DOCKED: ENDBRANCH  12  13
DOCKED: ENDBRANCH   2  12
DOCKED: BRANCH   2  18
DOCKED: ATOM     18  C   UNL     1     -37.961  -9.904   4.767 -0.29 +0.00    +0.006 A  
DOCKED: ATOM     19  C   UNL     1     -39.039 -10.756   5.004 -0.28 +0.00    +0.001 A  
DOCKED: ATOM     20  C   UNL     1     -40.127 -10.311   5.755 -0.27 +0.00    +0.029 A  
DOCKED: ATOM     21  C   UNL     1     -40.136  -9.015   6.269 -0.17 +0.00    +0.140 A  
DOCKED: ATOM     22  C   UNL     1     -39.058  -8.163   6.032 -0.27 +0.00    +0.029 A  
DOCKED: ATOM     23  F   UNL     1     -41.180  -8.588   6.992 -0.01 -0.00    -0.204 F  
DOCKED: ATOM     24  C   UNL     1     -37.969  -8.607   5.280 -0.26 +0.00    +0.001 A  
DOCKED: ENDBRANCH   2  18
DOCKED: TORSDOF 5
DOCKED: TER
DOCKED: ENDMDL
________________________________________________________________________________


    FINAL DOCKED STATE:
    ________________________


Run:   393 / 512
Time taken for this run:   0.002s

DOCKED: MODEL        393
DOCKED: USER    Run = 393
DOCKED: USER
DOCKED: USER    Estimated Free Energy of Binding    =  -3.98 kcal/mol  [=(1)+(2)+(3)-(4)]
DOCKED: USER
DOCKED: USER    (1) Final Intermolecular Energy     =  -5.47 kcal/mol
DOCKED: USER        vdW + Hbond + desolv Energy     =  -5.47 kcal/mol
DOCKED: USER        Electrostatic Energy            =  +0.00 kcal/mol
DOCKED: USER        Moving Ligand-Fixed Receptor    =  -5.47 kcal/mol
DOCKED: USER        Moving Ligand-Moving Receptor   =  +0.00 kcal/mol
DOCKED: USER    (2) Final Total Internal Energy     =  -1.18 kcal/mol
DOCKED: USER    (3) Torsional Free Energy           =  +1.49 kcal/mol
DOCKED: USER    (4) Unbound System's Energy         =  -1.18 kcal/mol
DOCKED: USER
DOCKED: USER
DOCKED: REMARK  5 active torsions:
DOCKED: REMARK  status: ('A' for Active; 'I' for Inactive)
DOCKED: REMARK    1  A    between atoms: C_2  and  C_19 
DOCKED: REMARK    2  A    between atoms: C_2  and  C_11 
DOCKED: REMARK    3  A    between atoms: C_19  and  C_20 
DOCKED: REMARK    4  A    between atoms: C_20  and  C_21 
DOCKED: REMARK    5  A    between atoms: C_21  and  N_22 
DOCKED: USER                              x       y       z     vdW  Elec       q    Type
DOCKED: USER                           _______ _______ _______ _____ _____    ______ ____
DOCKED: ROOT
DOCKED: ATOM      1  O   UNL     1     -30.808 -15.342   3.660 +0.01 -0.00    -0.346 OA 
DOCKED: ATOM      2  C   UNL     1     -32.253 -15.133   3.757 -0.07 +0.00    +0.130 C  
DOCKED: ATOM      3  C   UNL     1     -32.743 -16.346   4.493 -0.15 +0.00    +0.004 A  
DOCKED: ATOM      4  C   UNL     1     -31.662 -17.125   4.881 -0.09 +0.00    +0.006 A  
DOCKED: ATOM      5  C   UNL     1     -30.400 -16.485   4.446 -0.02 +0.00    +0.169 C  
DOCKED: ATOM      6  C   UNL     1     -34.041 -16.723   4.806 -0.30 -0.00    -0.001 A  
DOCKED: ATOM      7  C   UNL     1     -31.839 -18.303   5.586 -0.16 +0.00    +0.008 A  
DOCKED: ATOM      8  C   UNL     1     -34.236 -17.911   5.512 -0.28 +0.00    +0.010 A  
DOCKED: ATOM      9  C   UNL     1     -33.141 -18.696   5.901 -0.30 +0.00    +0.068 A  
DOCKED: ATOM     10  N   UNL     1     -33.539 -20.893   7.216 -2.54 -0.00    -0.191 NA 
DOCKED: ATOM     11  C   UNL     1     -33.360 -19.908   6.625 -0.36 +0.00    +0.101 C  
DOCKED: ENDROOT
DOCKED: BRANCH   2  12
DOCKED: ATOM     12  C   UNL     1     -32.503 -13.835   4.516 -0.04 +0.00    +0.038 C  
DOCKED: BRANCH  12  13
DOCKED: ATOM     13  C   UNL     1     -31.917 -12.635   3.776 -0.01 +0.00    +0.038 C  
DOCKED: BRANCH  13  14
DOCKED: ATOM     14  C   UNL     1     -32.742 -11.375   4.033 -0.01 +0.00    +0.251 C  
DOCKED: BRANCH  14  15
DOCKED: ATOM     15  N   UNL     1     -33.765 -11.220   3.006 -0.04 +0.00    +0.141 N  
DOCKED: ATOM     16  C   UNL     1     -35.101 -11.391   3.578 -0.08 +0.00    +0.285 C  
DOCKED: ATOM     17  C   UNL     1     -33.653  -9.910   2.361 -0.04 +0.00    +0.285 C  
DOCKED: ENDBRANCH  14  15
DOCKED: ENDBRANCH  13  14
DOCKED: ENDBRANCH  12  13
DOCKED: ENDBRANCH   2  12
DOCKED: BRANCH   2  18
DOCKED: ATOM     18  C   UNL     1     -32.776 -15.049   2.361 -0.13 +0.00    +0.006 A  
DOCKED: ATOM     19  C   UNL     1     -32.034 -15.579   1.307 -0.12 +0.00    +0.001 A  
DOCKED: ATOM     20  C   UNL     1     -32.524 -15.500   0.002 -0.16 +0.00    +0.029 A  
DOCKED: ATOM     21  C   UNL     1     -33.754 -14.892  -0.245 -0.21 +0.00    +0.140 A  
DOCKED: ATOM     22  C   UNL     1     -34.495 -14.362   0.811 -0.09 +0.00    +0.029 A  
DOCKED: ATOM     23  F   UNL     1     -34.225 -14.818  -1.496 -0.11 -0.00    -0.204 F  
DOCKED: ATOM     24  C   UNL     1     -34.006 -14.440   2.116 -0.19 +0.00    +0.001 A  
DOCKED: ENDBRANCH   2  18
DOCKED: TORSDOF 5
DOCKED: TER
DOCKED: ENDMDL
________________________________________________________________________________


    FINAL DOCKED STATE:
    ________________________


Run:   394 / 512
Time taken for this run:   0.002s

DOCKED: MODEL        394
DOCKED: USER    Run = 394
DOCKED: USER
DOCKED: USER    Estimated Free Energy of Binding    =  -3.71 kcal/mol  [=(1)+(2)+(3)-(4)]
DOCKED: USER
DOCKED: USER    (1) Final Intermolecular Energy     =  -5.20 kcal/mol
DOCKED: USER        vdW + Hbond + desolv Energy     =  -5.20 kcal/mol
DOCKED: USER        Electrostatic Energy            =  +0.00 kcal/mol
DOCKED: USER        Moving Ligand-Fixed Receptor    =  -5.20 kcal/mol
DOCKED: USER        Moving Ligand-Moving Receptor   =  +0.00 kcal/mol
DOCKED: USER    (2) Final Total Internal Energy     =  -1.35 kcal/mol
DOCKED: USER    (3) Torsional Free Energy           =  +1.49 kcal/mol
DOCKED: USER    (4) Unbound System's Energy         =  -1.35 kcal/mol
DOCKED: USER
DOCKED: USER
DOCKED: REMARK  5 active torsions:
DOCKED: REMARK  status: ('A' for Active; 'I' for Inactive)
DOCKED: REMARK    1  A    between atoms: C_2  and  C_19 
DOCKED: REMARK    2  A    between atoms: C_2  and  C_11 
DOCKED: REMARK    3  A    between atoms: C_19  and  C_20 
DOCKED: REMARK    4  A    between atoms: C_20  and  C_21 
DOCKED: REMARK    5  A    between atoms: C_21  and  N_22 
DOCKED: USER                              x       y       z     vdW  Elec       q    Type
DOCKED: USER                           _______ _______ _______ _____ _____    ______ ____
DOCKED: ROOT
DOCKED: ATOM      1  O   UNL     1     -38.335 -14.178  10.875 -0.04 -0.00    -0.346 OA 
DOCKED: ATOM      2  C   UNL     1     -37.527 -15.210  11.527 -0.11 +0.00    +0.130 C  
DOCKED: ATOM      3  C   UNL     1     -38.094 -16.496  11.001 -0.21 +0.00    +0.004 A  
DOCKED: ATOM      4  C   UNL     1     -39.066 -16.224  10.049 -0.28 +0.00    +0.006 A  
DOCKED: ATOM      5  C   UNL     1     -39.199 -14.761   9.872 -0.18 +0.00    +0.169 C  
DOCKED: ATOM      6  C   UNL     1     -37.768 -17.804  11.331 -0.26 -0.00    -0.001 A  
DOCKED: ATOM      7  C   UNL     1     -39.745 -17.241   9.400 -0.34 +0.00    +0.008 A  
DOCKED: ATOM      8  C   UNL     1     -38.446 -18.841  10.688 -0.35 +0.00    +0.010 A  
DOCKED: ATOM      9  C   UNL     1     -39.429 -18.561   9.728 -0.32 +0.00    +0.068 A  
DOCKED: ATOM     10  N   UNL     1     -40.666 -20.510   8.551 -2.51 -0.00    -0.191 NA 
DOCKED: ATOM     11  C   UNL     1     -40.112 -19.636   9.079 -0.25 +0.00    +0.101 C  
DOCKED: ENDROOT
DOCKED: BRANCH   2  12
DOCKED: ATOM     12  C   UNL     1     -36.069 -15.000  11.135 -0.13 +0.00    +0.038 C  
DOCKED: BRANCH  12  13
DOCKED: ATOM     13  C   UNL     1     -35.457 -13.815  11.881 -0.05 +0.00    +0.038 C  
DOCKED: BRANCH  13  14
DOCKED: ATOM     14  C   UNL     1     -35.770 -12.499  11.171 -0.02 +0.00    +0.251 C  
DOCKED: BRANCH  14  15
DOCKED: ATOM     15  N   UNL     1     -36.660 -11.682  11.988 -0.01 +0.00    +0.141 N  
DOCKED: ATOM     16  C   UNL     1     -35.917 -11.029  13.067 -0.00 +0.00    +0.285 C  
DOCKED: ATOM     17  C   UNL     1     -37.342 -10.682  11.164 -0.01 +0.00    +0.285 C  
DOCKED: ENDBRANCH  14  15
DOCKED: ENDBRANCH  13  14
DOCKED: ENDBRANCH  12  13
DOCKED: ENDBRANCH   2  12
DOCKED: BRANCH   2  18
DOCKED: ATOM     18  C   UNL     1     -37.718 -15.048  12.998 -0.04 +0.00    +0.006 A  
DOCKED: ATOM     19  C   UNL     1     -38.238 -13.859  13.507 -0.01 +0.00    +0.001 A  
DOCKED: ATOM     20  C   UNL     1     -38.415 -13.709  14.883 -0.00 +0.00    +0.029 A  
DOCKED: ATOM     21  C   UNL     1     -38.073 -14.748  15.747 -0.00 +0.00    +0.140 A  
DOCKED: ATOM     22  C   UNL     1     -37.554 -15.938  15.238 -0.02 +0.00    +0.029 A  
DOCKED: ATOM     23  F   UNL     1     -38.246 -14.605  17.068 +0.00 -0.00    -0.204 F  
DOCKED: ATOM     24  C   UNL     1     -37.375 -16.089  13.861 -0.05 +0.00    +0.001 A  
DOCKED: ENDBRANCH   2  18
DOCKED: TORSDOF 5
DOCKED: TER
DOCKED: ENDMDL
________________________________________________________________________________


    FINAL DOCKED STATE:
    ________________________


Run:   395 / 512
Time taken for this run:   0.002s

DOCKED: MODEL        395
DOCKED: USER    Run = 395
DOCKED: USER
DOCKED: USER    Estimated Free Energy of Binding    =  -4.02 kcal/mol  [=(1)+(2)+(3)-(4)]
DOCKED: USER
DOCKED: USER    (1) Final Intermolecular Energy     =  -5.51 kcal/mol
DOCKED: USER        vdW + Hbond + desolv Energy     =  -5.51 kcal/mol
DOCKED: USER        Electrostatic Energy            =  +0.00 kcal/mol
DOCKED: USER        Moving Ligand-Fixed Receptor    =  -5.51 kcal/mol
DOCKED: USER        Moving Ligand-Moving Receptor   =  +0.00 kcal/mol
DOCKED: USER    (2) Final Total Internal Energy     =  -1.27 kcal/mol
DOCKED: USER    (3) Torsional Free Energy           =  +1.49 kcal/mol
DOCKED: USER    (4) Unbound System's Energy         =  -1.27 kcal/mol
DOCKED: USER
DOCKED: USER
DOCKED: REMARK  5 active torsions:
DOCKED: REMARK  status: ('A' for Active; 'I' for Inactive)
DOCKED: REMARK    1  A    between atoms: C_2  and  C_19 
DOCKED: REMARK    2  A    between atoms: C_2  and  C_11 
DOCKED: REMARK    3  A    between atoms: C_19  and  C_20 
DOCKED: REMARK    4  A    between atoms: C_20  and  C_21 
DOCKED: REMARK    5  A    between atoms: C_21  and  N_22 
DOCKED: USER                              x       y       z     vdW  Elec       q    Type
DOCKED: USER                           _______ _______ _______ _____ _____    ______ ____
DOCKED: ROOT
DOCKED: ATOM      1  O   UNL     1     -35.742 -10.507   3.871 -0.05 -0.00    -0.346 OA 
DOCKED: ATOM      2  C   UNL     1     -34.601 -10.011   3.100 -0.12 +0.00    +0.130 C  
DOCKED: ATOM      3  C   UNL     1     -35.234  -9.313   1.932 -0.21 +0.00    +0.004 A  
DOCKED: ATOM      4  C   UNL     1     -36.614  -9.313   2.078 -0.30 +0.00    +0.006 A  
DOCKED: ATOM      5  C   UNL     1     -36.985  -9.990   3.341 -0.25 +0.00    +0.169 C  
DOCKED: ATOM      6  C   UNL     1     -34.636  -8.715   0.832 -0.17 -0.00    -0.001 A  
DOCKED: ATOM      7  C   UNL     1     -37.439  -8.724   1.136 -0.27 +0.00    +0.008 A  
DOCKED: ATOM      8  C   UNL     1     -35.454  -8.120  -0.130 -0.26 +0.00    +0.010 A  
DOCKED: ATOM      9  C   UNL     1     -36.849  -8.124   0.022 -0.27 +0.00    +0.068 A  
DOCKED: ATOM     10  N   UNL     1     -38.339  -7.007  -1.779 -2.53 -0.00    -0.191 NA 
DOCKED: ATOM     11  C   UNL     1     -37.671  -7.509  -0.971 -0.29 +0.00    +0.101 C  
DOCKED: ENDROOT
DOCKED: BRANCH   2  12
DOCKED: ATOM     12  C   UNL     1     -33.792  -9.071   3.986 -0.14 +0.00    +0.038 C  
DOCKED: BRANCH  12  13
DOCKED: ATOM     13  C   UNL     1     -33.735  -9.576   5.427 -0.11 +0.00    +0.038 C  
DOCKED: BRANCH  13  14
DOCKED: ATOM     14  C   UNL     1     -34.981  -9.157   6.206 -0.11 +0.00    +0.251 C  
DOCKED: BRANCH  14  15
DOCKED: ATOM     15  N   UNL     1     -35.411 -10.234   7.090 -0.05 +0.00    +0.141 N  
DOCKED: ATOM     16  C   UNL     1     -36.861 -10.193   7.284 -0.07 +0.00    +0.285 C  
DOCKED: ATOM     17  C   UNL     1     -35.007 -11.534   6.554 -0.03 +0.00    +0.285 C  
DOCKED: ENDBRANCH  14  15
DOCKED: ENDBRANCH  13  14
DOCKED: ENDBRANCH  12  13
DOCKED: ENDBRANCH   2  12
DOCKED: BRANCH   2  18
DOCKED: ATOM     18  C   UNL     1     -33.795 -11.201   2.700 -0.06 +0.00    +0.006 A  
DOCKED: ATOM     19  C   UNL     1     -32.937 -11.124   1.604 -0.03 +0.00    +0.001 A  
DOCKED: ATOM     20  C   UNL     1     -32.183 -12.237   1.230 -0.02 +0.00    +0.029 A  
DOCKED: ATOM     21  C   UNL     1     -32.288 -13.425   1.953 -0.03 +0.00    +0.140 A  
DOCKED: ATOM     22  C   UNL     1     -33.146 -13.501   3.049 -0.07 +0.00    +0.029 A  
DOCKED: ATOM     23  F   UNL     1     -31.563 -14.493   1.595 -0.00 -0.00    -0.204 F  
DOCKED: ATOM     24  C   UNL     1     -33.901 -12.388   3.423 -0.07 +0.00    +0.001 A  
DOCKED: ENDBRANCH   2  18
DOCKED: TORSDOF 5
DOCKED: TER
DOCKED: ENDMDL
________________________________________________________________________________


    FINAL DOCKED STATE:
    ________________________


Run:   396 / 512
Time taken for this run:   0.002s

DOCKED: MODEL        396
DOCKED: USER    Run = 396
DOCKED: USER
DOCKED: USER    Estimated Free Energy of Binding    =  -3.63 kcal/mol  [=(1)+(2)+(3)-(4)]
DOCKED: USER
DOCKED: USER    (1) Final Intermolecular Energy     =  -5.12 kcal/mol
DOCKED: USER        vdW + Hbond + desolv Energy     =  -5.12 kcal/mol
DOCKED: USER        Electrostatic Energy            =  +0.00 kcal/mol
DOCKED: USER        Moving Ligand-Fixed Receptor    =  -5.12 kcal/mol
DOCKED: USER        Moving Ligand-Moving Receptor   =  +0.00 kcal/mol
DOCKED: USER    (2) Final Total Internal Energy     =  -1.57 kcal/mol
DOCKED: USER    (3) Torsional Free Energy           =  +1.49 kcal/mol
DOCKED: USER    (4) Unbound System's Energy         =  -1.57 kcal/mol
DOCKED: USER
DOCKED: USER
DOCKED: REMARK  5 active torsions:
DOCKED: REMARK  status: ('A' for Active; 'I' for Inactive)
DOCKED: REMARK    1  A    between atoms: C_2  and  C_19 
DOCKED: REMARK    2  A    between atoms: C_2  and  C_11 
DOCKED: REMARK    3  A    between atoms: C_19  and  C_20 
DOCKED: REMARK    4  A    between atoms: C_20  and  C_21 
DOCKED: REMARK    5  A    between atoms: C_21  and  N_22 
DOCKED: USER                              x       y       z     vdW  Elec       q    Type
DOCKED: USER                           _______ _______ _______ _____ _____    ______ ____
DOCKED: ROOT
DOCKED: ATOM      1  O   UNL     1     -36.693 -17.192  13.412 -0.05 -0.00    -0.346 OA 
DOCKED: ATOM      2  C   UNL     1     -36.842 -16.283  12.275 -0.12 +0.00    +0.130 C  
DOCKED: ATOM      3  C   UNL     1     -37.824 -16.983  11.380 -0.21 +0.00    +0.004 A  
DOCKED: ATOM      4  C   UNL     1     -38.280 -18.137  12.001 -0.22 +0.00    +0.006 A  
DOCKED: ATOM      5  C   UNL     1     -37.652 -18.272  13.335 -0.06 +0.00    +0.169 C  
DOCKED: ATOM      6  C   UNL     1     -38.284 -16.622  10.123 -0.17 -0.00    -0.001 A  
DOCKED: ATOM      7  C   UNL     1     -39.204 -18.967  11.390 -0.28 +0.00    +0.008 A  
DOCKED: ATOM      8  C   UNL     1     -39.213 -17.451   9.491 -0.34 +0.00    +0.010 A  
DOCKED: ATOM      9  C   UNL     1     -39.670 -18.618  10.121 -0.28 +0.00    +0.068 A  
DOCKED: ATOM     10  N   UNL     1     -41.397 -20.132   8.923 -2.33 -0.00    -0.191 NA 
DOCKED: ATOM     11  C   UNL     1     -40.622 -19.453   9.460 -0.23 +0.00    +0.101 C  
DOCKED: ENDROOT
DOCKED: BRANCH   2  12
DOCKED: ATOM     12  C   UNL     1     -37.359 -14.945  12.791 -0.05 +0.00    +0.038 C  
DOCKED: BRANCH  12  13
DOCKED: ATOM     13  C   UNL     1     -37.163 -14.817  14.300 -0.01 +0.00    +0.038 C  
DOCKED: BRANCH  13  14
DOCKED: ATOM     14  C   UNL     1     -35.743 -14.364  14.633 -0.00 +0.00    +0.251 C  
DOCKED: BRANCH  14  15
DOCKED: ATOM     15  N   UNL     1     -35.147 -15.250  15.626 -0.00 +0.00    +0.141 N  
DOCKED: ATOM     16  C   UNL     1     -36.163 -16.124  16.213 -0.01 +0.00    +0.285 C  
DOCKED: ATOM     17  C   UNL     1     -34.075 -16.048  15.027 -0.01 +0.00    +0.285 C  
DOCKED: ENDBRANCH  14  15
DOCKED: ENDBRANCH  13  14
DOCKED: ENDBRANCH  12  13
DOCKED: ENDBRANCH   2  12
DOCKED: BRANCH   2  18
DOCKED: ATOM     18  C   UNL     1     -35.493 -16.136  11.654 -0.13 +0.00    +0.006 A  
DOCKED: ATOM     19  C   UNL     1     -34.574 -17.182  11.728 -0.17 +0.00    +0.001 A  
DOCKED: ATOM     20  C   UNL     1     -33.313 -17.043  11.148 -0.14 +0.00    +0.029 A  
DOCKED: ATOM     21  C   UNL     1     -32.972 -15.859  10.495 -0.08 +0.00    +0.140 A  
DOCKED: ATOM     22  C   UNL     1     -33.891 -14.813  10.422 -0.10 +0.00    +0.029 A  
DOCKED: ATOM     23  F   UNL     1     -31.762 -15.726   9.937 -0.01 -0.00    -0.204 F  
DOCKED: ATOM     24  C   UNL     1     -35.153 -14.951  11.003 -0.11 +0.00    +0.001 A  
DOCKED: ENDBRANCH   2  18
DOCKED: TORSDOF 5
DOCKED: TER
DOCKED: ENDMDL
________________________________________________________________________________


    FINAL DOCKED STATE:
    ________________________


Run:   397 / 512
Time taken for this run:   0.002s

DOCKED: MODEL        397
DOCKED: USER    Run = 397
DOCKED: USER
DOCKED: USER    Estimated Free Energy of Binding    =  -4.21 kcal/mol  [=(1)+(2)+(3)-(4)]
DOCKED: USER
DOCKED: USER    (1) Final Intermolecular Energy     =  -5.70 kcal/mol
DOCKED: USER        vdW + Hbond + desolv Energy     =  -5.70 kcal/mol
DOCKED: USER        Electrostatic Energy            =  +0.00 kcal/mol
DOCKED: USER        Moving Ligand-Fixed Receptor    =  -5.70 kcal/mol
DOCKED: USER        Moving Ligand-Moving Receptor   =  +0.00 kcal/mol
DOCKED: USER    (2) Final Total Internal Energy     =  -1.21 kcal/mol
DOCKED: USER    (3) Torsional Free Energy           =  +1.49 kcal/mol
DOCKED: USER    (4) Unbound System's Energy         =  -1.21 kcal/mol
DOCKED: USER
DOCKED: USER
DOCKED: REMARK  5 active torsions:
DOCKED: REMARK  status: ('A' for Active; 'I' for Inactive)
DOCKED: REMARK    1  A    between atoms: C_2  and  C_19 
DOCKED: REMARK    2  A    between atoms: C_2  and  C_11 
DOCKED: REMARK    3  A    between atoms: C_19  and  C_20 
DOCKED: REMARK    4  A    between atoms: C_20  and  C_21 
DOCKED: REMARK    5  A    between atoms: C_21  and  N_22 
DOCKED: USER                              x       y       z     vdW  Elec       q    Type
DOCKED: USER                           _______ _______ _______ _____ _____    ______ ____
DOCKED: ROOT
DOCKED: ATOM      1  O   UNL     1     -36.399 -16.271  12.080 -0.07 -0.00    -0.346 OA 
DOCKED: ATOM      2  C   UNL     1     -37.396 -15.414  11.437 -0.13 +0.00    +0.130 C  
DOCKED: ATOM      3  C   UNL     1     -38.266 -16.378  10.682 -0.23 +0.00    +0.004 A  
DOCKED: ATOM      4  C   UNL     1     -37.870 -17.679  10.958 -0.26 +0.00    +0.006 A  
DOCKED: ATOM      5  C   UNL     1     -36.736 -17.668  11.910 -0.15 +0.00    +0.169 C  
DOCKED: ATOM      6  C   UNL     1     -39.330 -16.124   9.829 -0.29 -0.00    -0.001 A  
DOCKED: ATOM      7  C   UNL     1     -38.516 -18.764  10.392 -0.36 +0.00    +0.008 A  
DOCKED: ATOM      8  C   UNL     1     -39.989 -17.207   9.247 -0.33 +0.00    +0.010 A  
DOCKED: ATOM      9  C   UNL     1     -39.585 -18.521   9.527 -0.33 +0.00    +0.068 A  
DOCKED: ATOM     10  N   UNL     1     -40.833 -20.510   8.433 -2.42 -0.00    -0.191 NA 
DOCKED: ATOM     11  C   UNL     1     -40.273 -19.618   8.923 -0.33 +0.00    +0.101 C  
DOCKED: ENDROOT
DOCKED: BRANCH   2  12
DOCKED: ATOM     12  C   UNL     1     -38.152 -14.656  12.521 -0.05 +0.00    +0.038 C  
DOCKED: BRANCH  12  13
DOCKED: ATOM     13  C   UNL     1     -37.323 -13.497  13.072 -0.02 +0.00    +0.038 C  
DOCKED: BRANCH  13  14
DOCKED: ATOM     14  C   UNL     1     -38.107 -12.188  13.021 -0.00 +0.00    +0.251 C  
DOCKED: BRANCH  14  15
DOCKED: ATOM     15  N   UNL     1     -38.880 -12.107  11.787 -0.02 +0.00    +0.141 N  
DOCKED: ATOM     16  C   UNL     1     -40.313 -12.222  12.067 -0.02 +0.00    +0.285 C  
DOCKED: ATOM     17  C   UNL     1     -38.600 -10.854  11.084 -0.01 +0.00    +0.285 C  
DOCKED: ENDBRANCH  14  15
DOCKED: ENDBRANCH  13  14
DOCKED: ENDBRANCH  12  13
DOCKED: ENDBRANCH   2  12
DOCKED: BRANCH   2  18
DOCKED: ATOM     18  C   UNL     1     -36.655 -14.478  10.542 -0.14 +0.00    +0.006 A  
DOCKED: ATOM     19  C   UNL     1     -37.309 -13.874   9.469 -0.17 +0.00    +0.001 A  
DOCKED: ATOM     20  C   UNL     1     -36.614 -12.999   8.634 -0.12 +0.00    +0.029 A  
DOCKED: ATOM     21  C   UNL     1     -35.268 -12.728   8.872 -0.07 +0.00    +0.140 A  
DOCKED: ATOM     22  C   UNL     1     -34.614 -13.332   9.945 -0.07 +0.00    +0.029 A  
DOCKED: ATOM     23  F   UNL     1     -34.602 -11.887   8.071 -0.00 -0.00    -0.204 F  
DOCKED: ATOM     24  C   UNL     1     -35.308 -14.209  10.782 -0.10 +0.00    +0.001 A  
DOCKED: ENDBRANCH   2  18
DOCKED: TORSDOF 5
DOCKED: TER
DOCKED: ENDMDL
________________________________________________________________________________


    FINAL DOCKED STATE:
    ________________________


Run:   398 / 512
Time taken for this run:   0.002s

DOCKED: MODEL        398
DOCKED: USER    Run = 398
DOCKED: USER
DOCKED: USER    Estimated Free Energy of Binding    =  -4.21 kcal/mol  [=(1)+(2)+(3)-(4)]
DOCKED: USER
DOCKED: USER    (1) Final Intermolecular Energy     =  -5.70 kcal/mol
DOCKED: USER        vdW + Hbond + desolv Energy     =  -5.70 kcal/mol
DOCKED: USER        Electrostatic Energy            =  +0.00 kcal/mol
DOCKED: USER        Moving Ligand-Fixed Receptor    =  -5.70 kcal/mol
DOCKED: USER        Moving Ligand-Moving Receptor   =  +0.00 kcal/mol
DOCKED: USER    (2) Final Total Internal Energy     =  -1.14 kcal/mol
DOCKED: USER    (3) Torsional Free Energy           =  +1.49 kcal/mol
DOCKED: USER    (4) Unbound System's Energy         =  -1.14 kcal/mol
DOCKED: USER
DOCKED: USER
DOCKED: REMARK  5 active torsions:
DOCKED: REMARK  status: ('A' for Active; 'I' for Inactive)
DOCKED: REMARK    1  A    between atoms: C_2  and  C_19 
DOCKED: REMARK    2  A    between atoms: C_2  and  C_11 
DOCKED: REMARK    3  A    between atoms: C_19  and  C_20 
DOCKED: REMARK    4  A    between atoms: C_20  and  C_21 
DOCKED: REMARK    5  A    between atoms: C_21  and  N_22 
DOCKED: USER                              x       y       z     vdW  Elec       q    Type
DOCKED: USER                           _______ _______ _______ _____ _____    ______ ____
DOCKED: ROOT
DOCKED: ATOM      1  O   UNL     1     -36.509 -15.851  11.758 -0.07 -0.00    -0.346 OA 
DOCKED: ATOM      2  C   UNL     1     -37.650 -15.077  11.267 -0.13 +0.00    +0.130 C  
DOCKED: ATOM      3  C   UNL     1     -38.532 -16.106  10.620 -0.23 +0.00    +0.004 A  
DOCKED: ATOM      4  C   UNL     1     -37.997 -17.371  10.821 -0.24 +0.00    +0.006 A  
DOCKED: ATOM      5  C   UNL     1     -36.751 -17.270  11.612 -0.16 +0.00    +0.169 C  
DOCKED: ATOM      6  C   UNL     1     -39.718 -15.937   9.921 -0.27 -0.00    -0.001 A  
DOCKED: ATOM      7  C   UNL     1     -38.623 -18.504  10.328 -0.34 +0.00    +0.008 A  
DOCKED: ATOM      8  C   UNL     1     -40.358 -17.069   9.414 -0.30 +0.00    +0.010 A  
DOCKED: ATOM      9  C   UNL     1     -39.814 -18.346   9.618 -0.31 +0.00    +0.068 A  
DOCKED: ATOM     10  N   UNL     1     -41.031 -20.427   8.669 -2.52 -0.00    -0.191 NA 
DOCKED: ATOM     11  C   UNL     1     -40.485 -19.493   9.094 -0.33 +0.00    +0.101 C  
DOCKED: ENDROOT
DOCKED: BRANCH   2  12
DOCKED: ATOM     12  C   UNL     1     -38.313 -14.389  12.454 -0.05 +0.00    +0.038 C  
DOCKED: BRANCH  12  13
DOCKED: ATOM     13  C   UNL     1     -39.188 -15.361  13.244 -0.04 +0.00    +0.038 C  
DOCKED: BRANCH  13  14
DOCKED: ATOM     14  C   UNL     1     -38.353 -16.174  14.231 -0.02 +0.00    +0.251 C  
DOCKED: BRANCH  14  15
DOCKED: ATOM     15  N   UNL     1     -38.484 -15.627  15.577 -0.01 +0.00    +0.141 N  
DOCKED: ATOM     16  C   UNL     1     -37.410 -14.672  15.853 -0.00 +0.00    +0.285 C  
DOCKED: ATOM     17  C   UNL     1     -39.790 -14.987  15.748 -0.00 +0.00    +0.285 C  
DOCKED: ENDBRANCH  14  15
DOCKED: ENDBRANCH  13  14
DOCKED: ENDBRANCH  12  13
DOCKED: ENDBRANCH   2  12
DOCKED: BRANCH   2  18
DOCKED: ATOM     18  C   UNL     1     -37.114 -14.078  10.296 -0.15 +0.00    +0.006 A  
DOCKED: ATOM     19  C   UNL     1     -37.938 -13.059   9.819 -0.14 +0.00    +0.001 A  
DOCKED: ATOM     20  C   UNL     1     -37.435 -12.126   8.912 -0.09 +0.00    +0.029 A  
DOCKED: ATOM     21  C   UNL     1     -36.111 -12.212   8.483 -0.07 +0.00    +0.140 A  
DOCKED: ATOM     22  C   UNL     1     -35.288 -13.232   8.961 -0.11 +0.00    +0.029 A  
DOCKED: ATOM     23  F   UNL     1     -35.629 -11.315   7.614 -0.01 -0.00    -0.204 F  
DOCKED: ATOM     24  C   UNL     1     -35.790 -14.166   9.869 -0.12 +0.00    +0.001 A  
DOCKED: ENDBRANCH   2  18
DOCKED: TORSDOF 5
DOCKED: TER
DOCKED: ENDMDL
________________________________________________________________________________


    FINAL DOCKED STATE:
    ________________________


Run:   399 / 512
Time taken for this run:   0.002s

DOCKED: MODEL        399
DOCKED: USER    Run = 399
DOCKED: USER
DOCKED: USER    Estimated Free Energy of Binding    =  -4.31 kcal/mol  [=(1)+(2)+(3)-(4)]
DOCKED: USER
DOCKED: USER    (1) Final Intermolecular Energy     =  -5.80 kcal/mol
DOCKED: USER        vdW + Hbond + desolv Energy     =  -5.80 kcal/mol
DOCKED: USER        Electrostatic Energy            =  +0.00 kcal/mol
DOCKED: USER        Moving Ligand-Fixed Receptor    =  -5.80 kcal/mol
DOCKED: USER        Moving Ligand-Moving Receptor   =  +0.00 kcal/mol
DOCKED: USER    (2) Final Total Internal Energy     =  -1.17 kcal/mol
DOCKED: USER    (3) Torsional Free Energy           =  +1.49 kcal/mol
DOCKED: USER    (4) Unbound System's Energy         =  -1.17 kcal/mol
DOCKED: USER
DOCKED: USER
DOCKED: REMARK  5 active torsions:
DOCKED: REMARK  status: ('A' for Active; 'I' for Inactive)
DOCKED: REMARK    1  A    between atoms: C_2  and  C_19 
DOCKED: REMARK    2  A    between atoms: C_2  and  C_11 
DOCKED: REMARK    3  A    between atoms: C_19  and  C_20 
DOCKED: REMARK    4  A    between atoms: C_20  and  C_21 
DOCKED: REMARK    5  A    between atoms: C_21  and  N_22 
DOCKED: USER                              x       y       z     vdW  Elec       q    Type
DOCKED: USER                           _______ _______ _______ _____ _____    ______ ____
DOCKED: ROOT
DOCKED: ATOM      1  O   UNL     1     -38.009 -13.936  10.472 -0.06 -0.00    -0.346 OA 
DOCKED: ATOM      2  C   UNL     1     -39.432 -13.844  10.804 -0.14 +0.00    +0.130 C  
DOCKED: ATOM      3  C   UNL     1     -39.985 -15.176  10.388 -0.22 +0.00    +0.004 A  
DOCKED: ATOM      4  C   UNL     1     -38.952 -15.997   9.959 -0.27 +0.00    +0.006 A  
DOCKED: ATOM      5  C   UNL     1     -37.662 -15.282  10.072 -0.11 +0.00    +0.169 C  
DOCKED: ATOM      6  C   UNL     1     -41.296 -15.628  10.400 -0.22 -0.00    -0.001 A  
DOCKED: ATOM      7  C   UNL     1     -39.192 -17.290   9.525 -0.33 +0.00    +0.008 A  
DOCKED: ATOM      8  C   UNL     1     -41.556 -16.928   9.961 -0.23 +0.00    +0.010 A  
DOCKED: ATOM      9  C   UNL     1     -40.509 -17.754   9.526 -0.26 +0.00    +0.068 A  
DOCKED: ATOM     10  N   UNL     1     -41.023 -20.163   8.723 -2.56 -0.00    -0.191 NA 
DOCKED: ATOM     11  C   UNL     1     -40.793 -19.083   9.082 -0.36 +0.00    +0.101 C  
DOCKED: ENDROOT
DOCKED: BRANCH   2  12
DOCKED: ATOM     12  C   UNL     1     -39.562 -13.588  12.301 -0.05 +0.00    +0.038 C  
DOCKED: BRANCH  12  13
DOCKED: ATOM     13  C   UNL     1     -39.899 -14.871  13.058 -0.04 +0.00    +0.038 C  
DOCKED: BRANCH  13  14
DOCKED: ATOM     14  C   UNL     1     -38.996 -15.043  14.278 -0.00 +0.00    +0.251 C  
DOCKED: BRANCH  14  15
DOCKED: ATOM     15  N   UNL     1     -37.772 -14.269  14.116 -0.01 +0.00    +0.141 N  
DOCKED: ATOM     16  C   UNL     1     -37.482 -13.501  15.328 -0.00 +0.00    +0.285 C  
DOCKED: ATOM     17  C   UNL     1     -36.646 -15.146  13.790 -0.01 +0.00    +0.285 C  
DOCKED: ENDBRANCH  14  15
DOCKED: ENDBRANCH  13  14
DOCKED: ENDBRANCH  12  13
DOCKED: ENDBRANCH   2  12
DOCKED: BRANCH   2  18
DOCKED: ATOM     18  C   UNL     1     -39.991 -12.709  10.014 -0.17 +0.00    +0.006 A  
DOCKED: ATOM     19  C   UNL     1     -39.134 -11.833   9.349 -0.13 +0.00    +0.001 A  
DOCKED: ATOM     20  C   UNL     1     -39.659 -10.772   8.610 -0.15 +0.00    +0.029 A  
DOCKED: ATOM     21  C   UNL     1     -41.039 -10.589   8.537 -0.12 +0.00    +0.140 A  
DOCKED: ATOM     22  C   UNL     1     -41.896 -11.465   9.202 -0.14 +0.00    +0.029 A  
DOCKED: ATOM     23  F   UNL     1     -41.543  -9.571   7.826 -0.02 -0.00    -0.204 F  
DOCKED: ATOM     24  C   UNL     1     -41.372 -12.526   9.942 -0.21 +0.00    +0.001 A  
DOCKED: ENDBRANCH   2  18
DOCKED: TORSDOF 5
DOCKED: TER
DOCKED: ENDMDL
________________________________________________________________________________


    FINAL DOCKED STATE:
    ________________________


Run:   400 / 512
Time taken for this run:   0.002s

DOCKED: MODEL        400
DOCKED: USER    Run = 400
DOCKED: USER
DOCKED: USER    Estimated Free Energy of Binding    =  -4.09 kcal/mol  [=(1)+(2)+(3)-(4)]
DOCKED: USER
DOCKED: USER    (1) Final Intermolecular Energy     =  -5.58 kcal/mol
DOCKED: USER        vdW + Hbond + desolv Energy     =  -5.58 kcal/mol
DOCKED: USER        Electrostatic Energy            =  +0.00 kcal/mol
DOCKED: USER        Moving Ligand-Fixed Receptor    =  -5.58 kcal/mol
DOCKED: USER        Moving Ligand-Moving Receptor   =  +0.00 kcal/mol
DOCKED: USER    (2) Final Total Internal Energy     =  -1.31 kcal/mol
DOCKED: USER    (3) Torsional Free Energy           =  +1.49 kcal/mol
DOCKED: USER    (4) Unbound System's Energy         =  -1.31 kcal/mol
DOCKED: USER
DOCKED: USER
DOCKED: REMARK  5 active torsions:
DOCKED: REMARK  status: ('A' for Active; 'I' for Inactive)
DOCKED: REMARK    1  A    between atoms: C_2  and  C_19 
DOCKED: REMARK    2  A    between atoms: C_2  and  C_11 
DOCKED: REMARK    3  A    between atoms: C_19  and  C_20 
DOCKED: REMARK    4  A    between atoms: C_20  and  C_21 
DOCKED: REMARK    5  A    between atoms: C_21  and  N_22 
DOCKED: USER                              x       y       z     vdW  Elec       q    Type
DOCKED: USER                           _______ _______ _______ _____ _____    ______ ____
DOCKED: ROOT
DOCKED: ATOM      1  O   UNL     1     -36.565 -15.634  11.731 -0.06 -0.00    -0.346 OA 
DOCKED: ATOM      2  C   UNL     1     -37.772 -14.904  11.340 -0.12 +0.00    +0.130 C  
DOCKED: ATOM      3  C   UNL     1     -38.636 -15.954  10.704 -0.21 +0.00    +0.004 A  
DOCKED: ATOM      4  C   UNL     1     -38.026 -17.195  10.821 -0.24 +0.00    +0.006 A  
DOCKED: ATOM      5  C   UNL     1     -36.741 -17.057  11.542 -0.14 +0.00    +0.169 C  
DOCKED: ATOM      6  C   UNL     1     -39.869 -15.823  10.082 -0.26 -0.00    -0.001 A  
DOCKED: ATOM      7  C   UNL     1     -38.621 -18.340  10.319 -0.33 +0.00    +0.008 A  
DOCKED: ATOM      8  C   UNL     1     -40.480 -16.967   9.568 -0.28 +0.00    +0.010 A  
DOCKED: ATOM      9  C   UNL     1     -39.859 -18.220   9.687 -0.29 +0.00    +0.068 A  
DOCKED: ATOM     10  N   UNL     1     -41.022 -20.326   8.725 -2.55 -0.00    -0.191 NA 
DOCKED: ATOM     11  C   UNL     1     -40.500 -19.381   9.156 -0.36 +0.00    +0.101 C  
DOCKED: ENDROOT
DOCKED: BRANCH   2  12
DOCKED: ATOM     12  C   UNL     1     -38.396 -14.298  12.591 -0.04 +0.00    +0.038 C  
DOCKED: BRANCH  12  13
DOCKED: ATOM     13  C   UNL     1     -37.503 -14.501  13.814 -0.02 +0.00    +0.038 C  
DOCKED: BRANCH  13  14
DOCKED: ATOM     14  C   UNL     1     -36.346 -13.504  13.821 -0.00 +0.00    +0.251 C  
DOCKED: BRANCH  14  15
DOCKED: ATOM     15  N   UNL     1     -35.337 -13.905  14.793 -0.00 +0.00    +0.141 N  
DOCKED: ATOM     16  C   UNL     1     -35.967 -14.451  15.996 -0.00 +0.00    +0.285 C  
DOCKED: ATOM     17  C   UNL     1     -34.421 -14.887  14.210 -0.00 +0.00    +0.285 C  
DOCKED: ENDBRANCH  14  15
DOCKED: ENDBRANCH  13  14
DOCKED: ENDBRANCH  12  13
DOCKED: ENDBRANCH   2  12
DOCKED: BRANCH   2  18
DOCKED: ATOM     18  C   UNL     1     -37.347 -13.841  10.382 -0.14 +0.00    +0.006 A  
DOCKED: ATOM     19  C   UNL     1     -36.437 -14.140   9.369 -0.13 +0.00    +0.001 A  
DOCKED: ATOM     20  C   UNL     1     -36.041 -13.145   8.474 -0.14 +0.00    +0.029 A  
DOCKED: ATOM     21  C   UNL     1     -36.556 -11.855   8.593 -0.07 +0.00    +0.140 A  
DOCKED: ATOM     22  C   UNL     1     -37.466 -11.557   9.606 -0.07 +0.00    +0.029 A  
DOCKED: ATOM     23  F   UNL     1     -36.177 -10.901   7.732 -0.01 -0.00    -0.204 F  
DOCKED: ATOM     24  C   UNL     1     -37.863 -12.551  10.502 -0.09 +0.00    +0.001 A  
DOCKED: ENDBRANCH   2  18
DOCKED: TORSDOF 5
DOCKED: TER
DOCKED: ENDMDL
________________________________________________________________________________


    FINAL DOCKED STATE:
    ________________________


Run:   401 / 512
Time taken for this run:   0.002s

DOCKED: MODEL        401
DOCKED: USER    Run = 401
DOCKED: USER
DOCKED: USER    Estimated Free Energy of Binding    =  -3.69 kcal/mol  [=(1)+(2)+(3)-(4)]
DOCKED: USER
DOCKED: USER    (1) Final Intermolecular Energy     =  -5.18 kcal/mol
DOCKED: USER        vdW + Hbond + desolv Energy     =  -5.18 kcal/mol
DOCKED: USER        Electrostatic Energy            =  +0.00 kcal/mol
DOCKED: USER        Moving Ligand-Fixed Receptor    =  -5.18 kcal/mol
DOCKED: USER        Moving Ligand-Moving Receptor   =  +0.00 kcal/mol
DOCKED: USER    (2) Final Total Internal Energy     =  -1.41 kcal/mol
DOCKED: USER    (3) Torsional Free Energy           =  +1.49 kcal/mol
DOCKED: USER    (4) Unbound System's Energy         =  -1.41 kcal/mol
DOCKED: USER
DOCKED: USER
DOCKED: REMARK  5 active torsions:
DOCKED: REMARK  status: ('A' for Active; 'I' for Inactive)
DOCKED: REMARK    1  A    between atoms: C_2  and  C_19 
DOCKED: REMARK    2  A    between atoms: C_2  and  C_11 
DOCKED: REMARK    3  A    between atoms: C_19  and  C_20 
DOCKED: REMARK    4  A    between atoms: C_20  and  C_21 
DOCKED: REMARK    5  A    between atoms: C_21  and  N_22 
DOCKED: USER                              x       y       z     vdW  Elec       q    Type
DOCKED: USER                           _______ _______ _______ _____ _____    ______ ____
DOCKED: ROOT
DOCKED: ATOM      1  O   UNL     1     -31.634 -17.693   1.880 -0.02 -0.00    -0.346 OA 
DOCKED: ATOM      2  C   UNL     1     -31.440 -16.729   2.963 -0.08 +0.00    +0.130 C  
DOCKED: ATOM      3  C   UNL     1     -31.879 -17.473   4.191 -0.12 +0.00    +0.004 A  
DOCKED: ATOM      4  C   UNL     1     -32.192 -18.783   3.855 -0.18 +0.00    +0.006 A  
DOCKED: ATOM      5  C   UNL     1     -31.972 -18.997   2.407 -0.05 +0.00    +0.169 C  
DOCKED: ATOM      6  C   UNL     1     -31.983 -17.031   5.501 -0.12 -0.00    -0.001 A  
DOCKED: ATOM      7  C   UNL     1     -32.620 -19.689   4.810 -0.31 +0.00    +0.008 A  
DOCKED: ATOM      8  C   UNL     1     -32.417 -17.931   6.475 -0.22 +0.00    +0.010 A  
DOCKED: ATOM      9  C   UNL     1     -32.734 -19.254   6.131 -0.31 +0.00    +0.068 A  
DOCKED: ATOM     10  N   UNL     1     -33.533 -20.901   7.965 -2.66 -0.00    -0.191 NA 
DOCKED: ATOM     11  C   UNL     1     -33.175 -20.162   7.142 -0.33 +0.00    +0.101 C  
DOCKED: ENDROOT
DOCKED: BRANCH   2  12
DOCKED: ATOM     12  C   UNL     1     -29.968 -16.337   3.002 -0.02 +0.00    +0.038 C  
DOCKED: BRANCH  12  13
DOCKED: ATOM     13  C   UNL     1     -29.418 -16.095   1.598 -0.01 +0.00    +0.038 C  
DOCKED: BRANCH  13  14
DOCKED: ATOM     14  C   UNL     1     -28.887 -14.670   1.453 +0.00 +0.00    +0.251 C  
DOCKED: BRANCH  14  15
DOCKED: ATOM     15  N   UNL     1     -29.989 -13.715   1.450 -0.00 +0.00    +0.141 N  
DOCKED: ATOM     16  C   UNL     1     -29.608 -12.485   2.145 -0.00 +0.00    +0.285 C  
DOCKED: ATOM     17  C   UNL     1     -30.407 -13.415   0.080 +0.00 +0.00    +0.285 C  
DOCKED: ENDBRANCH  14  15
DOCKED: ENDBRANCH  13  14
DOCKED: ENDBRANCH  12  13
DOCKED: ENDBRANCH   2  12
DOCKED: BRANCH   2  18
DOCKED: ATOM     18  C   UNL     1     -32.303 -15.550   2.659 -0.11 +0.00    +0.006 A  
DOCKED: ATOM     19  C   UNL     1     -32.443 -14.528   3.597 -0.07 +0.00    +0.001 A  
DOCKED: ATOM     20  C   UNL     1     -33.251 -13.426   3.310 -0.07 +0.00    +0.029 A  
DOCKED: ATOM     21  C   UNL     1     -33.916 -13.348   2.088 -0.13 +0.00    +0.140 A  
DOCKED: ATOM     22  C   UNL     1     -33.775 -14.371   1.150 -0.20 +0.00    +0.029 A  
DOCKED: ATOM     23  F   UNL     1     -34.690 -12.290   1.813 -0.05 -0.00    -0.204 F  
DOCKED: ATOM     24  C   UNL     1     -32.968 -15.474   1.435 -0.13 +0.00    +0.001 A  
DOCKED: ENDBRANCH   2  18
DOCKED: TORSDOF 5
DOCKED: TER
DOCKED: ENDMDL
________________________________________________________________________________


    FINAL DOCKED STATE:
    ________________________


Run:   402 / 512
Time taken for this run:   0.002s

DOCKED: MODEL        402
DOCKED: USER    Run = 402
DOCKED: USER
DOCKED: USER    Estimated Free Energy of Binding    =  -4.52 kcal/mol  [=(1)+(2)+(3)-(4)]
DOCKED: USER
DOCKED: USER    (1) Final Intermolecular Energy     =  -6.01 kcal/mol
DOCKED: USER        vdW + Hbond + desolv Energy     =  -6.01 kcal/mol
DOCKED: USER        Electrostatic Energy            =  +0.00 kcal/mol
DOCKED: USER        Moving Ligand-Fixed Receptor    =  -6.01 kcal/mol
DOCKED: USER        Moving Ligand-Moving Receptor   =  +0.00 kcal/mol
DOCKED: USER    (2) Final Total Internal Energy     =  -1.42 kcal/mol
DOCKED: USER    (3) Torsional Free Energy           =  +1.49 kcal/mol
DOCKED: USER    (4) Unbound System's Energy         =  -1.42 kcal/mol
DOCKED: USER
DOCKED: USER
DOCKED: REMARK  5 active torsions:
DOCKED: REMARK  status: ('A' for Active; 'I' for Inactive)
DOCKED: REMARK    1  A    between atoms: C_2  and  C_19 
DOCKED: REMARK    2  A    between atoms: C_2  and  C_11 
DOCKED: REMARK    3  A    between atoms: C_19  and  C_20 
DOCKED: REMARK    4  A    between atoms: C_20  and  C_21 
DOCKED: REMARK    5  A    between atoms: C_21  and  N_22 
DOCKED: USER                              x       y       z     vdW  Elec       q    Type
DOCKED: USER                           _______ _______ _______ _____ _____    ______ ____
DOCKED: ROOT
DOCKED: ATOM      1  O   UNL     1     -35.060 -11.064   2.872 -0.02 -0.00    -0.346 OA 
DOCKED: ATOM      2  C   UNL     1     -36.341 -10.620   3.423 -0.22 +0.00    +0.130 C  
DOCKED: ATOM      3  C   UNL     1     -36.878  -9.687   2.376 -0.25 +0.00    +0.004 A  
DOCKED: ATOM      4  C   UNL     1     -36.033  -9.684   1.275 -0.25 +0.00    +0.006 A  
DOCKED: ATOM      5  C   UNL     1     -34.902 -10.610   1.507 -0.15 +0.00    +0.169 C  
DOCKED: ATOM      6  C   UNL     1     -38.029  -8.913   2.392 -0.08 -0.00    -0.001 A  
DOCKED: ATOM      7  C   UNL     1     -36.304  -8.908   0.161 +0.06 +0.00    +0.008 A  
DOCKED: ATOM      8  C   UNL     1     -38.314  -8.121   1.278 -0.32 +0.00    +0.010 A  
DOCKED: ATOM      9  C   UNL     1     -37.456  -8.120   0.168 -0.24 +0.00    +0.068 A  
DOCKED: ATOM     10  N   UNL     1     -38.017  -6.643  -1.886 -2.38 -0.00    -0.191 NA 
DOCKED: ATOM     11  C   UNL     1     -37.765  -7.305  -0.964 -0.27 +0.00    +0.101 C  
DOCKED: ENDROOT
DOCKED: BRANCH   2  12
DOCKED: ATOM     12  C   UNL     1     -37.224 -11.844   3.637 -0.23 +0.00    +0.038 C  
DOCKED: BRANCH  12  13
DOCKED: ATOM     13  C   UNL     1     -36.903 -12.537   4.959 -0.14 +0.00    +0.038 C  
DOCKED: BRANCH  13  14
DOCKED: ATOM     14  C   UNL     1     -36.104 -13.818   4.728 -0.21 +0.00    +0.251 C  
DOCKED: BRANCH  14  15
DOCKED: ATOM     15  N   UNL     1     -34.743 -13.498   4.312 -0.12 +0.00    +0.141 N  
DOCKED: ATOM     16  C   UNL     1     -33.907 -13.192   5.473 -0.04 +0.00    +0.285 C  
DOCKED: ATOM     17  C   UNL     1     -34.165 -14.604   3.547 -0.14 +0.00    +0.285 C  
DOCKED: ENDBRANCH  14  15
DOCKED: ENDBRANCH  13  14
DOCKED: ENDBRANCH  12  13
DOCKED: ENDBRANCH   2  12
DOCKED: BRANCH   2  18
DOCKED: ATOM     18  C   UNL     1     -36.046  -9.936   4.715 -0.19 +0.00    +0.006 A  
DOCKED: ATOM     19  C   UNL     1     -37.073  -9.317   5.426 -0.24 +0.00    +0.001 A  
DOCKED: ATOM     20  C   UNL     1     -36.796  -8.677   6.635 -0.19 +0.00    +0.029 A  
DOCKED: ATOM     21  C   UNL     1     -35.494  -8.657   7.131 -0.11 +0.00    +0.140 A  
DOCKED: ATOM     22  C   UNL     1     -34.466  -9.277   6.419 -0.12 +0.00    +0.029 A  
DOCKED: ATOM     23  F   UNL     1     -35.228  -8.045   8.292 -0.04 -0.00    -0.204 F  
DOCKED: ATOM     24  C   UNL     1     -34.743  -9.917   5.210 -0.13 +0.00    +0.001 A  
DOCKED: ENDBRANCH   2  18
DOCKED: TORSDOF 5
DOCKED: TER
DOCKED: ENDMDL
________________________________________________________________________________


    FINAL DOCKED STATE:
    ________________________


Run:   403 / 512
Time taken for this run:   0.002s

DOCKED: MODEL        403
DOCKED: USER    Run = 403
DOCKED: USER
DOCKED: USER    Estimated Free Energy of Binding    =  -4.19 kcal/mol  [=(1)+(2)+(3)-(4)]
DOCKED: USER
DOCKED: USER    (1) Final Intermolecular Energy     =  -5.68 kcal/mol
DOCKED: USER        vdW + Hbond + desolv Energy     =  -5.68 kcal/mol
DOCKED: USER        Electrostatic Energy            =  +0.00 kcal/mol
DOCKED: USER        Moving Ligand-Fixed Receptor    =  -5.68 kcal/mol
DOCKED: USER        Moving Ligand-Moving Receptor   =  +0.00 kcal/mol
DOCKED: USER    (2) Final Total Internal Energy     =  -1.07 kcal/mol
DOCKED: USER    (3) Torsional Free Energy           =  +1.49 kcal/mol
DOCKED: USER    (4) Unbound System's Energy         =  -1.07 kcal/mol
DOCKED: USER
DOCKED: USER
DOCKED: REMARK  5 active torsions:
DOCKED: REMARK  status: ('A' for Active; 'I' for Inactive)
DOCKED: REMARK    1  A    between atoms: C_2  and  C_19 
DOCKED: REMARK    2  A    between atoms: C_2  and  C_11 
DOCKED: REMARK    3  A    between atoms: C_19  and  C_20 
DOCKED: REMARK    4  A    between atoms: C_20  and  C_21 
DOCKED: REMARK    5  A    between atoms: C_21  and  N_22 
DOCKED: USER                              x       y       z     vdW  Elec       q    Type
DOCKED: USER                           _______ _______ _______ _____ _____    ______ ____
DOCKED: ROOT
DOCKED: ATOM      1  O   UNL     1     -42.449 -14.134  11.411 -0.03 -0.00    -0.346 OA 
DOCKED: ATOM      2  C   UNL     1     -41.105 -14.009  10.845 -0.17 +0.00    +0.130 C  
DOCKED: ATOM      3  C   UNL     1     -40.805 -15.386  10.325 -0.23 +0.00    +0.004 A  
DOCKED: ATOM      4  C   UNL     1     -41.921 -16.196  10.480 -0.21 +0.00    +0.006 A  
DOCKED: ATOM      5  C   UNL     1     -43.024 -15.422  11.092 -0.14 +0.00    +0.169 C  
DOCKED: ATOM      6  C   UNL     1     -39.643 -15.878   9.750 -0.27 -0.00    -0.001 A  
DOCKED: ATOM      7  C   UNL     1     -41.912 -17.519  10.072 -0.23 +0.00    +0.008 A  
DOCKED: ATOM      8  C   UNL     1     -39.617 -17.211   9.338 -0.34 +0.00    +0.010 A  
DOCKED: ATOM      9  C   UNL     1     -40.746 -18.027   9.498 -0.26 +0.00    +0.068 A  
DOCKED: ATOM     10  N   UNL     1     -40.666 -20.497   8.718 -2.61 -0.00    -0.191 NA 
DOCKED: ATOM     11  C   UNL     1     -40.702 -19.389   9.069 -0.37 +0.00    +0.101 C  
DOCKED: ENDROOT
DOCKED: BRANCH   2  12
DOCKED: ATOM     12  C   UNL     1     -41.140 -12.954   9.746 -0.20 +0.00    +0.038 C  
DOCKED: BRANCH  12  13
DOCKED: ATOM     13  C   UNL     1     -42.565 -12.472   9.482 -0.13 +0.00    +0.038 C  
DOCKED: BRANCH  13  14
DOCKED: ATOM     14  C   UNL     1     -42.721 -10.996   9.844 -0.09 +0.00    +0.251 C  
DOCKED: BRANCH  14  15
DOCKED: ATOM     15  N   UNL     1     -42.266 -10.153   8.744 -0.12 +0.00    +0.141 N  
DOCKED: ATOM     16  C   UNL     1     -43.328  -9.238   8.323 -0.10 +0.00    +0.285 C  
DOCKED: ATOM     17  C   UNL     1     -41.071  -9.401   9.131 -0.04 +0.00    +0.285 C  
DOCKED: ENDBRANCH  14  15
DOCKED: ENDBRANCH  13  14
DOCKED: ENDBRANCH  12  13
DOCKED: ENDBRANCH   2  12
DOCKED: BRANCH   2  18
DOCKED: ATOM     18  C   UNL     1     -40.199 -13.599  11.958 -0.06 +0.00    +0.006 A  
DOCKED: ATOM     19  C   UNL     1     -39.673 -14.560  12.819 -0.03 +0.00    +0.001 A  
DOCKED: ATOM     20  C   UNL     1     -38.826 -14.175  13.859 -0.01 +0.00    +0.029 A  
DOCKED: ATOM     21  C   UNL     1     -38.507 -12.829  14.036 -0.00 +0.00    +0.140 A  
DOCKED: ATOM     22  C   UNL     1     -39.033 -11.868  13.174 -0.01 +0.00    +0.029 A  
DOCKED: ATOM     23  F   UNL     1     -37.692 -12.460  15.033 +0.00 -0.00    -0.204 F  
DOCKED: ATOM     24  C   UNL     1     -39.881 -12.252  12.133 -0.03 +0.00    +0.001 A  
DOCKED: ENDBRANCH   2  18
DOCKED: TORSDOF 5
DOCKED: TER
DOCKED: ENDMDL
________________________________________________________________________________


    FINAL DOCKED STATE:
    ________________________


Run:   404 / 512
Time taken for this run:   0.002s

DOCKED: MODEL        404
DOCKED: USER    Run = 404
DOCKED: USER
DOCKED: USER    Estimated Free Energy of Binding    =  -4.23 kcal/mol  [=(1)+(2)+(3)-(4)]
DOCKED: USER
DOCKED: USER    (1) Final Intermolecular Energy     =  -5.72 kcal/mol
DOCKED: USER        vdW + Hbond + desolv Energy     =  -5.72 kcal/mol
DOCKED: USER        Electrostatic Energy            =  +0.00 kcal/mol
DOCKED: USER        Moving Ligand-Fixed Receptor    =  -5.72 kcal/mol
DOCKED: USER        Moving Ligand-Moving Receptor   =  +0.00 kcal/mol
DOCKED: USER    (2) Final Total Internal Energy     =  -1.41 kcal/mol
DOCKED: USER    (3) Torsional Free Energy           =  +1.49 kcal/mol
DOCKED: USER    (4) Unbound System's Energy         =  -1.41 kcal/mol
DOCKED: USER
DOCKED: USER
DOCKED: REMARK  5 active torsions:
DOCKED: REMARK  status: ('A' for Active; 'I' for Inactive)
DOCKED: REMARK    1  A    between atoms: C_2  and  C_19 
DOCKED: REMARK    2  A    between atoms: C_2  and  C_11 
DOCKED: REMARK    3  A    between atoms: C_19  and  C_20 
DOCKED: REMARK    4  A    between atoms: C_20  and  C_21 
DOCKED: REMARK    5  A    between atoms: C_21  and  N_22 
DOCKED: USER                              x       y       z     vdW  Elec       q    Type
DOCKED: USER                           _______ _______ _______ _____ _____    ______ ____
DOCKED: ROOT
DOCKED: ATOM      1  O   UNL     1     -37.979 -14.377  11.273 -0.03 -0.00    -0.346 OA 
DOCKED: ATOM      2  C   UNL     1     -39.432 -14.219  11.203 -0.11 +0.00    +0.130 C  
DOCKED: ATOM      3  C   UNL     1     -39.910 -15.526  10.641 -0.20 +0.00    +0.004 A  
DOCKED: ATOM      4  C   UNL     1     -38.837 -16.396  10.505 -0.25 +0.00    +0.006 A  
DOCKED: ATOM      5  C   UNL     1     -37.596 -15.739  10.972 -0.15 +0.00    +0.169 C  
DOCKED: ATOM      6  C   UNL     1     -41.193 -15.919  10.289 -0.22 -0.00    -0.001 A  
DOCKED: ATOM      7  C   UNL     1     -39.007 -17.678  10.011 -0.32 +0.00    +0.008 A  
DOCKED: ATOM      8  C   UNL     1     -41.380 -17.207   9.785 -0.24 +0.00    +0.010 A  
DOCKED: ATOM      9  C   UNL     1     -40.292 -18.082   9.648 -0.27 +0.00    +0.068 A  
DOCKED: ATOM     10  N   UNL     1     -40.675 -20.469   8.714 -2.59 -0.00    -0.191 NA 
DOCKED: ATOM     11  C   UNL     1     -40.503 -19.398   9.132 -0.36 +0.00    +0.101 C  
DOCKED: ENDROOT
DOCKED: BRANCH   2  12
DOCKED: ATOM     12  C   UNL     1     -39.956 -13.951  12.609 -0.04 +0.00    +0.038 C  
DOCKED: BRANCH  12  13
DOCKED: ATOM     13  C   UNL     1     -38.937 -14.361  13.671 -0.02 +0.00    +0.038 C  
DOCKED: BRANCH  13  14
DOCKED: ATOM     14  C   UNL     1     -38.193 -13.144  14.217 -0.00 +0.00    +0.251 C  
DOCKED: BRANCH  14  15
DOCKED: ATOM     15  N   UNL     1     -38.606 -11.937  13.510 -0.00 +0.00    +0.141 N  
DOCKED: ATOM     16  C   UNL     1     -39.218 -10.982  14.434 +0.00 +0.00    +0.285 C  
DOCKED: ATOM     17  C   UNL     1     -37.465 -11.324  12.827 -0.00 +0.00    +0.285 C  
DOCKED: ENDBRANCH  14  15
DOCKED: ENDBRANCH  13  14
DOCKED: ENDBRANCH  12  13
DOCKED: ENDBRANCH   2  12
DOCKED: BRANCH   2  18
DOCKED: ATOM     18  C   UNL     1     -39.703 -13.063  10.299 -0.16 +0.00    +0.006 A  
DOCKED: ATOM     19  C   UNL     1     -38.642 -12.378   9.708 -0.13 +0.00    +0.001 A  
DOCKED: ATOM     20  C   UNL     1     -38.896 -11.297   8.862 -0.12 +0.00    +0.029 A  
DOCKED: ATOM     21  C   UNL     1     -40.209 -10.904   8.609 -0.12 +0.00    +0.140 A  
DOCKED: ATOM     22  C   UNL     1     -41.270 -11.590   9.200 -0.14 +0.00    +0.029 A  
DOCKED: ATOM     23  F   UNL     1     -40.453  -9.868   7.796 -0.03 -0.00    -0.204 F  
DOCKED: ATOM     24  C   UNL     1     -41.017 -12.671  10.046 -0.20 +0.00    +0.001 A  
DOCKED: ENDBRANCH   2  18
DOCKED: TORSDOF 5
DOCKED: TER
DOCKED: ENDMDL
________________________________________________________________________________


    FINAL DOCKED STATE:
    ________________________


Run:   405 / 512
Time taken for this run:   0.002s

DOCKED: MODEL        405
DOCKED: USER    Run = 405
DOCKED: USER
DOCKED: USER    Estimated Free Energy of Binding    =  -4.82 kcal/mol  [=(1)+(2)+(3)-(4)]
DOCKED: USER
DOCKED: USER    (1) Final Intermolecular Energy     =  -6.31 kcal/mol
DOCKED: USER        vdW + Hbond + desolv Energy     =  -6.31 kcal/mol
DOCKED: USER        Electrostatic Energy            =  +0.00 kcal/mol
DOCKED: USER        Moving Ligand-Fixed Receptor    =  -6.31 kcal/mol
DOCKED: USER        Moving Ligand-Moving Receptor   =  +0.00 kcal/mol
DOCKED: USER    (2) Final Total Internal Energy     =  -1.38 kcal/mol
DOCKED: USER    (3) Torsional Free Energy           =  +1.49 kcal/mol
DOCKED: USER    (4) Unbound System's Energy         =  -1.38 kcal/mol
DOCKED: USER
DOCKED: USER
DOCKED: REMARK  5 active torsions:
DOCKED: REMARK  status: ('A' for Active; 'I' for Inactive)
DOCKED: REMARK    1  A    between atoms: C_2  and  C_19 
DOCKED: REMARK    2  A    between atoms: C_2  and  C_11 
DOCKED: REMARK    3  A    between atoms: C_19  and  C_20 
DOCKED: REMARK    4  A    between atoms: C_20  and  C_21 
DOCKED: REMARK    5  A    between atoms: C_21  and  N_22 
DOCKED: USER                              x       y       z     vdW  Elec       q    Type
DOCKED: USER                           _______ _______ _______ _____ _____    ______ ____
DOCKED: ROOT
DOCKED: ATOM      1  O   UNL     1     -34.578 -10.799   2.754 -0.01 -0.00    -0.346 OA 
DOCKED: ATOM      2  C   UNL     1     -35.915 -10.551   3.296 -0.19 +0.00    +0.130 C  
DOCKED: ATOM      3  C   UNL     1     -36.558  -9.660   2.272 -0.29 +0.00    +0.004 A  
DOCKED: ATOM      4  C   UNL     1     -35.705  -9.502   1.189 -0.25 +0.00    +0.006 A  
DOCKED: ATOM      5  C   UNL     1     -34.464 -10.277   1.410 -0.12 +0.00    +0.169 C  
DOCKED: ATOM      6  C   UNL     1     -37.802  -9.047   2.294 -0.10 -0.00    -0.001 A  
DOCKED: ATOM      7  C   UNL     1     -36.062  -8.729   0.098 -0.19 +0.00    +0.008 A  
DOCKED: ATOM      8  C   UNL     1     -38.175  -8.259   1.203 -0.36 +0.00    +0.010 A  
DOCKED: ATOM      9  C   UNL     1     -37.309  -8.102   0.110 -0.25 +0.00    +0.068 A  
DOCKED: ATOM     10  N   UNL     1     -38.035  -6.638  -1.901 -2.43 -0.00    -0.191 NA 
DOCKED: ATOM     11  C   UNL     1     -37.709  -7.294  -0.998 -0.31 +0.00    +0.101 C  
DOCKED: ENDROOT
DOCKED: BRANCH   2  12
DOCKED: ATOM     12  C   UNL     1     -36.629 -11.888   3.451 -0.24 +0.00    +0.038 C  
DOCKED: BRANCH  12  13
DOCKED: ATOM     13  C   UNL     1     -35.680 -12.970   3.965 -0.21 +0.00    +0.038 C  
DOCKED: BRANCH  13  14
DOCKED: ATOM     14  C   UNL     1     -36.216 -13.606   5.246 -0.14 +0.00    +0.251 C  
DOCKED: BRANCH  14  15
DOCKED: ATOM     15  N   UNL     1     -35.164 -13.680   6.253 -0.13 +0.00    +0.141 N  
DOCKED: ATOM     16  C   UNL     1     -34.016 -12.861   5.861 -0.03 +0.00    +0.285 C  
DOCKED: ATOM     17  C   UNL     1     -35.670 -13.252   7.559 -0.10 +0.00    +0.285 C  
DOCKED: ENDBRANCH  14  15
DOCKED: ENDBRANCH  13  14
DOCKED: ENDBRANCH  12  13
DOCKED: ENDBRANCH   2  12
DOCKED: BRANCH   2  18
DOCKED: ATOM     18  C   UNL     1     -35.732  -9.882   4.617 -0.18 +0.00    +0.006 A  
DOCKED: ATOM     19  C   UNL     1     -34.455  -9.521   5.045 -0.14 +0.00    +0.001 A  
DOCKED: ATOM     20  C   UNL     1     -34.286  -8.896   6.281 -0.11 +0.00    +0.029 A  
DOCKED: ATOM     21  C   UNL     1     -35.393  -8.632   7.086 -0.10 +0.00    +0.140 A  
DOCKED: ATOM     22  C   UNL     1     -36.670  -8.992   6.657 -0.18 +0.00    +0.029 A  
DOCKED: ATOM     23  F   UNL     1     -35.230  -8.030   8.272 -0.04 -0.00    -0.204 F  
DOCKED: ATOM     24  C   UNL     1     -36.840  -9.618   5.421 -0.22 +0.00    +0.001 A  
DOCKED: ENDBRANCH   2  18
DOCKED: TORSDOF 5
DOCKED: TER
DOCKED: ENDMDL
________________________________________________________________________________


    FINAL DOCKED STATE:
    ________________________


Run:   406 / 512
Time taken for this run:   0.002s

DOCKED: MODEL        406
DOCKED: USER    Run = 406
DOCKED: USER
DOCKED: USER    Estimated Free Energy of Binding    =  -3.67 kcal/mol  [=(1)+(2)+(3)-(4)]
DOCKED: USER
DOCKED: USER    (1) Final Intermolecular Energy     =  -5.16 kcal/mol
DOCKED: USER        vdW + Hbond + desolv Energy     =  -5.16 kcal/mol
DOCKED: USER        Electrostatic Energy            =  +0.00 kcal/mol
DOCKED: USER        Moving Ligand-Fixed Receptor    =  -5.16 kcal/mol
DOCKED: USER        Moving Ligand-Moving Receptor   =  +0.00 kcal/mol
DOCKED: USER    (2) Final Total Internal Energy     =  -1.57 kcal/mol
DOCKED: USER    (3) Torsional Free Energy           =  +1.49 kcal/mol
DOCKED: USER    (4) Unbound System's Energy         =  -1.57 kcal/mol
DOCKED: USER
DOCKED: USER
DOCKED: REMARK  5 active torsions:
DOCKED: REMARK  status: ('A' for Active; 'I' for Inactive)
DOCKED: REMARK    1  A    between atoms: C_2  and  C_19 
DOCKED: REMARK    2  A    between atoms: C_2  and  C_11 
DOCKED: REMARK    3  A    between atoms: C_19  and  C_20 
DOCKED: REMARK    4  A    between atoms: C_20  and  C_21 
DOCKED: REMARK    5  A    between atoms: C_21  and  N_22 
DOCKED: USER                              x       y       z     vdW  Elec       q    Type
DOCKED: USER                           _______ _______ _______ _____ _____    ______ ____
DOCKED: ROOT
DOCKED: ATOM      1  O   UNL     1     -34.924 -14.647   4.799 -0.07 -0.00    -0.346 OA 
DOCKED: ATOM      2  C   UNL     1     -33.755 -14.536   5.673 -0.12 +0.00    +0.130 C  
DOCKED: ATOM      3  C   UNL     1     -33.468 -15.955   6.072 -0.20 +0.00    +0.004 A  
DOCKED: ATOM      4  C   UNL     1     -34.328 -16.812   5.398 -0.28 +0.00    +0.006 A  
DOCKED: ATOM      5  C   UNL     1     -35.220 -16.033   4.511 -0.24 +0.00    +0.169 C  
DOCKED: ATOM      6  C   UNL     1     -32.516 -16.449   6.951 -0.16 -0.00    -0.001 A  
DOCKED: ATOM      7  C   UNL     1     -34.269 -18.183   5.582 -0.20 +0.00    +0.008 A  
DOCKED: ATOM      8  C   UNL     1     -32.447 -17.829   7.151 -0.22 +0.00    +0.010 A  
DOCKED: ATOM      9  C   UNL     1     -33.319 -18.691   6.469 -0.24 +0.00    +0.068 A  
DOCKED: ATOM     10  N   UNL     1     -33.160 -21.247   6.859 -2.14 -0.00    -0.191 NA 
DOCKED: ATOM     11  C   UNL     1     -33.232 -20.101   6.685 -0.40 +0.00    +0.101 C  
DOCKED: ENDROOT
DOCKED: BRANCH   2  12
DOCKED: ATOM     12  C   UNL     1     -32.618 -13.901   4.880 -0.05 +0.00    +0.038 C  
DOCKED: BRANCH  12  13
DOCKED: ATOM     13  C   UNL     1     -33.141 -13.167   3.648 -0.06 +0.00    +0.038 C  
DOCKED: BRANCH  13  14
DOCKED: ATOM     14  C   UNL     1     -33.609 -11.757   4.005 -0.02 +0.00    +0.251 C  
DOCKED: BRANCH  14  15
DOCKED: ATOM     15  N   UNL     1     -34.971 -11.540   3.533 -0.08 +0.00    +0.141 N  
DOCKED: ATOM     16  C   UNL     1     -35.359 -12.579   2.578 -0.11 +0.00    +0.285 C  
DOCKED: ATOM     17  C   UNL     1     -35.908 -11.509   4.658 -0.09 +0.00    +0.285 C  
DOCKED: ENDBRANCH  14  15
DOCKED: ENDBRANCH  13  14
DOCKED: ENDBRANCH  12  13
DOCKED: ENDBRANCH   2  12
DOCKED: BRANCH   2  18
DOCKED: ATOM     18  C   UNL     1     -34.152 -13.677   6.827 -0.11 +0.00    +0.006 A  
DOCKED: ATOM     19  C   UNL     1     -33.212 -12.841   7.429 -0.04 +0.00    +0.001 A  
DOCKED: ATOM     20  C   UNL     1     -33.585 -12.039   8.508 -0.03 +0.00    +0.029 A  
DOCKED: ATOM     21  C   UNL     1     -34.896 -12.072   8.982 -0.04 +0.00    +0.140 A  
DOCKED: ATOM     22  C   UNL     1     -35.835 -12.908   8.378 -0.12 +0.00    +0.029 A  
DOCKED: ATOM     23  F   UNL     1     -35.254 -11.300  10.016 +0.00 -0.00    -0.204 F  
DOCKED: ATOM     24  C   UNL     1     -35.463 -13.711   7.300 -0.15 +0.00    +0.001 A  
DOCKED: ENDBRANCH   2  18
DOCKED: TORSDOF 5
DOCKED: TER
DOCKED: ENDMDL
________________________________________________________________________________


    FINAL DOCKED STATE:
    ________________________


Run:   407 / 512
Time taken for this run:   0.002s

DOCKED: MODEL        407
DOCKED: USER    Run = 407
DOCKED: USER
DOCKED: USER    Estimated Free Energy of Binding    =  -4.82 kcal/mol  [=(1)+(2)+(3)-(4)]
DOCKED: USER
DOCKED: USER    (1) Final Intermolecular Energy     =  -6.31 kcal/mol
DOCKED: USER        vdW + Hbond + desolv Energy     =  -6.31 kcal/mol
DOCKED: USER        Electrostatic Energy            =  +0.00 kcal/mol
DOCKED: USER        Moving Ligand-Fixed Receptor    =  -6.31 kcal/mol
DOCKED: USER        Moving Ligand-Moving Receptor   =  +0.00 kcal/mol
DOCKED: USER    (2) Final Total Internal Energy     =  -1.15 kcal/mol
DOCKED: USER    (3) Torsional Free Energy           =  +1.49 kcal/mol
DOCKED: USER    (4) Unbound System's Energy         =  -1.15 kcal/mol
DOCKED: USER
DOCKED: USER
DOCKED: REMARK  5 active torsions:
DOCKED: REMARK  status: ('A' for Active; 'I' for Inactive)
DOCKED: REMARK    1  A    between atoms: C_2  and  C_19 
DOCKED: REMARK    2  A    between atoms: C_2  and  C_11 
DOCKED: REMARK    3  A    between atoms: C_19  and  C_20 
DOCKED: REMARK    4  A    between atoms: C_20  and  C_21 
DOCKED: REMARK    5  A    between atoms: C_21  and  N_22 
DOCKED: USER                              x       y       z     vdW  Elec       q    Type
DOCKED: USER                           _______ _______ _______ _____ _____    ______ ____
DOCKED: ROOT
DOCKED: ATOM      1  O   UNL     1     -37.245 -10.315   4.605 -0.09 -0.00    -0.346 OA 
DOCKED: ATOM      2  C   UNL     1     -35.928 -10.246   3.969 -0.18 +0.00    +0.130 C  
DOCKED: ATOM      3  C   UNL     1     -36.196  -9.562   2.660 -0.26 +0.00    +0.004 A  
DOCKED: ATOM      4  C   UNL     1     -37.527  -9.174   2.600 -0.22 +0.00    +0.006 A  
DOCKED: ATOM      5  C   UNL     1     -38.219  -9.556   3.851 -0.10 +0.00    +0.169 C  
DOCKED: ATOM      6  C   UNL     1     -35.328  -9.294   1.611 -0.22 -0.00    -0.001 A  
DOCKED: ATOM      7  C   UNL     1     -38.035  -8.512   1.495 -0.31 +0.00    +0.008 A  
DOCKED: ATOM      8  C   UNL     1     -35.827  -8.632   0.488 -0.27 +0.00    +0.010 A  
DOCKED: ATOM      9  C   UNL     1     -37.173  -8.243   0.430 -0.26 +0.00    +0.068 A  
DOCKED: ATOM     10  N   UNL     1     -38.065  -7.011  -1.667 -2.43 -0.00    -0.191 NA 
DOCKED: ATOM     11  C   UNL     1     -37.665  -7.564  -0.727 -0.33 +0.00    +0.101 C  
DOCKED: ENDROOT
DOCKED: BRANCH   2  12
DOCKED: ATOM     12  C   UNL     1     -34.996  -9.451   4.875 -0.17 +0.00    +0.038 C  
DOCKED: BRANCH  12  13
DOCKED: ATOM     13  C   UNL     1     -33.534  -9.644   4.476 -0.10 +0.00    +0.038 C  
DOCKED: BRANCH  13  14
DOCKED: ATOM     14  C   UNL     1     -32.777  -8.317   4.503 -0.09 +0.00    +0.251 C  
DOCKED: BRANCH  14  15
DOCKED: ATOM     15  N   UNL     1     -32.225  -8.021   3.186 -0.07 +0.00    +0.141 N  
DOCKED: ATOM     16  C   UNL     1     -32.075  -9.248   2.402 -0.02 +0.00    +0.285 C  
DOCKED: ATOM     17  C   UNL     1     -33.074  -7.064   2.475 -0.10 +0.00    +0.285 C  
DOCKED: ENDBRANCH  14  15
DOCKED: ENDBRANCH  13  14
DOCKED: ENDBRANCH  12  13
DOCKED: ENDBRANCH   2  12
DOCKED: BRANCH   2  18
DOCKED: ATOM     18  C   UNL     1     -35.450 -11.651   3.804 -0.14 +0.00    +0.006 A  
DOCKED: ATOM     19  C   UNL     1     -35.733 -12.602   4.783 -0.16 +0.00    +0.001 A  
DOCKED: ATOM     20  C   UNL     1     -35.285 -13.915   4.628 -0.22 +0.00    +0.029 A  
DOCKED: ATOM     21  C   UNL     1     -34.557 -14.273   3.495 -0.17 +0.00    +0.140 A  
DOCKED: ATOM     22  C   UNL     1     -34.275 -13.321   2.516 -0.16 +0.00    +0.029 A  
DOCKED: ATOM     23  F   UNL     1     -34.129 -15.534   3.345 -0.08 -0.00    -0.204 F  
DOCKED: ATOM     24  C   UNL     1     -34.722 -12.008   2.670 -0.14 +0.00    +0.001 A  
DOCKED: ENDBRANCH   2  18
DOCKED: TORSDOF 5
DOCKED: TER
DOCKED: ENDMDL
________________________________________________________________________________


    FINAL DOCKED STATE:
    ________________________


Run:   408 / 512
Time taken for this run:   0.002s

DOCKED: MODEL        408
DOCKED: USER    Run = 408
DOCKED: USER
DOCKED: USER    Estimated Free Energy of Binding    =  -4.00 kcal/mol  [=(1)+(2)+(3)-(4)]
DOCKED: USER
DOCKED: USER    (1) Final Intermolecular Energy     =  -5.49 kcal/mol
DOCKED: USER        vdW + Hbond + desolv Energy     =  -5.49 kcal/mol
DOCKED: USER        Electrostatic Energy            =  +0.00 kcal/mol
DOCKED: USER        Moving Ligand-Fixed Receptor    =  -5.49 kcal/mol
DOCKED: USER        Moving Ligand-Moving Receptor   =  +0.00 kcal/mol
DOCKED: USER    (2) Final Total Internal Energy     =  -1.38 kcal/mol
DOCKED: USER    (3) Torsional Free Energy           =  +1.49 kcal/mol
DOCKED: USER    (4) Unbound System's Energy         =  -1.38 kcal/mol
DOCKED: USER
DOCKED: USER
DOCKED: REMARK  5 active torsions:
DOCKED: REMARK  status: ('A' for Active; 'I' for Inactive)
DOCKED: REMARK    1  A    between atoms: C_2  and  C_19 
DOCKED: REMARK    2  A    between atoms: C_2  and  C_11 
DOCKED: REMARK    3  A    between atoms: C_19  and  C_20 
DOCKED: REMARK    4  A    between atoms: C_20  and  C_21 
DOCKED: REMARK    5  A    between atoms: C_21  and  N_22 
DOCKED: USER                              x       y       z     vdW  Elec       q    Type
DOCKED: USER                           _______ _______ _______ _____ _____    ______ ____
DOCKED: ROOT
DOCKED: ATOM      1  O   UNL     1     -30.260 -16.945   2.271 +0.01 -0.00    -0.346 OA 
DOCKED: ATOM      2  C   UNL     1     -31.319 -16.122   2.857 -0.06 +0.00    +0.130 C  
DOCKED: ATOM      3  C   UNL     1     -31.962 -17.029   3.866 -0.11 +0.00    +0.004 A  
DOCKED: ATOM      4  C   UNL     1     -31.264 -18.226   3.930 -0.10 +0.00    +0.006 A  
DOCKED: ATOM      5  C   UNL     1     -30.119 -18.191   2.992 -0.03 +0.00    +0.169 C  
DOCKED: ATOM      6  C   UNL     1     -33.071 -16.807   4.670 -0.21 -0.00    -0.001 A  
DOCKED: ATOM      7  C   UNL     1     -31.648 -19.239   4.792 -0.18 +0.00    +0.008 A  
DOCKED: ATOM      8  C   UNL     1     -33.473 -17.820   5.542 -0.31 +0.00    +0.010 A  
DOCKED: ATOM      9  C   UNL     1     -32.765 -19.030   5.602 -0.28 +0.00    +0.068 A  
DOCKED: ATOM     10  N   UNL     1     -33.537 -20.888   7.235 -2.56 -0.00    -0.191 NA 
DOCKED: ATOM     11  C   UNL     1     -33.191 -20.055   6.502 -0.42 +0.00    +0.101 C  
DOCKED: ENDROOT
DOCKED: BRANCH   2  12
DOCKED: ATOM     12  C   UNL     1     -30.680 -14.891   3.488 -0.02 +0.00    +0.038 C  
DOCKED: BRANCH  12  13
DOCKED: ATOM     13  C   UNL     1     -29.849 -15.262   4.714 -0.01 +0.00    +0.038 C  
DOCKED: BRANCH  13  14
DOCKED: ATOM     14  C   UNL     1     -30.558 -14.851   6.003 -0.01 +0.00    +0.251 C  
DOCKED: BRANCH  14  15
DOCKED: ATOM     15  N   UNL     1     -30.116 -15.686   7.114 -0.02 +0.00    +0.141 N  
DOCKED: ATOM     16  C   UNL     1     -31.111 -15.685   8.188 -0.03 +0.00    +0.285 C  
DOCKED: ATOM     17  C   UNL     1     -29.860 -17.054   6.660 -0.01 +0.00    +0.285 C  
DOCKED: ENDBRANCH  14  15
DOCKED: ENDBRANCH  13  14
DOCKED: ENDBRANCH  12  13
DOCKED: ENDBRANCH   2  12
DOCKED: BRANCH   2  18
DOCKED: ATOM     18  C   UNL     1     -32.240 -15.741   1.746 -0.12 +0.00    +0.006 A  
DOCKED: ATOM     19  C   UNL     1     -33.208 -14.759   1.950 -0.16 +0.00    +0.001 A  
DOCKED: ATOM     20  C   UNL     1     -34.069 -14.403   0.911 -0.20 +0.00    +0.029 A  
DOCKED: ATOM     21  C   UNL     1     -33.961 -15.030  -0.329 -0.20 +0.00    +0.140 A  
DOCKED: ATOM     22  C   UNL     1     -32.992 -16.013  -0.533 -0.19 +0.00    +0.029 A  
DOCKED: ATOM     23  F   UNL     1     -34.786 -14.688  -1.327 -0.14 -0.00    -0.204 F  
DOCKED: ATOM     24  C   UNL     1     -32.131 -16.369   0.506 -0.14 +0.00    +0.001 A  
DOCKED: ENDBRANCH   2  18
DOCKED: TORSDOF 5
DOCKED: TER
DOCKED: ENDMDL
________________________________________________________________________________


    FINAL DOCKED STATE:
    ________________________


Run:   409 / 512
Time taken for this run:   0.002s

DOCKED: MODEL        409
DOCKED: USER    Run = 409
DOCKED: USER
DOCKED: USER    Estimated Free Energy of Binding    =  -3.95 kcal/mol  [=(1)+(2)+(3)-(4)]
DOCKED: USER
DOCKED: USER    (1) Final Intermolecular Energy     =  -5.44 kcal/mol
DOCKED: USER        vdW + Hbond + desolv Energy     =  -5.44 kcal/mol
DOCKED: USER        Electrostatic Energy            =  +0.00 kcal/mol
DOCKED: USER        Moving Ligand-Fixed Receptor    =  -5.44 kcal/mol
DOCKED: USER        Moving Ligand-Moving Receptor   =  +0.00 kcal/mol
DOCKED: USER    (2) Final Total Internal Energy     =  -1.08 kcal/mol
DOCKED: USER    (3) Torsional Free Energy           =  +1.49 kcal/mol
DOCKED: USER    (4) Unbound System's Energy         =  -1.08 kcal/mol
DOCKED: USER
DOCKED: USER
DOCKED: REMARK  5 active torsions:
DOCKED: REMARK  status: ('A' for Active; 'I' for Inactive)
DOCKED: REMARK    1  A    between atoms: C_2  and  C_19 
DOCKED: REMARK    2  A    between atoms: C_2  and  C_11 
DOCKED: REMARK    3  A    between atoms: C_19  and  C_20 
DOCKED: REMARK    4  A    between atoms: C_20  and  C_21 
DOCKED: REMARK    5  A    between atoms: C_21  and  N_22 
DOCKED: USER                              x       y       z     vdW  Elec       q    Type
DOCKED: USER                           _______ _______ _______ _____ _____    ______ ____
DOCKED: ROOT
DOCKED: ATOM      1  O   UNL     1     -37.151 -14.810  11.237 -0.06 -0.00    -0.346 OA 
DOCKED: ATOM      2  C   UNL     1     -36.698 -16.048  11.873 -0.13 +0.00    +0.130 C  
DOCKED: ATOM      3  C   UNL     1     -37.583 -17.104  11.276 -0.22 +0.00    +0.004 A  
DOCKED: ATOM      4  C   UNL     1     -38.395 -16.537  10.303 -0.25 +0.00    +0.006 A  
DOCKED: ATOM      5  C   UNL     1     -38.099 -15.092  10.181 -0.19 +0.00    +0.169 C  
DOCKED: ATOM      6  C   UNL     1     -37.656 -18.459  11.562 -0.17 -0.00    -0.001 A  
DOCKED: ATOM      7  C   UNL     1     -39.305 -17.299   9.591 -0.33 +0.00    +0.008 A  
DOCKED: ATOM      8  C   UNL     1     -38.572 -19.240  10.855 -0.36 +0.00    +0.010 A  
DOCKED: ATOM      9  C   UNL     1     -39.392 -18.662   9.874 -0.32 +0.00    +0.068 A  
DOCKED: ATOM     10  N   UNL     1     -41.078 -20.142   8.577 -2.38 -0.00    -0.191 NA 
DOCKED: ATOM     11  C   UNL     1     -40.322 -19.478   9.159 -0.30 +0.00    +0.101 C  
DOCKED: ENDROOT
DOCKED: BRANCH   2  12
DOCKED: ATOM     12  C   UNL     1     -35.225 -16.251  11.540 -0.12 +0.00    +0.038 C  
DOCKED: BRANCH  12  13
DOCKED: ATOM     13  C   UNL     1     -34.807 -17.709  11.726 -0.20 +0.00    +0.038 C  
DOCKED: BRANCH  13  14
DOCKED: ATOM     14  C   UNL     1     -33.309 -17.820  12.001 -0.11 +0.00    +0.251 C  
DOCKED: BRANCH  14  15
DOCKED: ATOM     15  N   UNL     1     -33.074 -18.189  13.392 -0.09 +0.00    +0.141 N  
DOCKED: ATOM     16  C   UNL     1     -32.157 -17.243  14.029 -0.01 +0.00    +0.285 C  
DOCKED: ATOM     17  C   UNL     1     -34.337 -18.246  14.130 -0.06 +0.00    +0.285 C  
DOCKED: ENDBRANCH  14  15
DOCKED: ENDBRANCH  13  14
DOCKED: ENDBRANCH  12  13
DOCKED: ENDBRANCH   2  12
DOCKED: BRANCH   2  18
DOCKED: ATOM     18  C   UNL     1     -36.900 -15.883  13.342 -0.06 +0.00    +0.006 A  
DOCKED: ATOM     19  C   UNL     1     -35.930 -15.240  14.111 -0.02 +0.00    +0.001 A  
DOCKED: ATOM     20  C   UNL     1     -36.120 -15.086  15.484 -0.01 +0.00    +0.029 A  
DOCKED: ATOM     21  C   UNL     1     -37.278 -15.575  16.087 -0.00 +0.00    +0.140 A  
DOCKED: ATOM     22  C   UNL     1     -38.248 -16.218  15.318 -0.02 +0.00    +0.029 A  
DOCKED: ATOM     23  F   UNL     1     -37.461 -15.426  17.406 -0.00 -0.00    -0.204 F  
DOCKED: ATOM     24  C   UNL     1     -38.059 -16.372  13.944 -0.05 +0.00    +0.001 A  
DOCKED: ENDBRANCH   2  18
DOCKED: TORSDOF 5
DOCKED: TER
DOCKED: ENDMDL
________________________________________________________________________________


    FINAL DOCKED STATE:
    ________________________


Run:   410 / 512
Time taken for this run:   0.002s

DOCKED: MODEL        410
DOCKED: USER    Run = 410
DOCKED: USER
DOCKED: USER    Estimated Free Energy of Binding    =  -4.47 kcal/mol  [=(1)+(2)+(3)-(4)]
DOCKED: USER
DOCKED: USER    (1) Final Intermolecular Energy     =  -5.97 kcal/mol
DOCKED: USER        vdW + Hbond + desolv Energy     =  -5.97 kcal/mol
DOCKED: USER        Electrostatic Energy            =  +0.00 kcal/mol
DOCKED: USER        Moving Ligand-Fixed Receptor    =  -5.97 kcal/mol
DOCKED: USER        Moving Ligand-Moving Receptor   =  +0.00 kcal/mol
DOCKED: USER    (2) Final Total Internal Energy     =  -1.25 kcal/mol
DOCKED: USER    (3) Torsional Free Energy           =  +1.49 kcal/mol
DOCKED: USER    (4) Unbound System's Energy         =  -1.25 kcal/mol
DOCKED: USER
DOCKED: USER
DOCKED: REMARK  5 active torsions:
DOCKED: REMARK  status: ('A' for Active; 'I' for Inactive)
DOCKED: REMARK    1  A    between atoms: C_2  and  C_19 
DOCKED: REMARK    2  A    between atoms: C_2  and  C_11 
DOCKED: REMARK    3  A    between atoms: C_19  and  C_20 
DOCKED: REMARK    4  A    between atoms: C_20  and  C_21 
DOCKED: REMARK    5  A    between atoms: C_21  and  N_22 
DOCKED: USER                              x       y       z     vdW  Elec       q    Type
DOCKED: USER                           _______ _______ _______ _____ _____    ______ ____
DOCKED: ROOT
DOCKED: ATOM      1  O   UNL     1     -38.280 -14.009  10.467 -0.06 -0.00    -0.346 OA 
DOCKED: ATOM      2  C   UNL     1     -39.638 -14.062  11.010 -0.13 +0.00    +0.130 C  
DOCKED: ATOM      3  C   UNL     1     -40.143 -15.410  10.582 -0.21 +0.00    +0.004 A  
DOCKED: ATOM      4  C   UNL     1     -39.128 -16.110   9.947 -0.28 +0.00    +0.006 A  
DOCKED: ATOM      5  C   UNL     1     -37.894 -15.292   9.921 -0.12 +0.00    +0.169 C  
DOCKED: ATOM      6  C   UNL     1     -41.399 -15.975  10.752 -0.19 -0.00    -0.001 A  
DOCKED: ATOM      7  C   UNL     1     -39.330 -17.389   9.458 -0.34 +0.00    +0.008 A  
DOCKED: ATOM      8  C   UNL     1     -41.620 -17.263  10.261 -0.21 +0.00    +0.010 A  
DOCKED: ATOM      9  C   UNL     1     -40.591 -17.966   9.618 -0.25 +0.00    +0.068 A  
DOCKED: ATOM     10  N   UNL     1     -41.034 -20.357   8.722 -2.55 -0.00    -0.191 NA 
DOCKED: ATOM     11  C   UNL     1     -40.836 -19.284   9.123 -0.36 +0.00    +0.101 C  
DOCKED: ENDROOT
DOCKED: BRANCH   2  12
DOCKED: ATOM     12  C   UNL     1     -39.558 -13.912  12.524 -0.04 +0.00    +0.038 C  
DOCKED: BRANCH  12  13
DOCKED: ATOM     13  C   UNL     1     -39.455 -15.271  13.214 -0.04 +0.00    +0.038 C  
DOCKED: BRANCH  13  14
DOCKED: ATOM     14  C   UNL     1     -38.011 -15.580  13.606 -0.02 +0.00    +0.251 C  
DOCKED: BRANCH  14  15
DOCKED: ATOM     15  N   UNL     1     -37.406 -16.488  12.638 -0.08 +0.00    +0.141 N  
DOCKED: ATOM     16  C   UNL     1     -35.961 -16.270  12.558 -0.08 +0.00    +0.285 C  
DOCKED: ATOM     17  C   UNL     1     -37.690 -17.880  12.991 -0.08 +0.00    +0.285 C  
DOCKED: ENDBRANCH  14  15
DOCKED: ENDBRANCH  13  14
DOCKED: ENDBRANCH  12  13
DOCKED: ENDBRANCH   2  12
DOCKED: BRANCH   2  18
DOCKED: ATOM     18  C   UNL     1     -40.398 -12.934  10.396 -0.17 +0.00    +0.006 A  
DOCKED: ATOM     19  C   UNL     1     -39.758 -11.722  10.138 -0.12 +0.00    +0.001 A  
DOCKED: ATOM     20  C   UNL     1     -40.470 -10.668   9.565 -0.11 +0.00    +0.029 A  
DOCKED: ATOM     21  C   UNL     1     -41.819 -10.827   9.249 -0.12 +0.00    +0.140 A  
DOCKED: ATOM     22  C   UNL     1     -42.457 -12.040   9.507 -0.15 +0.00    +0.029 A  
DOCKED: ATOM     23  F   UNL     1     -42.501  -9.816   8.697 -0.02 -0.00    -0.204 F  
DOCKED: ATOM     24  C   UNL     1     -41.746 -13.095  10.081 -0.22 +0.00    +0.001 A  
DOCKED: ENDBRANCH   2  18
DOCKED: TORSDOF 5
DOCKED: TER
DOCKED: ENDMDL
________________________________________________________________________________


    FINAL DOCKED STATE:
    ________________________


Run:   411 / 512
Time taken for this run:   0.002s

DOCKED: MODEL        411
DOCKED: USER    Run = 411
DOCKED: USER
DOCKED: USER    Estimated Free Energy of Binding    =  -4.49 kcal/mol  [=(1)+(2)+(3)-(4)]
DOCKED: USER
DOCKED: USER    (1) Final Intermolecular Energy     =  -5.98 kcal/mol
DOCKED: USER        vdW + Hbond + desolv Energy     =  -5.98 kcal/mol
DOCKED: USER        Electrostatic Energy            =  +0.00 kcal/mol
DOCKED: USER        Moving Ligand-Fixed Receptor    =  -5.98 kcal/mol
DOCKED: USER        Moving Ligand-Moving Receptor   =  +0.00 kcal/mol
DOCKED: USER    (2) Final Total Internal Energy     =  -1.16 kcal/mol
DOCKED: USER    (3) Torsional Free Energy           =  +1.49 kcal/mol
DOCKED: USER    (4) Unbound System's Energy         =  -1.16 kcal/mol
DOCKED: USER
DOCKED: USER
DOCKED: REMARK  5 active torsions:
DOCKED: REMARK  status: ('A' for Active; 'I' for Inactive)
DOCKED: REMARK    1  A    between atoms: C_2  and  C_19 
DOCKED: REMARK    2  A    between atoms: C_2  and  C_11 
DOCKED: REMARK    3  A    between atoms: C_19  and  C_20 
DOCKED: REMARK    4  A    between atoms: C_20  and  C_21 
DOCKED: REMARK    5  A    between atoms: C_21  and  N_22 
DOCKED: USER                              x       y       z     vdW  Elec       q    Type
DOCKED: USER                           _______ _______ _______ _____ _____    ______ ____
DOCKED: ROOT
DOCKED: ATOM      1  O   UNL     1     -40.386 -16.132  12.024 -0.01 -0.00    -0.346 OA 
DOCKED: ATOM      2  C   UNL     1     -39.250 -17.042  11.875 -0.12 +0.00    +0.130 C  
DOCKED: ATOM      3  C   UNL     1     -39.476 -17.684  10.537 -0.26 +0.00    +0.004 A  
DOCKED: ATOM      4  C   UNL     1     -40.582 -17.111   9.925 -0.26 +0.00    +0.006 A  
DOCKED: ATOM      5  C   UNL     1     -41.149 -16.058  10.797 -0.15 +0.00    +0.169 C  
DOCKED: ATOM      6  C   UNL     1     -38.753 -18.686   9.907 -0.37 -0.00    -0.001 A  
DOCKED: ATOM      7  C   UNL     1     -41.005 -17.521   8.672 -0.14 +0.00    +0.008 A  
DOCKED: ATOM      8  C   UNL     1     -39.169 -19.113   8.645 -0.32 +0.00    +0.010 A  
DOCKED: ATOM      9  C   UNL     1     -40.289 -18.532   8.031 -0.40 +0.00    +0.068 A  
DOCKED: ATOM     10  N   UNL     1     -41.032 -19.345   5.685 -2.05 -0.00    -0.191 NA 
DOCKED: ATOM     11  C   UNL     1     -40.700 -18.981   6.737 -0.51 +0.00    +0.101 C  
DOCKED: ENDROOT
DOCKED: BRANCH   2  12
DOCKED: ATOM     12  C   UNL     1     -37.965 -16.223  11.932 -0.15 +0.00    +0.038 C  
DOCKED: BRANCH  12  13
DOCKED: ATOM     13  C   UNL     1     -37.980 -15.093  10.905 -0.18 +0.00    +0.038 C  
DOCKED: BRANCH  13  14
DOCKED: ATOM     14  C   UNL     1     -38.171 -13.737  11.582 -0.05 +0.00    +0.251 C  
DOCKED: BRANCH  14  15
DOCKED: ATOM     15  N   UNL     1     -38.833 -12.806  10.676 -0.08 +0.00    +0.141 N  
DOCKED: ATOM     16  C   UNL     1     -39.055 -11.517  11.333 -0.02 +0.00    +0.285 C  
DOCKED: ATOM     17  C   UNL     1     -38.044 -12.625   9.456 -0.08 +0.00    +0.285 C  
DOCKED: ENDBRANCH  14  15
DOCKED: ENDBRANCH  13  14
DOCKED: ENDBRANCH  12  13
DOCKED: ENDBRANCH   2  12
DOCKED: BRANCH   2  18
DOCKED: ATOM     18  C   UNL     1     -39.319 -18.014  13.006 -0.13 +0.00    +0.006 A  
DOCKED: ATOM     19  C   UNL     1     -38.268 -18.097  13.918 -0.13 +0.00    +0.001 A  
DOCKED: ATOM     20  C   UNL     1     -38.333 -19.007  14.974 -0.17 +0.00    +0.029 A  
DOCKED: ATOM     21  C   UNL     1     -39.449 -19.830  15.117 -0.15 +0.00    +0.140 A  
DOCKED: ATOM     22  C   UNL     1     -40.500 -19.746  14.204 -0.02 +0.00    +0.029 A  
DOCKED: ATOM     23  F   UNL     1     -39.513 -20.702  16.132 -0.05 -0.00    -0.204 F  
DOCKED: ATOM     24  C   UNL     1     -40.435 -18.837  13.147 -0.17 +0.00    +0.001 A  
DOCKED: ENDBRANCH   2  18
DOCKED: TORSDOF 5
DOCKED: TER
DOCKED: ENDMDL
________________________________________________________________________________


    FINAL DOCKED STATE:
    ________________________


Run:   412 / 512
Time taken for this run:   0.002s

DOCKED: MODEL        412
DOCKED: USER    Run = 412
DOCKED: USER
DOCKED: USER    Estimated Free Energy of Binding    =  -4.47 kcal/mol  [=(1)+(2)+(3)-(4)]
DOCKED: USER
DOCKED: USER    (1) Final Intermolecular Energy     =  -5.96 kcal/mol
DOCKED: USER        vdW + Hbond + desolv Energy     =  -5.96 kcal/mol
DOCKED: USER        Electrostatic Energy            =  +0.00 kcal/mol
DOCKED: USER        Moving Ligand-Fixed Receptor    =  -5.96 kcal/mol
DOCKED: USER        Moving Ligand-Moving Receptor   =  +0.00 kcal/mol
DOCKED: USER    (2) Final Total Internal Energy     =  -1.54 kcal/mol
DOCKED: USER    (3) Torsional Free Energy           =  +1.49 kcal/mol
DOCKED: USER    (4) Unbound System's Energy         =  -1.54 kcal/mol
DOCKED: USER
DOCKED: USER
DOCKED: REMARK  5 active torsions:
DOCKED: REMARK  status: ('A' for Active; 'I' for Inactive)
DOCKED: REMARK    1  A    between atoms: C_2  and  C_19 
DOCKED: REMARK    2  A    between atoms: C_2  and  C_11 
DOCKED: REMARK    3  A    between atoms: C_19  and  C_20 
DOCKED: REMARK    4  A    between atoms: C_20  and  C_21 
DOCKED: REMARK    5  A    between atoms: C_21  and  N_22 
DOCKED: USER                              x       y       z     vdW  Elec       q    Type
DOCKED: USER                           _______ _______ _______ _____ _____    ______ ____
DOCKED: ROOT
DOCKED: ATOM      1  O   UNL     1     -37.058 -10.247   4.544 -0.09 -0.00    -0.346 OA 
DOCKED: ATOM      2  C   UNL     1     -35.736  -9.908   4.015 -0.17 +0.00    +0.130 C  
DOCKED: ATOM      3  C   UNL     1     -36.034  -9.255   2.696 -0.22 +0.00    +0.004 A  
DOCKED: ATOM      4  C   UNL     1     -37.407  -9.131   2.536 -0.21 +0.00    +0.006 A  
DOCKED: ATOM      5  C   UNL     1     -38.103  -9.673   3.724 -0.09 +0.00    +0.169 C  
DOCKED: ATOM      6  C   UNL     1     -35.159  -8.797   1.722 -0.20 -0.00    -0.001 A  
DOCKED: ATOM      7  C   UNL     1     -37.950  -8.552   1.402 -0.31 +0.00    +0.008 A  
DOCKED: ATOM      8  C   UNL     1     -35.692  -8.215   0.570 -0.27 +0.00    +0.010 A  
DOCKED: ATOM      9  C   UNL     1     -37.081  -8.093   0.412 -0.34 +0.00    +0.068 A  
DOCKED: ATOM     10  N   UNL     1     -38.036  -7.003  -1.736 -2.50 -0.00    -0.191 NA 
DOCKED: ATOM     11  C   UNL     1     -37.608  -7.492  -0.773 -0.36 +0.00    +0.101 C  
DOCKED: ENDROOT
DOCKED: BRANCH   2  12
DOCKED: ATOM     12  C   UNL     1     -35.048  -8.971   5.000 -0.12 +0.00    +0.038 C  
DOCKED: BRANCH  12  13
DOCKED: ATOM     13  C   UNL     1     -35.837  -8.853   6.302 -0.18 +0.00    +0.038 C  
DOCKED: BRANCH  13  14
DOCKED: ATOM     14  C   UNL     1     -35.522 -10.015   7.242 -0.06 +0.00    +0.251 C  
DOCKED: BRANCH  14  15
DOCKED: ATOM     15  N   UNL     1     -36.584 -11.012   7.191 -0.07 +0.00    +0.141 N  
DOCKED: ATOM     16  C   UNL     1     -36.023 -12.359   7.073 -0.07 +0.00    +0.285 C  
DOCKED: ATOM     17  C   UNL     1     -37.436 -10.920   8.379 -0.06 +0.00    +0.285 C  
DOCKED: ENDBRANCH  14  15
DOCKED: ENDBRANCH  13  14
DOCKED: ENDBRANCH  12  13
DOCKED: ENDBRANCH   2  12
DOCKED: BRANCH   2  18
DOCKED: ATOM     18  C   UNL     1     -34.982 -11.188   3.873 -0.10 +0.00    +0.006 A  
DOCKED: ATOM     19  C   UNL     1     -35.631 -12.331   3.408 -0.18 +0.00    +0.001 A  
DOCKED: ATOM     20  C   UNL     1     -34.925 -13.527   3.276 -0.18 +0.00    +0.029 A  
DOCKED: ATOM     21  C   UNL     1     -33.572 -13.579   3.608 -0.07 +0.00    +0.140 A  
DOCKED: ATOM     22  C   UNL     1     -32.924 -12.435   4.073 -0.02 +0.00    +0.029 A  
DOCKED: ATOM     23  F   UNL     1     -32.894 -14.726   3.479 -0.02 -0.00    -0.204 F  
DOCKED: ATOM     24  C   UNL     1     -33.629 -11.238   4.206 -0.04 +0.00    +0.001 A  
DOCKED: ENDBRANCH   2  18
DOCKED: TORSDOF 5
DOCKED: TER
DOCKED: ENDMDL
________________________________________________________________________________


    FINAL DOCKED STATE:
    ________________________


Run:   413 / 512
Time taken for this run:   0.002s

DOCKED: MODEL        413
DOCKED: USER    Run = 413
DOCKED: USER
DOCKED: USER    Estimated Free Energy of Binding    =  -3.29 kcal/mol  [=(1)+(2)+(3)-(4)]
DOCKED: USER
DOCKED: USER    (1) Final Intermolecular Energy     =  -4.78 kcal/mol
DOCKED: USER        vdW + Hbond + desolv Energy     =  -4.78 kcal/mol
DOCKED: USER        Electrostatic Energy            =  +0.00 kcal/mol
DOCKED: USER        Moving Ligand-Fixed Receptor    =  -4.78 kcal/mol
DOCKED: USER        Moving Ligand-Moving Receptor   =  +0.00 kcal/mol
DOCKED: USER    (2) Final Total Internal Energy     =  -1.36 kcal/mol
DOCKED: USER    (3) Torsional Free Energy           =  +1.49 kcal/mol
DOCKED: USER    (4) Unbound System's Energy         =  -1.36 kcal/mol
DOCKED: USER
DOCKED: USER
DOCKED: REMARK  5 active torsions:
DOCKED: REMARK  status: ('A' for Active; 'I' for Inactive)
DOCKED: REMARK    1  A    between atoms: C_2  and  C_19 
DOCKED: REMARK    2  A    between atoms: C_2  and  C_11 
DOCKED: REMARK    3  A    between atoms: C_19  and  C_20 
DOCKED: REMARK    4  A    between atoms: C_20  and  C_21 
DOCKED: REMARK    5  A    between atoms: C_21  and  N_22 
DOCKED: USER                              x       y       z     vdW  Elec       q    Type
DOCKED: USER                           _______ _______ _______ _____ _____    ______ ____
DOCKED: ROOT
DOCKED: ATOM      1  O   UNL     1     -32.323  -5.704   1.254 -0.02 -0.00    -0.346 OA 
DOCKED: ATOM      2  C   UNL     1     -32.120  -6.170  -0.118 -0.06 +0.00    +0.130 C  
DOCKED: ATOM      3  C   UNL     1     -33.503  -6.518  -0.588 -0.14 +0.00    +0.004 A  
DOCKED: ATOM      4  C   UNL     1     -34.427  -6.177   0.389 -0.21 +0.00    +0.006 A  
DOCKED: ATOM      5  C   UNL     1     -33.733  -5.577   1.550 -0.19 +0.00    +0.169 C  
DOCKED: ATOM      6  C   UNL     1     -33.911  -7.080  -1.789 -0.16 -0.00    -0.001 A  
DOCKED: ATOM      7  C   UNL     1     -35.783  -6.389   0.204 -0.34 +0.00    +0.008 A  
DOCKED: ATOM      8  C   UNL     1     -35.274  -7.304  -1.989 -0.30 +0.00    +0.010 A  
DOCKED: ATOM      9  C   UNL     1     -36.205  -6.960  -0.998 -0.37 +0.00    +0.068 A  
DOCKED: ATOM     10  N   UNL     1     -38.729  -7.384  -1.404 -2.45 -0.00    -0.191 NA 
DOCKED: ATOM     11  C   UNL     1     -37.597  -7.194  -1.221 -0.31 +0.00    +0.101 C  
DOCKED: ENDROOT
DOCKED: BRANCH   2  12
DOCKED: ATOM     12  C   UNL     1     -31.487  -5.041  -0.922 -0.09 +0.00    +0.038 C  
DOCKED: BRANCH  12  13
DOCKED: ATOM     13  C   UNL     1     -30.023  -4.835  -0.536 -0.03 +0.00    +0.038 C  
DOCKED: BRANCH  13  14
DOCKED: ATOM     14  C   UNL     1     -29.844  -3.554   0.277 -0.00 +0.00    +0.251 C  
DOCKED: BRANCH  14  15
DOCKED: ATOM     15  N   UNL     1     -30.829  -3.493   1.350 -0.02 +0.00    +0.141 N  
DOCKED: ATOM     16  C   UNL     1     -30.182  -3.199   2.629 -0.00 +0.00    +0.285 C  
DOCKED: ATOM     17  C   UNL     1     -31.850  -2.486   1.055 -0.03 +0.00    +0.285 C  
DOCKED: ENDBRANCH  14  15
DOCKED: ENDBRANCH  13  14
DOCKED: ENDBRANCH  12  13
DOCKED: ENDBRANCH   2  12
DOCKED: BRANCH   2  18
DOCKED: ATOM     18  C   UNL     1     -31.215  -7.354  -0.048 -0.02 +0.00    +0.006 A  
DOCKED: ATOM     19  C   UNL     1     -30.752  -7.948  -1.221 -0.01 +0.00    +0.001 A  
DOCKED: ATOM     20  C   UNL     1     -29.906  -9.055  -1.154 -0.00 +0.00    +0.029 A  
DOCKED: ATOM     21  C   UNL     1     -29.523  -9.567   0.086 -0.00 +0.00    +0.140 A  
DOCKED: ATOM     22  C   UNL     1     -29.987  -8.972   1.259 -0.00 +0.00    +0.029 A  
DOCKED: ATOM     23  F   UNL     1     -28.710 -10.628   0.150 +0.00 -0.00    -0.204 F  
DOCKED: ATOM     24  C   UNL     1     -30.833  -7.864   1.193 -0.01 +0.00    +0.001 A  
DOCKED: ENDBRANCH   2  18
DOCKED: TORSDOF 5
DOCKED: TER
DOCKED: ENDMDL
________________________________________________________________________________


    FINAL DOCKED STATE:
    ________________________


Run:   414 / 512
Time taken for this run:   0.002s

DOCKED: MODEL        414
DOCKED: USER    Run = 414
DOCKED: USER
DOCKED: USER    Estimated Free Energy of Binding    =  -3.61 kcal/mol  [=(1)+(2)+(3)-(4)]
DOCKED: USER
DOCKED: USER    (1) Final Intermolecular Energy     =  -5.10 kcal/mol
DOCKED: USER        vdW + Hbond + desolv Energy     =  -5.10 kcal/mol
DOCKED: USER        Electrostatic Energy            =  +0.00 kcal/mol
DOCKED: USER        Moving Ligand-Fixed Receptor    =  -5.10 kcal/mol
DOCKED: USER        Moving Ligand-Moving Receptor   =  +0.00 kcal/mol
DOCKED: USER    (2) Final Total Internal Energy     =  -1.22 kcal/mol
DOCKED: USER    (3) Torsional Free Energy           =  +1.49 kcal/mol
DOCKED: USER    (4) Unbound System's Energy         =  -1.22 kcal/mol
DOCKED: USER
DOCKED: USER
DOCKED: REMARK  5 active torsions:
DOCKED: REMARK  status: ('A' for Active; 'I' for Inactive)
DOCKED: REMARK    1  A    between atoms: C_2  and  C_19 
DOCKED: REMARK    2  A    between atoms: C_2  and  C_11 
DOCKED: REMARK    3  A    between atoms: C_19  and  C_20 
DOCKED: REMARK    4  A    between atoms: C_20  and  C_21 
DOCKED: REMARK    5  A    between atoms: C_21  and  N_22 
DOCKED: USER                              x       y       z     vdW  Elec       q    Type
DOCKED: USER                           _______ _______ _______ _____ _____    ______ ____
DOCKED: ROOT
DOCKED: ATOM      1  O   UNL     1     -38.341 -15.953  13.557 -0.00 -0.00    -0.346 OA 
DOCKED: ATOM      2  C   UNL     1     -37.886 -15.514  12.237 -0.08 +0.00    +0.130 C  
DOCKED: ATOM      3  C   UNL     1     -38.547 -16.474  11.291 -0.18 +0.00    +0.004 A  
DOCKED: ATOM      4  C   UNL     1     -39.392 -17.318  11.997 -0.13 +0.00    +0.006 A  
DOCKED: ATOM      5  C   UNL     1     -39.360 -16.972  13.435 -0.05 +0.00    +0.169 C  
DOCKED: ATOM      6  C   UNL     1     -38.419 -16.584   9.914 -0.20 -0.00    -0.001 A  
DOCKED: ATOM      7  C   UNL     1     -40.131 -18.298  11.356 -0.19 +0.00    +0.008 A  
DOCKED: ATOM      8  C   UNL     1     -39.154 -17.570   9.254 -0.32 +0.00    +0.010 A  
DOCKED: ATOM      9  C   UNL     1     -40.006 -18.422   9.972 -0.27 +0.00    +0.068 A  
DOCKED: ATOM     10  N   UNL     1     -41.361 -20.239   8.715 -2.35 -0.00    -0.191 NA 
DOCKED: ATOM     11  C   UNL     1     -40.753 -19.424   9.279 -0.31 +0.00    +0.101 C  
DOCKED: ENDROOT
DOCKED: BRANCH   2  12
DOCKED: ATOM     12  C   UNL     1     -38.333 -14.072  12.028 -0.06 +0.00    +0.038 C  
DOCKED: BRANCH  12  13
DOCKED: ATOM     13  C   UNL     1     -39.830 -13.910  12.284 -0.05 +0.00    +0.038 C  
DOCKED: BRANCH  13  14
DOCKED: ATOM     14  C   UNL     1     -40.618 -13.941  10.976 -0.12 +0.00    +0.251 C  
DOCKED: BRANCH  14  15
DOCKED: ATOM     15  N   UNL     1     -41.994 -13.516  11.202 -0.10 +0.00    +0.141 N  
DOCKED: ATOM     16  C   UNL     1     -42.814 -13.772  10.017 -0.13 +0.00    +0.285 C  
DOCKED: ATOM     17  C   UNL     1     -42.559 -14.197  12.368 -0.01 +0.00    +0.285 C  
DOCKED: ENDBRANCH  14  15
DOCKED: ENDBRANCH  13  14
DOCKED: ENDBRANCH  12  13
DOCKED: ENDBRANCH   2  12
DOCKED: BRANCH   2  18
DOCKED: ATOM     18  C   UNL     1     -36.397 -15.622  12.230 -0.10 +0.00    +0.006 A  
DOCKED: ATOM     19  C   UNL     1     -35.790 -16.877  12.249 -0.16 +0.00    +0.001 A  
DOCKED: ATOM     20  C   UNL     1     -34.399 -16.977  12.243 -0.14 +0.00    +0.029 A  
DOCKED: ATOM     21  C   UNL     1     -33.617 -15.824  12.218 -0.05 +0.00    +0.140 A  
DOCKED: ATOM     22  C   UNL     1     -34.225 -14.569  12.199 -0.04 +0.00    +0.029 A  
DOCKED: ATOM     23  F   UNL     1     -32.281 -15.920  12.210 +0.00 -0.00    -0.204 F  
DOCKED: ATOM     24  C   UNL     1     -35.617 -14.467  12.205 -0.06 +0.00    +0.001 A  
DOCKED: ENDBRANCH   2  18
DOCKED: TORSDOF 5
DOCKED: TER
DOCKED: ENDMDL
________________________________________________________________________________


    FINAL DOCKED STATE:
    ________________________


Run:   415 / 512
Time taken for this run:   0.002s

DOCKED: MODEL        415
DOCKED: USER    Run = 415
DOCKED: USER
DOCKED: USER    Estimated Free Energy of Binding    =  -3.94 kcal/mol  [=(1)+(2)+(3)-(4)]
DOCKED: USER
DOCKED: USER    (1) Final Intermolecular Energy     =  -5.43 kcal/mol
DOCKED: USER        vdW + Hbond + desolv Energy     =  -5.43 kcal/mol
DOCKED: USER        Electrostatic Energy            =  +0.00 kcal/mol
DOCKED: USER        Moving Ligand-Fixed Receptor    =  -5.43 kcal/mol
DOCKED: USER        Moving Ligand-Moving Receptor   =  +0.00 kcal/mol
DOCKED: USER    (2) Final Total Internal Energy     =  -1.38 kcal/mol
DOCKED: USER    (3) Torsional Free Energy           =  +1.49 kcal/mol
DOCKED: USER    (4) Unbound System's Energy         =  -1.38 kcal/mol
DOCKED: USER
DOCKED: USER
DOCKED: REMARK  5 active torsions:
DOCKED: REMARK  status: ('A' for Active; 'I' for Inactive)
DOCKED: REMARK    1  A    between atoms: C_2  and  C_19 
DOCKED: REMARK    2  A    between atoms: C_2  and  C_11 
DOCKED: REMARK    3  A    between atoms: C_19  and  C_20 
DOCKED: REMARK    4  A    between atoms: C_20  and  C_21 
DOCKED: REMARK    5  A    between atoms: C_21  and  N_22 
DOCKED: USER                              x       y       z     vdW  Elec       q    Type
DOCKED: USER                           _______ _______ _______ _____ _____    ______ ____
DOCKED: ROOT
DOCKED: ATOM      1  O   UNL     1     -30.383 -15.925   3.350 +0.01 -0.00    -0.346 OA 
DOCKED: ATOM      2  C   UNL     1     -31.747 -15.470   3.622 -0.06 +0.00    +0.130 C  
DOCKED: ATOM      3  C   UNL     1     -32.337 -16.578   4.446 -0.12 +0.00    +0.004 A  
DOCKED: ATOM      4  C   UNL     1     -31.364 -17.530   4.715 -0.09 +0.00    +0.006 A  
DOCKED: ATOM      5  C   UNL     1     -30.078 -17.118   4.109 -0.02 +0.00    +0.169 C  
DOCKED: ATOM      6  C   UNL     1     -33.629 -16.726   4.929 -0.28 -0.00    -0.001 A  
DOCKED: ATOM      7  C   UNL     1     -31.646 -18.657   5.467 -0.16 +0.00    +0.008 A  
DOCKED: ATOM      8  C   UNL     1     -33.931 -17.860   5.685 -0.32 +0.00    +0.010 A  
DOCKED: ATOM      9  C   UNL     1     -32.944 -18.820   5.953 -0.29 +0.00    +0.068 A  
DOCKED: ATOM     10  N   UNL     1     -33.537 -20.911   7.364 -2.59 -0.00    -0.191 NA 
DOCKED: ATOM     11  C   UNL     1     -33.271 -19.974   6.731 -0.37 +0.00    +0.101 C  
DOCKED: ENDROOT
DOCKED: BRANCH   2  12
DOCKED: ATOM     12  C   UNL     1     -31.674 -14.146   4.373 -0.03 +0.00    +0.038 C  
DOCKED: BRANCH  12  13
DOCKED: ATOM     13  C   UNL     1     -30.814 -13.129   3.627 -0.00 +0.00    +0.038 C  
DOCKED: BRANCH  13  14
DOCKED: ATOM     14  C   UNL     1     -29.338 -13.287   3.988 +0.00 +0.00    +0.251 C  
DOCKED: BRANCH  14  15
DOCKED: ATOM     15  N   UNL     1     -28.649 -14.077   2.974 +0.00 +0.00    +0.141 N  
DOCKED: ATOM     16  C   UNL     1     -28.956 -13.575   1.633 -0.00 +0.00    +0.285 C  
DOCKED: ATOM     17  C   UNL     1     -27.204 -14.062   3.203 +0.00 +0.00    +0.285 C  
DOCKED: ENDBRANCH  14  15
DOCKED: ENDBRANCH  13  14
DOCKED: ENDBRANCH  12  13
DOCKED: ENDBRANCH   2  12
DOCKED: BRANCH   2  18
DOCKED: ATOM     18  C   UNL     1     -32.423 -15.304   2.302 -0.12 +0.00    +0.006 A  
DOCKED: ATOM     19  C   UNL     1     -32.058 -16.112   1.226 -0.13 +0.00    +0.001 A  
DOCKED: ATOM     20  C   UNL     1     -32.691 -15.955  -0.008 -0.17 +0.00    +0.029 A  
DOCKED: ATOM     21  C   UNL     1     -33.687 -14.992  -0.163 -0.20 +0.00    +0.140 A  
DOCKED: ATOM     22  C   UNL     1     -34.052 -14.185   0.914 -0.21 +0.00    +0.029 A  
DOCKED: ATOM     23  F   UNL     1     -34.295 -14.843  -1.347 -0.12 -0.00    -0.204 F  
DOCKED: ATOM     24  C   UNL     1     -33.419 -14.340   2.148 -0.16 +0.00    +0.001 A  
DOCKED: ENDBRANCH   2  18
DOCKED: TORSDOF 5
DOCKED: TER
DOCKED: ENDMDL
________________________________________________________________________________


    FINAL DOCKED STATE:
    ________________________


Run:   416 / 512
Time taken for this run:   0.002s

DOCKED: MODEL        416
DOCKED: USER    Run = 416
DOCKED: USER
DOCKED: USER    Estimated Free Energy of Binding    =  -3.80 kcal/mol  [=(1)+(2)+(3)-(4)]
DOCKED: USER
DOCKED: USER    (1) Final Intermolecular Energy     =  -5.29 kcal/mol
DOCKED: USER        vdW + Hbond + desolv Energy     =  -5.29 kcal/mol
DOCKED: USER        Electrostatic Energy            =  +0.00 kcal/mol
DOCKED: USER        Moving Ligand-Fixed Receptor    =  -5.29 kcal/mol
DOCKED: USER        Moving Ligand-Moving Receptor   =  +0.00 kcal/mol
DOCKED: USER    (2) Final Total Internal Energy     =  -1.33 kcal/mol
DOCKED: USER    (3) Torsional Free Energy           =  +1.49 kcal/mol
DOCKED: USER    (4) Unbound System's Energy         =  -1.33 kcal/mol
DOCKED: USER
DOCKED: USER
DOCKED: REMARK  5 active torsions:
DOCKED: REMARK  status: ('A' for Active; 'I' for Inactive)
DOCKED: REMARK    1  A    between atoms: C_2  and  C_19 
DOCKED: REMARK    2  A    between atoms: C_2  and  C_11 
DOCKED: REMARK    3  A    between atoms: C_19  and  C_20 
DOCKED: REMARK    4  A    between atoms: C_20  and  C_21 
DOCKED: REMARK    5  A    between atoms: C_21  and  N_22 
DOCKED: USER                              x       y       z     vdW  Elec       q    Type
DOCKED: USER                           _______ _______ _______ _____ _____    ______ ____
DOCKED: ROOT
DOCKED: ATOM      1  O   UNL     1     -34.719  -9.839   3.881 -0.05 -0.00    -0.346 OA 
DOCKED: ATOM      2  C   UNL     1     -36.070  -9.980   3.336 -0.21 +0.00    +0.130 C  
DOCKED: ATOM      3  C   UNL     1     -36.089  -9.032   2.172 -0.22 +0.00    +0.004 A  
DOCKED: ATOM      4  C   UNL     1     -34.828  -8.479   2.000 -0.15 +0.00    +0.006 A  
DOCKED: ATOM      5  C   UNL     1     -33.897  -9.025   3.013 -0.11 +0.00    +0.169 C  
DOCKED: ATOM      6  C   UNL     1     -37.136  -8.693   1.327 -0.32 -0.00    -0.001 A  
DOCKED: ATOM      7  C   UNL     1     -34.571  -7.572   0.986 -0.19 +0.00    +0.008 A  
DOCKED: ATOM      8  C   UNL     1     -36.894  -7.776   0.303 -0.41 +0.00    +0.010 A  
DOCKED: ATOM      9  C   UNL     1     -35.618  -7.219   0.133 -0.27 +0.00    +0.068 A  
DOCKED: ATOM     10  N   UNL     1     -35.202  -5.524  -1.782 -0.89 -0.00    -0.191 NA 
DOCKED: ATOM     11  C   UNL     1     -35.389  -6.284  -0.923 -0.26 +0.00    +0.101 C  
DOCKED: ENDROOT
DOCKED: BRANCH   2  12
DOCKED: ATOM     12  C   UNL     1     -36.272 -11.433   2.920 -0.21 +0.00    +0.038 C  
DOCKED: BRANCH  12  13
DOCKED: ATOM     13  C   UNL     1     -35.175 -12.332   3.487 -0.16 +0.00    +0.038 C  
DOCKED: BRANCH  13  14
DOCKED: ATOM     14  C   UNL     1     -34.197 -12.760   2.394 -0.11 +0.00    +0.251 C  
DOCKED: BRANCH  14  15
DOCKED: ATOM     15  N   UNL     1     -34.582 -12.180   1.113 -0.17 +0.00    +0.141 N  
DOCKED: ATOM     16  C   UNL     1     -33.475 -11.410   0.543 -0.06 +0.00    +0.285 C  
DOCKED: ATOM     17  C   UNL     1     -35.007 -13.224   0.181 -0.14 +0.00    +0.285 C  
DOCKED: ENDBRANCH  14  15
DOCKED: ENDBRANCH  13  14
DOCKED: ENDBRANCH  12  13
DOCKED: ENDBRANCH   2  12
DOCKED: BRANCH   2  18
DOCKED: ATOM     18  C   UNL     1     -37.020  -9.592   4.418 -0.26 +0.00    +0.006 A  
DOCKED: ATOM     19  C   UNL     1     -38.351  -9.313   4.110 -0.26 +0.00    +0.001 A  
DOCKED: ATOM     20  C   UNL     1     -39.239  -8.950   5.123 -0.29 +0.00    +0.029 A  
DOCKED: ATOM     21  C   UNL     1     -38.796  -8.867   6.442 -0.17 +0.00    +0.140 A  
DOCKED: ATOM     22  C   UNL     1     -37.465  -9.147   6.750 -0.18 +0.00    +0.029 A  
DOCKED: ATOM     23  F   UNL     1     -39.649  -8.520   7.415 -0.00 -0.00    -0.204 F  
DOCKED: ATOM     24  C   UNL     1     -36.576  -9.510   5.737 -0.20 +0.00    +0.001 A  
DOCKED: ENDBRANCH   2  18
DOCKED: TORSDOF 5
DOCKED: TER
DOCKED: ENDMDL
________________________________________________________________________________


    FINAL DOCKED STATE:
    ________________________


Run:   417 / 512
Time taken for this run:   0.002s

DOCKED: MODEL        417
DOCKED: USER    Run = 417
DOCKED: USER
DOCKED: USER    Estimated Free Energy of Binding    =  -4.31 kcal/mol  [=(1)+(2)+(3)-(4)]
DOCKED: USER
DOCKED: USER    (1) Final Intermolecular Energy     =  -5.80 kcal/mol
DOCKED: USER        vdW + Hbond + desolv Energy     =  -5.80 kcal/mol
DOCKED: USER        Electrostatic Energy            =  +0.00 kcal/mol
DOCKED: USER        Moving Ligand-Fixed Receptor    =  -5.80 kcal/mol
DOCKED: USER        Moving Ligand-Moving Receptor   =  +0.00 kcal/mol
DOCKED: USER    (2) Final Total Internal Energy     =  -1.42 kcal/mol
DOCKED: USER    (3) Torsional Free Energy           =  +1.49 kcal/mol
DOCKED: USER    (4) Unbound System's Energy         =  -1.42 kcal/mol
DOCKED: USER
DOCKED: USER
DOCKED: REMARK  5 active torsions:
DOCKED: REMARK  status: ('A' for Active; 'I' for Inactive)
DOCKED: REMARK    1  A    between atoms: C_2  and  C_19 
DOCKED: REMARK    2  A    between atoms: C_2  and  C_11 
DOCKED: REMARK    3  A    between atoms: C_19  and  C_20 
DOCKED: REMARK    4  A    between atoms: C_20  and  C_21 
DOCKED: REMARK    5  A    between atoms: C_21  and  N_22 
DOCKED: USER                              x       y       z     vdW  Elec       q    Type
DOCKED: USER                           _______ _______ _______ _____ _____    ______ ____
DOCKED: ROOT
DOCKED: ATOM      1  O   UNL     1     -38.524 -14.231  10.956 -0.04 -0.00    -0.346 OA 
DOCKED: ATOM      2  C   UNL     1     -39.930 -14.395  11.328 -0.11 +0.00    +0.130 C  
DOCKED: ATOM      3  C   UNL     1     -40.309 -15.719  10.730 -0.19 +0.00    +0.004 A  
DOCKED: ATOM      4  C   UNL     1     -39.190 -16.311  10.162 -0.27 +0.00    +0.006 A  
DOCKED: ATOM      5  C   UNL     1     -38.009 -15.440  10.352 -0.18 +0.00    +0.169 C  
DOCKED: ATOM      6  C   UNL     1     -41.542 -16.353  10.702 -0.19 -0.00    -0.001 A  
DOCKED: ATOM      7  C   UNL     1     -39.266 -17.548   9.545 -0.34 +0.00    +0.008 A  
DOCKED: ATOM      8  C   UNL     1     -41.635 -17.599  10.080 -0.23 +0.00    +0.010 A  
DOCKED: ATOM      9  C   UNL     1     -40.502 -18.194   9.505 -0.27 +0.00    +0.068 A  
DOCKED: ATOM     10  N   UNL     1     -40.709 -20.510   8.362 -2.39 -0.00    -0.191 NA 
DOCKED: ATOM     11  C   UNL     1     -40.616 -19.471   8.874 -0.38 +0.00    +0.101 C  
DOCKED: ENDROOT
DOCKED: BRANCH   2  12
DOCKED: ATOM     12  C   UNL     1     -40.031 -14.380  12.849 -0.04 +0.00    +0.038 C  
DOCKED: BRANCH  12  13
DOCKED: ATOM     13  C   UNL     1     -40.023 -15.796  13.422 -0.04 +0.00    +0.038 C  
DOCKED: BRANCH  13  14
DOCKED: ATOM     14  C   UNL     1     -38.647 -16.156  13.977 -0.02 +0.00    +0.251 C  
DOCKED: BRANCH  14  15
DOCKED: ATOM     15  N   UNL     1     -38.332 -17.550  13.686 -0.07 +0.00    +0.141 N  
DOCKED: ATOM     16  C   UNL     1     -39.536 -18.277  13.281 -0.08 +0.00    +0.285 C  
DOCKED: ATOM     17  C   UNL     1     -37.308 -17.641  12.643 -0.09 +0.00    +0.285 C  
DOCKED: ENDBRANCH  14  15
DOCKED: ENDBRANCH  13  14
DOCKED: ENDBRANCH  12  13
DOCKED: ENDBRANCH   2  12
DOCKED: BRANCH   2  18
DOCKED: ATOM     18  C   UNL     1     -40.676 -13.250  10.728 -0.16 +0.00    +0.006 A  
DOCKED: ATOM     19  C   UNL     1     -40.119 -12.533   9.671 -0.17 +0.00    +0.001 A  
DOCKED: ATOM     20  C   UNL     1     -40.818 -11.463   9.111 -0.16 +0.00    +0.029 A  
DOCKED: ATOM     21  C   UNL     1     -42.072 -11.113   9.607 -0.12 +0.00    +0.140 A  
DOCKED: ATOM     22  C   UNL     1     -42.629 -11.831  10.665 -0.12 +0.00    +0.029 A  
DOCKED: ATOM     23  F   UNL     1     -42.743 -10.087   9.068 -0.02 -0.00    -0.204 F  
DOCKED: ATOM     24  C   UNL     1     -41.931 -12.901  11.226 -0.12 +0.00    +0.001 A  
DOCKED: ENDBRANCH   2  18
DOCKED: TORSDOF 5
DOCKED: TER
DOCKED: ENDMDL
________________________________________________________________________________


    FINAL DOCKED STATE:
    ________________________


Run:   418 / 512
Time taken for this run:   0.002s

DOCKED: MODEL        418
DOCKED: USER    Run = 418
DOCKED: USER
DOCKED: USER    Estimated Free Energy of Binding    =  -3.91 kcal/mol  [=(1)+(2)+(3)-(4)]
DOCKED: USER
DOCKED: USER    (1) Final Intermolecular Energy     =  -5.40 kcal/mol
DOCKED: USER        vdW + Hbond + desolv Energy     =  -5.40 kcal/mol
DOCKED: USER        Electrostatic Energy            =  +0.00 kcal/mol
DOCKED: USER        Moving Ligand-Fixed Receptor    =  -5.40 kcal/mol
DOCKED: USER        Moving Ligand-Moving Receptor   =  +0.00 kcal/mol
DOCKED: USER    (2) Final Total Internal Energy     =  -1.19 kcal/mol
DOCKED: USER    (3) Torsional Free Energy           =  +1.49 kcal/mol
DOCKED: USER    (4) Unbound System's Energy         =  -1.19 kcal/mol
DOCKED: USER
DOCKED: USER
DOCKED: REMARK  5 active torsions:
DOCKED: REMARK  status: ('A' for Active; 'I' for Inactive)
DOCKED: REMARK    1  A    between atoms: C_2  and  C_19 
DOCKED: REMARK    2  A    between atoms: C_2  and  C_11 
DOCKED: REMARK    3  A    between atoms: C_19  and  C_20 
DOCKED: REMARK    4  A    between atoms: C_20  and  C_21 
DOCKED: REMARK    5  A    between atoms: C_21  and  N_22 
DOCKED: USER                              x       y       z     vdW  Elec       q    Type
DOCKED: USER                           _______ _______ _______ _____ _____    ______ ____
DOCKED: ROOT
DOCKED: ATOM      1  O   UNL     1     -34.745  -9.965   3.847 -0.04 -0.00    -0.346 OA 
DOCKED: ATOM      2  C   UNL     1     -36.116 -10.163   3.376 -0.21 +0.00    +0.130 C  
DOCKED: ATOM      3  C   UNL     1     -36.254  -9.183   2.247 -0.26 +0.00    +0.004 A  
DOCKED: ATOM      4  C   UNL     1     -35.036  -8.558   2.019 -0.16 +0.00    +0.006 A  
DOCKED: ATOM      5  C   UNL     1     -34.019  -9.082   2.959 -0.11 +0.00    +0.169 C  
DOCKED: ATOM      6  C   UNL     1     -37.365  -8.877   1.475 -0.31 -0.00    -0.001 A  
DOCKED: ATOM      7  C   UNL     1     -34.887  -7.609   1.023 -0.20 +0.00    +0.008 A  
DOCKED: ATOM      8  C   UNL     1     -37.233  -7.918   0.469 -0.42 +0.00    +0.010 A  
DOCKED: ATOM      9  C   UNL     1     -36.000  -7.288   0.244 -0.30 +0.00    +0.068 A  
DOCKED: ATOM     10  N   UNL     1     -35.788  -5.518  -1.636 -0.82 -0.00    -0.191 NA 
DOCKED: ATOM     11  C   UNL     1     -35.883  -6.311  -0.793 -0.34 +0.00    +0.101 C  
DOCKED: ENDROOT
DOCKED: BRANCH   2  12
DOCKED: ATOM     12  C   UNL     1     -36.268 -11.611   2.926 -0.21 +0.00    +0.038 C  
DOCKED: BRANCH  12  13
DOCKED: ATOM     13  C   UNL     1     -34.937 -12.187   2.445 -0.18 +0.00    +0.038 C  
DOCKED: BRANCH  13  14
DOCKED: ATOM     14  C   UNL     1     -34.869 -13.693   2.690 -0.11 +0.00    +0.251 C  
DOCKED: BRANCH  14  15
DOCKED: ATOM     15  N   UNL     1     -34.625 -13.966   4.101 -0.15 +0.00    +0.141 N  
DOCKED: ATOM     16  C   UNL     1     -33.932 -12.842   4.733 -0.03 +0.00    +0.285 C  
DOCKED: ATOM     17  C   UNL     1     -35.883 -14.243   4.798 -0.21 +0.00    +0.285 C  
DOCKED: ENDBRANCH  14  15
DOCKED: ENDBRANCH  13  14
DOCKED: ENDBRANCH  12  13
DOCKED: ENDBRANCH   2  12
DOCKED: BRANCH   2  18
DOCKED: ATOM     18  C   UNL     1     -37.020  -9.858   4.524 -0.26 +0.00    +0.006 A  
DOCKED: ATOM     19  C   UNL     1     -38.344 -10.296   4.503 -0.27 +0.00    +0.001 A  
DOCKED: ATOM     20  C   UNL     1     -39.188 -10.010   5.577 -0.26 +0.00    +0.029 A  
DOCKED: ATOM     21  C   UNL     1     -38.707  -9.289   6.669 -0.14 +0.00    +0.140 A  
DOCKED: ATOM     22  C   UNL     1     -37.383  -8.851   6.688 -0.20 +0.00    +0.029 A  
DOCKED: ATOM     23  F   UNL     1     -39.517  -9.016   7.700 -0.00 -0.00    -0.204 F  
DOCKED: ATOM     24  C   UNL     1     -36.538  -9.136   5.615 -0.21 +0.00    +0.001 A  
DOCKED: ENDBRANCH   2  18
DOCKED: TORSDOF 5
DOCKED: TER
DOCKED: ENDMDL
________________________________________________________________________________


    FINAL DOCKED STATE:
    ________________________


Run:   419 / 512
Time taken for this run:   0.002s

DOCKED: MODEL        419
DOCKED: USER    Run = 419
DOCKED: USER
DOCKED: USER    Estimated Free Energy of Binding    =  -3.71 kcal/mol  [=(1)+(2)+(3)-(4)]
DOCKED: USER
DOCKED: USER    (1) Final Intermolecular Energy     =  -5.20 kcal/mol
DOCKED: USER        vdW + Hbond + desolv Energy     =  -5.20 kcal/mol
DOCKED: USER        Electrostatic Energy            =  +0.00 kcal/mol
DOCKED: USER        Moving Ligand-Fixed Receptor    =  -5.20 kcal/mol
DOCKED: USER        Moving Ligand-Moving Receptor   =  +0.00 kcal/mol
DOCKED: USER    (2) Final Total Internal Energy     =  -1.33 kcal/mol
DOCKED: USER    (3) Torsional Free Energy           =  +1.49 kcal/mol
DOCKED: USER    (4) Unbound System's Energy         =  -1.33 kcal/mol
DOCKED: USER
DOCKED: USER
DOCKED: REMARK  5 active torsions:
DOCKED: REMARK  status: ('A' for Active; 'I' for Inactive)
DOCKED: REMARK    1  A    between atoms: C_2  and  C_19 
DOCKED: REMARK    2  A    between atoms: C_2  and  C_11 
DOCKED: REMARK    3  A    between atoms: C_19  and  C_20 
DOCKED: REMARK    4  A    between atoms: C_20  and  C_21 
DOCKED: REMARK    5  A    between atoms: C_21  and  N_22 
DOCKED: USER                              x       y       z     vdW  Elec       q    Type
DOCKED: USER                           _______ _______ _______ _____ _____    ______ ____
DOCKED: ROOT
DOCKED: ATOM      1  O   UNL     1     -37.220 -17.401  13.531 -0.05 -0.00    -0.346 OA 
DOCKED: ATOM      2  C   UNL     1     -37.362 -16.424  12.450 -0.11 +0.00    +0.130 C  
DOCKED: ATOM      3  C   UNL     1     -38.153 -17.156  11.405 -0.21 +0.00    +0.004 A  
DOCKED: ATOM      4  C   UNL     1     -38.526 -18.402  11.889 -0.23 +0.00    +0.006 A  
DOCKED: ATOM      5  C   UNL     1     -38.027 -18.574  13.272 -0.07 +0.00    +0.169 C  
DOCKED: ATOM      6  C   UNL     1     -38.523 -16.747  10.132 -0.25 -0.00    -0.001 A  
DOCKED: ATOM      7  C   UNL     1     -39.273 -19.279  11.121 -0.30 +0.00    +0.008 A  
DOCKED: ATOM      8  C   UNL     1     -39.272 -17.622   9.344 -0.34 +0.00    +0.010 A  
DOCKED: ATOM      9  C   UNL     1     -39.646 -18.881   9.837 -0.31 +0.00    +0.068 A  
DOCKED: ATOM     10  N   UNL     1     -41.042 -20.479   8.349 -2.34 -0.00    -0.191 NA 
DOCKED: ATOM     11  C   UNL     1     -40.415 -19.763   9.016 -0.23 +0.00    +0.101 C  
DOCKED: ENDROOT
DOCKED: BRANCH   2  12
DOCKED: ATOM     12  C   UNL     1     -38.089 -15.202  12.997 -0.05 +0.00    +0.038 C  
DOCKED: BRANCH  12  13
DOCKED: ATOM     13  C   UNL     1     -37.523 -14.776  14.351 -0.01 +0.00    +0.038 C  
DOCKED: BRANCH  13  14
DOCKED: ATOM     14  C   UNL     1     -38.642 -14.528  15.361 -0.00 +0.00    +0.251 C  
DOCKED: BRANCH  14  15
DOCKED: ATOM     15  N   UNL     1     -38.602 -15.531  16.418 -0.00 +0.00    +0.141 N  
DOCKED: ATOM     16  C   UNL     1     -39.375 -16.714  16.037 -0.00 +0.00    +0.285 C  
DOCKED: ATOM     17  C   UNL     1     -37.220 -15.904  16.723 -0.00 +0.00    +0.285 C  
DOCKED: ENDBRANCH  14  15
DOCKED: ENDBRANCH  13  14
DOCKED: ENDBRANCH  12  13
DOCKED: ENDBRANCH   2  12
DOCKED: BRANCH   2  18
DOCKED: ATOM     18  C   UNL     1     -35.984 -16.072  11.997 -0.13 +0.00    +0.006 A  
DOCKED: ATOM     19  C   UNL     1     -34.923 -16.938  12.257 -0.15 +0.00    +0.001 A  
DOCKED: ATOM     20  C   UNL     1     -33.635 -16.608  11.833 -0.12 +0.00    +0.029 A  
DOCKED: ATOM     21  C   UNL     1     -33.411 -15.414  11.149 -0.07 +0.00    +0.140 A  
DOCKED: ATOM     22  C   UNL     1     -34.473 -14.549  10.888 -0.09 +0.00    +0.029 A  
DOCKED: ATOM     23  F   UNL     1     -32.175 -15.098  10.740 -0.00 -0.00    -0.204 F  
DOCKED: ATOM     24  C   UNL     1     -35.762 -14.878  11.313 -0.11 +0.00    +0.001 A  
DOCKED: ENDBRANCH   2  18
DOCKED: TORSDOF 5
DOCKED: TER
DOCKED: ENDMDL
________________________________________________________________________________


    FINAL DOCKED STATE:
    ________________________


Run:   420 / 512
Time taken for this run:   0.002s

DOCKED: MODEL        420
DOCKED: USER    Run = 420
DOCKED: USER
DOCKED: USER    Estimated Free Energy of Binding    =  -4.19 kcal/mol  [=(1)+(2)+(3)-(4)]
DOCKED: USER
DOCKED: USER    (1) Final Intermolecular Energy     =  -5.68 kcal/mol
DOCKED: USER        vdW + Hbond + desolv Energy     =  -5.68 kcal/mol
DOCKED: USER        Electrostatic Energy            =  +0.00 kcal/mol
DOCKED: USER        Moving Ligand-Fixed Receptor    =  -5.68 kcal/mol
DOCKED: USER        Moving Ligand-Moving Receptor   =  +0.00 kcal/mol
DOCKED: USER    (2) Final Total Internal Energy     =  -0.96 kcal/mol
DOCKED: USER    (3) Torsional Free Energy           =  +1.49 kcal/mol
DOCKED: USER    (4) Unbound System's Energy         =  -0.96 kcal/mol
DOCKED: USER
DOCKED: USER
DOCKED: REMARK  5 active torsions:
DOCKED: REMARK  status: ('A' for Active; 'I' for Inactive)
DOCKED: REMARK    1  A    between atoms: C_2  and  C_19 
DOCKED: REMARK    2  A    between atoms: C_2  and  C_11 
DOCKED: REMARK    3  A    between atoms: C_19  and  C_20 
DOCKED: REMARK    4  A    between atoms: C_20  and  C_21 
DOCKED: REMARK    5  A    between atoms: C_21  and  N_22 
DOCKED: USER                              x       y       z     vdW  Elec       q    Type
DOCKED: USER                           _______ _______ _______ _____ _____    ______ ____
DOCKED: ROOT
DOCKED: ATOM      1  O   UNL     1     -33.649 -14.580   3.911 -0.00 -0.00    -0.346 OA 
DOCKED: ATOM      2  C   UNL     1     -32.579 -15.375   3.307 -0.10 +0.00    +0.130 C  
DOCKED: ATOM      3  C   UNL     1     -32.614 -16.666   4.073 -0.15 +0.00    +0.004 A  
DOCKED: ATOM      4  C   UNL     1     -33.680 -16.654   4.961 -0.28 +0.00    +0.006 A  
DOCKED: ATOM      5  C   UNL     1     -34.422 -15.379   4.838 -0.23 +0.00    +0.169 C  
DOCKED: ATOM      6  C   UNL     1     -31.775 -17.767   3.983 -0.12 -0.00    -0.001 A  
DOCKED: ATOM      7  C   UNL     1     -33.942 -17.733   5.788 -0.29 +0.00    +0.008 A  
DOCKED: ATOM      8  C   UNL     1     -32.023 -18.862   4.813 -0.19 +0.00    +0.010 A  
DOCKED: ATOM      9  C   UNL     1     -33.101 -18.845   5.711 -0.30 +0.00    +0.068 A  
DOCKED: ATOM     10  N   UNL     1     -33.537 -20.895   7.234 -2.55 -0.00    -0.191 NA 
DOCKED: ATOM     11  C   UNL     1     -33.341 -19.975   6.551 -0.38 +0.00    +0.101 C  
DOCKED: ENDROOT
DOCKED: BRANCH   2  12
DOCKED: ATOM     12  C   UNL     1     -32.889 -15.556   1.826 -0.13 +0.00    +0.038 C  
DOCKED: BRANCH  12  13
DOCKED: ATOM     13  C   UNL     1     -33.100 -14.211   1.133 -0.16 +0.00    +0.038 C  
DOCKED: BRANCH  13  14
DOCKED: ATOM     14  C   UNL     1     -34.485 -14.134   0.493 -0.17 +0.00    +0.251 C  
DOCKED: BRANCH  14  15
DOCKED: ATOM     15  N   UNL     1     -34.385 -14.289  -0.953 -0.27 +0.00    +0.141 N  
DOCKED: ATOM     16  C   UNL     1     -33.754 -13.114  -1.556 -0.12 +0.00    +0.285 C  
DOCKED: ATOM     17  C   UNL     1     -33.632 -15.498  -1.291 -0.19 +0.00    +0.285 C  
DOCKED: ENDBRANCH  14  15
DOCKED: ENDBRANCH  13  14
DOCKED: ENDBRANCH  12  13
DOCKED: ENDBRANCH   2  12
DOCKED: BRANCH   2  18
DOCKED: ATOM     18  C   UNL     1     -31.309 -14.616   3.503 -0.03 +0.00    +0.006 A  
DOCKED: ATOM     19  C   UNL     1     -31.345 -13.312   3.994 -0.01 +0.00    +0.001 A  
DOCKED: ATOM     20  C   UNL     1     -30.157 -12.604   4.176 -0.00 +0.00    +0.029 A  
DOCKED: ATOM     21  C   UNL     1     -28.935 -13.200   3.868 +0.00 +0.00    +0.140 A  
DOCKED: ATOM     22  C   UNL     1     -28.900 -14.505   3.377 -0.00 +0.00    +0.029 A  
DOCKED: ATOM     23  F   UNL     1     -27.794 -12.521   4.044 +0.00 -0.00    -0.204 F  
DOCKED: ATOM     24  C   UNL     1     -30.088 -15.214   3.194 -0.01 +0.00    +0.001 A  
DOCKED: ENDBRANCH   2  18
DOCKED: TORSDOF 5
DOCKED: TER
DOCKED: ENDMDL
________________________________________________________________________________


    FINAL DOCKED STATE:
    ________________________


Run:   421 / 512
Time taken for this run:   0.002s

DOCKED: MODEL        421
DOCKED: USER    Run = 421
DOCKED: USER
DOCKED: USER    Estimated Free Energy of Binding    =  -4.07 kcal/mol  [=(1)+(2)+(3)-(4)]
DOCKED: USER
DOCKED: USER    (1) Final Intermolecular Energy     =  -5.57 kcal/mol
DOCKED: USER        vdW + Hbond + desolv Energy     =  -5.57 kcal/mol
DOCKED: USER        Electrostatic Energy            =  +0.00 kcal/mol
DOCKED: USER        Moving Ligand-Fixed Receptor    =  -5.57 kcal/mol
DOCKED: USER        Moving Ligand-Moving Receptor   =  +0.00 kcal/mol
DOCKED: USER    (2) Final Total Internal Energy     =  -1.32 kcal/mol
DOCKED: USER    (3) Torsional Free Energy           =  +1.49 kcal/mol
DOCKED: USER    (4) Unbound System's Energy         =  -1.32 kcal/mol
DOCKED: USER
DOCKED: USER
DOCKED: REMARK  5 active torsions:
DOCKED: REMARK  status: ('A' for Active; 'I' for Inactive)
DOCKED: REMARK    1  A    between atoms: C_2  and  C_19 
DOCKED: REMARK    2  A    between atoms: C_2  and  C_11 
DOCKED: REMARK    3  A    between atoms: C_19  and  C_20 
DOCKED: REMARK    4  A    between atoms: C_20  and  C_21 
DOCKED: REMARK    5  A    between atoms: C_21  and  N_22 
DOCKED: USER                              x       y       z     vdW  Elec       q    Type
DOCKED: USER                           _______ _______ _______ _____ _____    ______ ____
DOCKED: ROOT
DOCKED: ATOM      1  O   UNL     1     -33.351 -14.953   3.618 -0.00 -0.00    -0.346 OA 
DOCKED: ATOM      2  C   UNL     1     -32.132 -15.711   3.331 -0.09 +0.00    +0.130 C  
DOCKED: ATOM      3  C   UNL     1     -32.244 -16.920   4.215 -0.13 +0.00    +0.004 A  
DOCKED: ATOM      4  C   UNL     1     -33.469 -16.910   4.867 -0.26 +0.00    +0.006 A  
DOCKED: ATOM      5  C   UNL     1     -34.247 -15.720   4.456 -0.23 +0.00    +0.169 C  
DOCKED: ATOM      6  C   UNL     1     -31.338 -17.951   4.417 -0.10 -0.00    -0.001 A  
DOCKED: ATOM      7  C   UNL     1     -33.828 -17.922   5.741 -0.32 +0.00    +0.008 A  
DOCKED: ATOM      8  C   UNL     1     -31.684 -18.976   5.299 -0.18 +0.00    +0.010 A  
DOCKED: ATOM      9  C   UNL     1     -32.923 -18.962   5.957 -0.30 +0.00    +0.068 A  
DOCKED: ATOM     10  N   UNL     1     -33.535 -20.883   7.584 -2.68 -0.00    -0.191 NA 
DOCKED: ATOM     11  C   UNL     1     -33.260 -20.021   6.854 -0.36 +0.00    +0.101 C  
DOCKED: ENDROOT
DOCKED: BRANCH   2  12
DOCKED: ATOM     12  C   UNL     1     -32.118 -16.060   1.848 -0.13 +0.00    +0.038 C  
DOCKED: BRANCH  12  13
DOCKED: ATOM     13  C   UNL     1     -32.440 -14.840   0.986 -0.13 +0.00    +0.038 C  
DOCKED: BRANCH  13  14
DOCKED: ATOM     14  C   UNL     1     -33.883 -14.885   0.488 -0.15 +0.00    +0.251 C  
DOCKED: BRANCH  14  15
DOCKED: ATOM     15  N   UNL     1     -34.455 -13.544   0.469 -0.23 +0.00    +0.141 N  
DOCKED: ATOM     16  C   UNL     1     -33.978 -12.763   1.611 -0.11 +0.00    +0.285 C  
DOCKED: ATOM     17  C   UNL     1     -34.127 -12.861  -0.784 -0.14 +0.00    +0.285 C  
DOCKED: ENDBRANCH  14  15
DOCKED: ENDBRANCH  13  14
DOCKED: ENDBRANCH  12  13
DOCKED: ENDBRANCH   2  12
DOCKED: BRANCH   2  18
DOCKED: ATOM     18  C   UNL     1     -30.979 -14.834   3.689 -0.02 +0.00    +0.006 A  
DOCKED: ATOM     19  C   UNL     1     -29.700 -15.139   3.222 -0.00 +0.00    +0.001 A  
DOCKED: ATOM     20  C   UNL     1     -28.623 -14.318   3.558 -0.00 +0.00    +0.029 A  
DOCKED: ATOM     21  C   UNL     1     -28.825 -13.194   4.357 +0.00 +0.00    +0.140 A  
DOCKED: ATOM     22  C   UNL     1     -30.104 -12.889   4.823 -0.00 +0.00    +0.029 A  
DOCKED: ATOM     23  F   UNL     1     -27.791 -12.406   4.677 +0.00 -0.00    -0.204 F  
DOCKED: ATOM     24  C   UNL     1     -31.182 -13.710   4.488 -0.01 +0.00    +0.001 A  
DOCKED: ENDBRANCH   2  18
DOCKED: TORSDOF 5
DOCKED: TER
DOCKED: ENDMDL
________________________________________________________________________________


    FINAL DOCKED STATE:
    ________________________


Run:   422 / 512
Time taken for this run:   0.002s

DOCKED: MODEL        422
DOCKED: USER    Run = 422
DOCKED: USER
DOCKED: USER    Estimated Free Energy of Binding    =  -5.72 kcal/mol  [=(1)+(2)+(3)-(4)]
DOCKED: USER
DOCKED: USER    (1) Final Intermolecular Energy     =  -7.22 kcal/mol
DOCKED: USER        vdW + Hbond + desolv Energy     =  -7.22 kcal/mol
DOCKED: USER        Electrostatic Energy            =  +0.00 kcal/mol
DOCKED: USER        Moving Ligand-Fixed Receptor    =  -7.22 kcal/mol
DOCKED: USER        Moving Ligand-Moving Receptor   =  +0.00 kcal/mol
DOCKED: USER    (2) Final Total Internal Energy     =  -1.08 kcal/mol
DOCKED: USER    (3) Torsional Free Energy           =  +1.49 kcal/mol
DOCKED: USER    (4) Unbound System's Energy         =  -1.08 kcal/mol
DOCKED: USER
DOCKED: USER
DOCKED: REMARK  5 active torsions:
DOCKED: REMARK  status: ('A' for Active; 'I' for Inactive)
DOCKED: REMARK    1  A    between atoms: C_2  and  C_19 
DOCKED: REMARK    2  A    between atoms: C_2  and  C_11 
DOCKED: REMARK    3  A    between atoms: C_19  and  C_20 
DOCKED: REMARK    4  A    between atoms: C_20  and  C_21 
DOCKED: REMARK    5  A    between atoms: C_21  and  N_22 
DOCKED: USER                              x       y       z     vdW  Elec       q    Type
DOCKED: USER                           _______ _______ _______ _____ _____    ______ ____
DOCKED: ROOT
DOCKED: ATOM      1  O   UNL     1     -38.612 -16.341  11.286 -0.06 -0.00    -0.346 OA 
DOCKED: ATOM      2  C   UNL     1     -38.325 -17.776  11.245 -0.23 +0.00    +0.130 C  
DOCKED: ATOM      3  C   UNL     1     -38.900 -18.219   9.931 -0.34 +0.00    +0.004 A  
DOCKED: ATOM      4  C   UNL     1     -39.375 -17.118   9.233 -0.33 +0.00    +0.006 A  
DOCKED: ATOM      5  C   UNL     1     -39.139 -15.886  10.018 -0.23 +0.00    +0.169 C  
DOCKED: ATOM      6  C   UNL     1     -38.986 -19.495   9.391 -0.39 -0.00    -0.001 A  
DOCKED: ATOM      7  C   UNL     1     -39.952 -17.252   7.982 -0.08 +0.00    +0.008 A  
DOCKED: ATOM      8  C   UNL     1     -39.569 -19.647   8.133 -0.45 +0.00    +0.010 A  
DOCKED: ATOM      9  C   UNL     1     -40.050 -18.531   7.431 -0.40 +0.00    +0.068 A  
DOCKED: ATOM     10  N   UNL     1     -41.123 -18.848   5.094 -2.90 -0.00    -0.191 NA 
DOCKED: ATOM     11  C   UNL     1     -40.642 -18.705   6.143 -0.45 +0.00    +0.101 C  
DOCKED: ENDROOT
DOCKED: BRANCH   2  12
DOCKED: ATOM     12  C   UNL     1     -36.815 -17.968  11.327 -0.14 +0.00    +0.038 C  
DOCKED: BRANCH  12  13
DOCKED: ATOM     13  C   UNL     1     -36.101 -16.650  11.618 -0.15 +0.00    +0.038 C  
DOCKED: BRANCH  13  14
DOCKED: ATOM     14  C   UNL     1     -35.810 -16.500  13.110 -0.07 +0.00    +0.251 C  
DOCKED: BRANCH  14  15
DOCKED: ATOM     15  N   UNL     1     -35.348 -15.148  13.403 -0.02 +0.00    +0.141 N  
DOCKED: ATOM     16  C   UNL     1     -34.272 -15.175  14.395 -0.01 +0.00    +0.285 C  
DOCKED: ATOM     17  C   UNL     1     -34.894 -14.482  12.181 -0.03 +0.00    +0.285 C  
DOCKED: ENDBRANCH  14  15
DOCKED: ENDBRANCH  13  14
DOCKED: ENDBRANCH  12  13
DOCKED: ENDBRANCH   2  12
DOCKED: BRANCH   2  18
DOCKED: ATOM     18  C   UNL     1     -39.011 -18.392  12.418 -0.19 +0.00    +0.006 A  
DOCKED: ATOM     19  C   UNL     1     -38.408 -18.358  13.674 -0.16 +0.00    +0.001 A  
DOCKED: ATOM     20  C   UNL     1     -39.050 -18.935  14.771 -0.16 +0.00    +0.029 A  
DOCKED: ATOM     21  C   UNL     1     -40.294 -19.544  14.609 -0.09 +0.00    +0.140 A  
DOCKED: ATOM     22  C   UNL     1     -40.897 -19.577  13.352 -0.09 +0.00    +0.029 A  
DOCKED: ATOM     23  F   UNL     1     -40.911 -20.096  15.662 -0.03 -0.00    -0.204 F  
DOCKED: ATOM     24  C   UNL     1     -40.255 -19.000  12.254 -0.22 +0.00    +0.001 A  
DOCKED: ENDBRANCH   2  18
DOCKED: TORSDOF 5
DOCKED: TER
DOCKED: ENDMDL
________________________________________________________________________________


    FINAL DOCKED STATE:
    ________________________


Run:   423 / 512
Time taken for this run:   0.002s

DOCKED: MODEL        423
DOCKED: USER    Run = 423
DOCKED: USER
DOCKED: USER    Estimated Free Energy of Binding    =  -4.60 kcal/mol  [=(1)+(2)+(3)-(4)]
DOCKED: USER
DOCKED: USER    (1) Final Intermolecular Energy     =  -6.10 kcal/mol
DOCKED: USER        vdW + Hbond + desolv Energy     =  -6.10 kcal/mol
DOCKED: USER        Electrostatic Energy            =  +0.00 kcal/mol
DOCKED: USER        Moving Ligand-Fixed Receptor    =  -6.10 kcal/mol
DOCKED: USER        Moving Ligand-Moving Receptor   =  +0.00 kcal/mol
DOCKED: USER    (2) Final Total Internal Energy     =  -0.96 kcal/mol
DOCKED: USER    (3) Torsional Free Energy           =  +1.49 kcal/mol
DOCKED: USER    (4) Unbound System's Energy         =  -0.96 kcal/mol
DOCKED: USER
DOCKED: USER
DOCKED: REMARK  5 active torsions:
DOCKED: REMARK  status: ('A' for Active; 'I' for Inactive)
DOCKED: REMARK    1  A    between atoms: C_2  and  C_19 
DOCKED: REMARK    2  A    between atoms: C_2  and  C_11 
DOCKED: REMARK    3  A    between atoms: C_19  and  C_20 
DOCKED: REMARK    4  A    between atoms: C_20  and  C_21 
DOCKED: REMARK    5  A    between atoms: C_21  and  N_22 
DOCKED: USER                              x       y       z     vdW  Elec       q    Type
DOCKED: USER                           _______ _______ _______ _____ _____    ______ ____
DOCKED: ROOT
DOCKED: ATOM      1  O   UNL     1     -37.022 -10.358   4.842 -0.08 -0.00    -0.346 OA 
DOCKED: ATOM      2  C   UNL     1     -35.786 -10.375   4.058 -0.16 +0.00    +0.130 C  
DOCKED: ATOM      3  C   UNL     1     -36.171  -9.716   2.765 -0.26 +0.00    +0.004 A  
DOCKED: ATOM      4  C   UNL     1     -37.480  -9.262   2.844 -0.28 +0.00    +0.006 A  
DOCKED: ATOM      5  C   UNL     1     -38.040  -9.573   4.178 -0.26 +0.00    +0.169 C  
DOCKED: ATOM      6  C   UNL     1     -35.418  -9.523   1.616 -0.23 -0.00    -0.001 A  
DOCKED: ATOM      7  C   UNL     1     -38.080  -8.608   1.782 -0.13 +0.00    +0.008 A  
DOCKED: ATOM      8  C   UNL     1     -36.011  -8.869   0.535 -0.25 +0.00    +0.010 A  
DOCKED: ATOM      9  C   UNL     1     -37.335  -8.413   0.618 -0.22 +0.00    +0.068 A  
DOCKED: ATOM     10  N   UNL     1     -38.404  -7.198  -1.406 -2.42 -0.00    -0.191 NA 
DOCKED: ATOM     11  C   UNL     1     -37.925  -7.744  -0.499 -0.30 +0.00    +0.101 C  
DOCKED: ENDROOT
DOCKED: BRANCH   2  12
DOCKED: ATOM     12  C   UNL     1     -34.719  -9.602   4.824 -0.15 +0.00    +0.038 C  
DOCKED: BRANCH  12  13
DOCKED: ATOM     13  C   UNL     1     -33.476  -9.372   3.966 -0.12 +0.00    +0.038 C  
DOCKED: BRANCH  13  14
DOCKED: ATOM     14  C   UNL     1     -32.959  -7.943   4.122 -0.05 +0.00    +0.251 C  
DOCKED: BRANCH  14  15
DOCKED: ATOM     15  N   UNL     1     -31.985  -7.640   3.080 -0.07 +0.00    +0.141 N  
DOCKED: ATOM     16  C   UNL     1     -30.622  -7.712   3.610 -0.02 +0.00    +0.285 C  
DOCKED: ATOM     17  C   UNL     1     -32.138  -8.556   1.948 -0.02 +0.00    +0.285 C  
DOCKED: ENDBRANCH  14  15
DOCKED: ENDBRANCH  13  14
DOCKED: ENDBRANCH  12  13
DOCKED: ENDBRANCH   2  12
DOCKED: BRANCH   2  18
DOCKED: ATOM     18  C   UNL     1     -35.397 -11.806   3.888 -0.14 +0.00    +0.006 A  
DOCKED: ATOM     19  C   UNL     1     -34.439 -12.160   2.939 -0.11 +0.00    +0.001 A  
DOCKED: ATOM     20  C   UNL     1     -34.077 -13.498   2.781 -0.15 +0.00    +0.029 A  
DOCKED: ATOM     21  C   UNL     1     -34.672 -14.479   3.572 -0.18 +0.00    +0.140 A  
DOCKED: ATOM     22  C   UNL     1     -35.630 -14.125   4.522 -0.26 +0.00    +0.029 A  
DOCKED: ATOM     23  F   UNL     1     -34.323 -15.764   3.422 -0.06 -0.00    -0.204 F  
DOCKED: ATOM     24  C   UNL     1     -35.994 -12.786   4.680 -0.19 +0.00    +0.001 A  
DOCKED: ENDBRANCH   2  18
DOCKED: TORSDOF 5
DOCKED: TER
DOCKED: ENDMDL
________________________________________________________________________________


    FINAL DOCKED STATE:
    ________________________


Run:   424 / 512
Time taken for this run:   0.002s

DOCKED: MODEL        424
DOCKED: USER    Run = 424
DOCKED: USER
DOCKED: USER    Estimated Free Energy of Binding    =  -5.70 kcal/mol  [=(1)+(2)+(3)-(4)]
DOCKED: USER
DOCKED: USER    (1) Final Intermolecular Energy     =  -7.19 kcal/mol
DOCKED: USER        vdW + Hbond + desolv Energy     =  -7.19 kcal/mol
DOCKED: USER        Electrostatic Energy            =  +0.00 kcal/mol
DOCKED: USER        Moving Ligand-Fixed Receptor    =  -7.19 kcal/mol
DOCKED: USER        Moving Ligand-Moving Receptor   =  +0.00 kcal/mol
DOCKED: USER    (2) Final Total Internal Energy     =  -1.34 kcal/mol
DOCKED: USER    (3) Torsional Free Energy           =  +1.49 kcal/mol
DOCKED: USER    (4) Unbound System's Energy         =  -1.34 kcal/mol
DOCKED: USER
DOCKED: USER
DOCKED: REMARK  5 active torsions:
DOCKED: REMARK  status: ('A' for Active; 'I' for Inactive)
DOCKED: REMARK    1  A    between atoms: C_2  and  C_19 
DOCKED: REMARK    2  A    between atoms: C_2  and  C_11 
DOCKED: REMARK    3  A    between atoms: C_19  and  C_20 
DOCKED: REMARK    4  A    between atoms: C_20  and  C_21 
DOCKED: REMARK    5  A    between atoms: C_21  and  N_22 
DOCKED: USER                              x       y       z     vdW  Elec       q    Type
DOCKED: USER                           _______ _______ _______ _____ _____    ______ ____
DOCKED: ROOT
DOCKED: ATOM      1  O   UNL     1     -37.941 -19.296  11.427 -0.13 -0.00    -0.346 OA 
DOCKED: ATOM      2  C   UNL     1     -38.440 -17.929  11.264 -0.24 +0.00    +0.130 C  
DOCKED: ATOM      3  C   UNL     1     -39.066 -17.936   9.900 -0.33 +0.00    +0.004 A  
DOCKED: ATOM      4  C   UNL     1     -39.027 -19.219   9.374 -0.41 +0.00    +0.006 A  
DOCKED: ATOM      5  C   UNL     1     -38.394 -20.141  10.344 -0.21 +0.00    +0.169 C  
DOCKED: ATOM      6  C   UNL     1     -39.634 -16.891   9.186 -0.33 -0.00    -0.001 A  
DOCKED: ATOM      7  C   UNL     1     -39.548 -19.501   8.123 -0.45 +0.00    +0.008 A  
DOCKED: ATOM      8  C   UNL     1     -40.160 -17.159   7.920 +0.31 +0.00    +0.010 A  
DOCKED: ATOM      9  C   UNL     1     -40.117 -18.457   7.392 -0.40 +0.00    +0.068 A  
DOCKED: ATOM     10  N   UNL     1     -41.106 -18.921   5.043 -2.94 -0.00    -0.191 NA 
DOCKED: ATOM     11  C   UNL     1     -40.662 -18.713   6.096 -0.45 +0.00    +0.101 C  
DOCKED: ENDROOT
DOCKED: BRANCH   2  12
DOCKED: ATOM     12  C   UNL     1     -39.443 -17.646  12.376 -0.15 +0.00    +0.038 C  
DOCKED: BRANCH  12  13
DOCKED: ATOM     13  C   UNL     1     -40.738 -18.430  12.171 -0.18 +0.00    +0.038 C  
DOCKED: BRANCH  13  14
DOCKED: ATOM     14  C   UNL     1     -41.919 -17.489  11.944 -0.04 +0.00    +0.251 C  
DOCKED: BRANCH  14  15
DOCKED: ATOM     15  N   UNL     1     -42.298 -17.481  10.536 -0.14 +0.00    +0.141 N  
DOCKED: ATOM     16  C   UNL     1     -42.777 -18.801  10.123 -0.09 +0.00    +0.285 C  
DOCKED: ATOM     17  C   UNL     1     -43.324 -16.467  10.284 -0.13 +0.00    +0.285 C  
DOCKED: ENDBRANCH  14  15
DOCKED: ENDBRANCH  13  14
DOCKED: ENDBRANCH  12  13
DOCKED: ENDBRANCH   2  12
DOCKED: BRANCH   2  18
DOCKED: ATOM     18  C   UNL     1     -37.260 -17.020  11.359 -0.21 +0.00    +0.006 A  
DOCKED: ATOM     19  C   UNL     1     -37.328 -15.733  10.827 -0.15 +0.00    +0.001 A  
DOCKED: ATOM     20  C   UNL     1     -36.225 -14.884  10.916 -0.12 +0.00    +0.029 A  
DOCKED: ATOM     21  C   UNL     1     -35.056 -15.322  11.537 -0.08 +0.00    +0.140 A  
DOCKED: ATOM     22  C   UNL     1     -34.988 -16.609  12.068 -0.14 +0.00    +0.029 A  
DOCKED: ATOM     23  F   UNL     1     -33.997 -14.506  11.623 -0.01 -0.00    -0.204 F  
DOCKED: ATOM     24  C   UNL     1     -36.092 -17.460  11.980 -0.19 +0.00    +0.001 A  
DOCKED: ENDBRANCH   2  18
DOCKED: TORSDOF 5
DOCKED: TER
DOCKED: ENDMDL
________________________________________________________________________________


    FINAL DOCKED STATE:
    ________________________


Run:   425 / 512
Time taken for this run:   0.002s

DOCKED: MODEL        425
DOCKED: USER    Run = 425
DOCKED: USER
DOCKED: USER    Estimated Free Energy of Binding    =  -3.90 kcal/mol  [=(1)+(2)+(3)-(4)]
DOCKED: USER
DOCKED: USER    (1) Final Intermolecular Energy     =  -5.39 kcal/mol
DOCKED: USER        vdW + Hbond + desolv Energy     =  -5.39 kcal/mol
DOCKED: USER        Electrostatic Energy            =  +0.00 kcal/mol
DOCKED: USER        Moving Ligand-Fixed Receptor    =  -5.39 kcal/mol
DOCKED: USER        Moving Ligand-Moving Receptor   =  +0.00 kcal/mol
DOCKED: USER    (2) Final Total Internal Energy     =  -1.21 kcal/mol
DOCKED: USER    (3) Torsional Free Energy           =  +1.49 kcal/mol
DOCKED: USER    (4) Unbound System's Energy         =  -1.21 kcal/mol
DOCKED: USER
DOCKED: USER
DOCKED: REMARK  5 active torsions:
DOCKED: REMARK  status: ('A' for Active; 'I' for Inactive)
DOCKED: REMARK    1  A    between atoms: C_2  and  C_19 
DOCKED: REMARK    2  A    between atoms: C_2  and  C_11 
DOCKED: REMARK    3  A    between atoms: C_19  and  C_20 
DOCKED: REMARK    4  A    between atoms: C_20  and  C_21 
DOCKED: REMARK    5  A    between atoms: C_21  and  N_22 
DOCKED: USER                              x       y       z     vdW  Elec       q    Type
DOCKED: USER                           _______ _______ _______ _____ _____    ______ ____
DOCKED: ROOT
DOCKED: ATOM      1  O   UNL     1     -35.447 -10.371   4.641 -0.04 -0.00    -0.346 OA 
DOCKED: ATOM      2  C   UNL     1     -36.690 -10.416   3.869 -0.23 +0.00    +0.130 C  
DOCKED: ATOM      3  C   UNL     1     -36.442  -9.468   2.732 -0.27 +0.00    +0.004 A  
DOCKED: ATOM      4  C   UNL     1     -35.134  -9.006   2.786 -0.13 +0.00    +0.006 A  
DOCKED: ATOM      5  C   UNL     1     -34.433  -9.617   3.937 -0.12 +0.00    +0.169 C  
DOCKED: ATOM      6  C   UNL     1     -37.301  -9.057   1.723 -0.26 -0.00    -0.001 A  
DOCKED: ATOM      7  C   UNL     1     -34.644  -8.119   1.843 -0.14 +0.00    +0.008 A  
DOCKED: ATOM      8  C   UNL     1     -36.823  -8.159   0.767 -0.37 +0.00    +0.010 A  
DOCKED: ATOM      9  C   UNL     1     -35.501  -7.693   0.827 -0.23 +0.00    +0.068 A  
DOCKED: ATOM     10  N   UNL     1     -34.643  -6.031  -0.967 -0.75 -0.00    -0.191 NA 
DOCKED: ATOM     11  C   UNL     1     -35.028  -6.776  -0.162 -0.27 +0.00    +0.101 C  
DOCKED: ENDROOT
DOCKED: BRANCH   2  12
DOCKED: ATOM     12  C   UNL     1     -36.919 -11.851   3.407 -0.21 +0.00    +0.038 C  
DOCKED: BRANCH  12  13
DOCKED: ATOM     13  C   UNL     1     -35.796 -12.773   3.877 -0.22 +0.00    +0.038 C  
DOCKED: BRANCH  13  14
DOCKED: ATOM     14  C   UNL     1     -36.358 -14.006   4.584 -0.20 +0.00    +0.251 C  
DOCKED: BRANCH  14  15
DOCKED: ATOM     15  N   UNL     1     -35.509 -14.375   5.710 -0.20 +0.00    +0.141 N  
DOCKED: ATOM     16  C   UNL     1     -34.426 -15.258   5.273 -0.17 +0.00    +0.285 C  
DOCKED: ATOM     17  C   UNL     1     -34.961 -13.181   6.356 -0.08 +0.00    +0.285 C  
DOCKED: ENDBRANCH  14  15
DOCKED: ENDBRANCH  13  14
DOCKED: ENDBRANCH  12  13
DOCKED: ENDBRANCH   2  12
DOCKED: BRANCH   2  18
DOCKED: ATOM     18  C   UNL     1     -37.784  -9.962   4.777 -0.28 +0.00    +0.006 A  
DOCKED: ATOM     19  C   UNL     1     -38.910 -10.763   4.966 -0.29 +0.00    +0.001 A  
DOCKED: ATOM     20  C   UNL     1     -39.932 -10.336   5.815 -0.27 +0.00    +0.029 A  
DOCKED: ATOM     21  C   UNL     1     -39.827  -9.112   6.472 -0.16 +0.00    +0.140 A  
DOCKED: ATOM     22  C   UNL     1     -38.701  -8.312   6.282 -0.25 +0.00    +0.029 A  
DOCKED: ATOM     23  F   UNL     1     -40.808  -8.704   7.288 -0.01 -0.00    -0.204 F  
DOCKED: ATOM     24  C   UNL     1     -37.678  -8.737   5.433 -0.26 +0.00    +0.001 A  
DOCKED: ENDBRANCH   2  18
DOCKED: TORSDOF 5
DOCKED: TER
DOCKED: ENDMDL
________________________________________________________________________________


    FINAL DOCKED STATE:
    ________________________


Run:   426 / 512
Time taken for this run:   0.002s

DOCKED: MODEL        426
DOCKED: USER    Run = 426
DOCKED: USER
DOCKED: USER    Estimated Free Energy of Binding    =  -4.27 kcal/mol  [=(1)+(2)+(3)-(4)]
DOCKED: USER
DOCKED: USER    (1) Final Intermolecular Energy     =  -5.76 kcal/mol
DOCKED: USER        vdW + Hbond + desolv Energy     =  -5.76 kcal/mol
DOCKED: USER        Electrostatic Energy            =  +0.00 kcal/mol
DOCKED: USER        Moving Ligand-Fixed Receptor    =  -5.76 kcal/mol
DOCKED: USER        Moving Ligand-Moving Receptor   =  +0.00 kcal/mol
DOCKED: USER    (2) Final Total Internal Energy     =  -1.27 kcal/mol
DOCKED: USER    (3) Torsional Free Energy           =  +1.49 kcal/mol
DOCKED: USER    (4) Unbound System's Energy         =  -1.27 kcal/mol
DOCKED: USER
DOCKED: USER
DOCKED: REMARK  5 active torsions:
DOCKED: REMARK  status: ('A' for Active; 'I' for Inactive)
DOCKED: REMARK    1  A    between atoms: C_2  and  C_19 
DOCKED: REMARK    2  A    between atoms: C_2  and  C_11 
DOCKED: REMARK    3  A    between atoms: C_19  and  C_20 
DOCKED: REMARK    4  A    between atoms: C_20  and  C_21 
DOCKED: REMARK    5  A    between atoms: C_21  and  N_22 
DOCKED: USER                              x       y       z     vdW  Elec       q    Type
DOCKED: USER                           _______ _______ _______ _____ _____    ______ ____
DOCKED: ROOT
DOCKED: ATOM      1  O   UNL     1     -38.005 -14.345  11.209 -0.03 -0.00    -0.346 OA 
DOCKED: ATOM      2  C   UNL     1     -39.457 -14.190  11.123 -0.12 +0.00    +0.130 C  
DOCKED: ATOM      3  C   UNL     1     -39.927 -15.507  10.576 -0.21 +0.00    +0.004 A  
DOCKED: ATOM      4  C   UNL     1     -38.851 -16.377  10.464 -0.25 +0.00    +0.006 A  
DOCKED: ATOM      5  C   UNL     1     -37.616 -15.710  10.934 -0.15 +0.00    +0.169 C  
DOCKED: ATOM      6  C   UNL     1     -41.205 -15.908  10.217 -0.23 -0.00    -0.001 A  
DOCKED: ATOM      7  C   UNL     1     -39.013 -17.667   9.988 -0.32 +0.00    +0.008 A  
DOCKED: ATOM      8  C   UNL     1     -41.385 -17.204   9.731 -0.24 +0.00    +0.010 A  
DOCKED: ATOM      9  C   UNL     1     -40.294 -18.079   9.618 -0.27 +0.00    +0.068 A  
DOCKED: ATOM     10  N   UNL     1     -40.662 -20.481   8.718 -2.60 -0.00    -0.191 NA 
DOCKED: ATOM     11  C   UNL     1     -40.497 -19.403   9.121 -0.36 +0.00    +0.101 C  
DOCKED: ENDROOT
DOCKED: BRANCH   2  12
DOCKED: ATOM     12  C   UNL     1     -39.996 -13.902  12.519 -0.04 +0.00    +0.038 C  
DOCKED: BRANCH  12  13
DOCKED: ATOM     13  C   UNL     1     -40.256 -15.192  13.293 -0.03 +0.00    +0.038 C  
DOCKED: BRANCH  13  14
DOCKED: ATOM     14  C   UNL     1     -38.974 -15.714  13.939 -0.01 +0.00    +0.251 C  
DOCKED: BRANCH  14  15
DOCKED: ATOM     15  N   UNL     1     -38.308 -14.648  14.677 -0.00 +0.00    +0.141 N  
DOCKED: ATOM     16  C   UNL     1     -38.604 -14.748  16.107 +0.00 +0.00    +0.285 C  
DOCKED: ATOM     17  C   UNL     1     -36.862 -14.691  14.454 -0.00 +0.00    +0.285 C  
DOCKED: ENDBRANCH  14  15
DOCKED: ENDBRANCH  13  14
DOCKED: ENDBRANCH  12  13
DOCKED: ENDBRANCH   2  12
DOCKED: BRANCH   2  18
DOCKED: ATOM     18  C   UNL     1     -39.721 -13.049  10.198 -0.17 +0.00    +0.006 A  
DOCKED: ATOM     19  C   UNL     1     -38.658 -12.407   9.564 -0.12 +0.00    +0.001 A  
DOCKED: ATOM     20  C   UNL     1     -38.905 -11.340   8.699 -0.11 +0.00    +0.029 A  
DOCKED: ATOM     21  C   UNL     1     -40.214 -10.918   8.469 -0.12 +0.00    +0.140 A  
DOCKED: ATOM     22  C   UNL     1     -41.276 -11.561   9.103 -0.13 +0.00    +0.029 A  
DOCKED: ATOM     23  F   UNL     1     -40.451  -9.895   7.638 -0.03 -0.00    -0.204 F  
DOCKED: ATOM     24  C   UNL     1     -41.030 -12.628   9.969 -0.21 +0.00    +0.001 A  
DOCKED: ENDBRANCH   2  18
DOCKED: TORSDOF 5
DOCKED: TER
DOCKED: ENDMDL
________________________________________________________________________________


    FINAL DOCKED STATE:
    ________________________


Run:   427 / 512
Time taken for this run:   0.002s

DOCKED: MODEL        427
DOCKED: USER    Run = 427
DOCKED: USER
DOCKED: USER    Estimated Free Energy of Binding    =  -5.87 kcal/mol  [=(1)+(2)+(3)-(4)]
DOCKED: USER
DOCKED: USER    (1) Final Intermolecular Energy     =  -7.36 kcal/mol
DOCKED: USER        vdW + Hbond + desolv Energy     =  -7.36 kcal/mol
DOCKED: USER        Electrostatic Energy            =  +0.00 kcal/mol
DOCKED: USER        Moving Ligand-Fixed Receptor    =  -7.36 kcal/mol
DOCKED: USER        Moving Ligand-Moving Receptor   =  +0.00 kcal/mol
DOCKED: USER    (2) Final Total Internal Energy     =  -1.30 kcal/mol
DOCKED: USER    (3) Torsional Free Energy           =  +1.49 kcal/mol
DOCKED: USER    (4) Unbound System's Energy         =  -1.30 kcal/mol
DOCKED: USER
DOCKED: USER
DOCKED: REMARK  5 active torsions:
DOCKED: REMARK  status: ('A' for Active; 'I' for Inactive)
DOCKED: REMARK    1  A    between atoms: C_2  and  C_19 
DOCKED: REMARK    2  A    between atoms: C_2  and  C_11 
DOCKED: REMARK    3  A    between atoms: C_19  and  C_20 
DOCKED: REMARK    4  A    between atoms: C_20  and  C_21 
DOCKED: REMARK    5  A    between atoms: C_21  and  N_22 
DOCKED: USER                              x       y       z     vdW  Elec       q    Type
DOCKED: USER                           _______ _______ _______ _____ _____    ______ ____
DOCKED: ROOT
DOCKED: ATOM      1  O   UNL     1     -38.906 -16.445  11.282 -0.05 -0.00    -0.346 OA 
DOCKED: ATOM      2  C   UNL     1     -38.555 -17.865  11.238 -0.23 +0.00    +0.130 C  
DOCKED: ATOM      3  C   UNL     1     -39.067 -18.321   9.903 -0.35 +0.00    +0.004 A  
DOCKED: ATOM      4  C   UNL     1     -39.568 -17.235   9.199 -0.35 +0.00    +0.006 A  
DOCKED: ATOM      5  C   UNL     1     -39.413 -16.001  10.002 -0.24 +0.00    +0.169 C  
DOCKED: ATOM      6  C   UNL     1     -39.079 -19.593   9.351 -0.36 -0.00    -0.001 A  
DOCKED: ATOM      7  C   UNL     1     -40.099 -17.382   7.929 -0.08 +0.00    +0.008 A  
DOCKED: ATOM      8  C   UNL     1     -39.615 -19.759   8.073 -0.45 +0.00    +0.010 A  
DOCKED: ATOM      9  C   UNL     1     -40.122 -18.659   7.365 -0.42 +0.00    +0.068 A  
DOCKED: ATOM     10  N   UNL     1     -41.104 -19.000   4.992 -2.96 -0.00    -0.191 NA 
DOCKED: ATOM     11  C   UNL     1     -40.664 -18.847   6.057 -0.41 +0.00    +0.101 C  
DOCKED: ENDROOT
DOCKED: BRANCH   2  12
DOCKED: ATOM     12  C   UNL     1     -37.042 -17.991  11.368 -0.21 +0.00    +0.038 C  
DOCKED: BRANCH  12  13
DOCKED: ATOM     13  C   UNL     1     -36.390 -16.637  11.641 -0.17 +0.00    +0.038 C  
DOCKED: BRANCH  13  14
DOCKED: ATOM     14  C   UNL     1     -36.425 -16.301  13.131 -0.06 +0.00    +0.251 C  
DOCKED: BRANCH  14  15
DOCKED: ATOM     15  N   UNL     1     -36.188 -14.877  13.336 -0.02 +0.00    +0.141 N  
DOCKED: ATOM     16  C   UNL     1     -35.038 -14.427  12.550 -0.02 +0.00    +0.285 C  
DOCKED: ATOM     17  C   UNL     1     -37.378 -14.101  12.984 -0.01 +0.00    +0.285 C  
DOCKED: ENDBRANCH  14  15
DOCKED: ENDBRANCH  13  14
DOCKED: ENDBRANCH  12  13
DOCKED: ENDBRANCH   2  12
DOCKED: BRANCH   2  18
DOCKED: ATOM     18  C   UNL     1     -39.250 -18.522  12.384 -0.20 +0.00    +0.006 A  
DOCKED: ATOM     19  C   UNL     1     -38.534 -18.863  13.530 -0.18 +0.00    +0.001 A  
DOCKED: ATOM     20  C   UNL     1     -39.185 -19.478  14.600 -0.21 +0.00    +0.029 A  
DOCKED: ATOM     21  C   UNL     1     -40.551 -19.749  14.523 -0.01 +0.00    +0.140 A  
DOCKED: ATOM     22  C   UNL     1     -41.266 -19.407  13.376 -0.15 +0.00    +0.029 A  
DOCKED: ATOM     23  F   UNL     1     -41.176 -20.337  15.551 -0.03 -0.00    -0.204 F  
DOCKED: ATOM     24  C   UNL     1     -40.616 -18.792  12.305 -0.19 +0.00    +0.001 A  
DOCKED: ENDBRANCH   2  18
DOCKED: TORSDOF 5
DOCKED: TER
DOCKED: ENDMDL
________________________________________________________________________________


    FINAL DOCKED STATE:
    ________________________


Run:   428 / 512
Time taken for this run:   0.002s

DOCKED: MODEL        428
DOCKED: USER    Run = 428
DOCKED: USER
DOCKED: USER    Estimated Free Energy of Binding    =  -4.47 kcal/mol  [=(1)+(2)+(3)-(4)]
DOCKED: USER
DOCKED: USER    (1) Final Intermolecular Energy     =  -5.96 kcal/mol
DOCKED: USER        vdW + Hbond + desolv Energy     =  -5.96 kcal/mol
DOCKED: USER        Electrostatic Energy            =  +0.00 kcal/mol
DOCKED: USER        Moving Ligand-Fixed Receptor    =  -5.96 kcal/mol
DOCKED: USER        Moving Ligand-Moving Receptor   =  +0.00 kcal/mol
DOCKED: USER    (2) Final Total Internal Energy     =  -1.16 kcal/mol
DOCKED: USER    (3) Torsional Free Energy           =  +1.49 kcal/mol
DOCKED: USER    (4) Unbound System's Energy         =  -1.16 kcal/mol
DOCKED: USER
DOCKED: USER
DOCKED: REMARK  5 active torsions:
DOCKED: REMARK  status: ('A' for Active; 'I' for Inactive)
DOCKED: REMARK    1  A    between atoms: C_2  and  C_19 
DOCKED: REMARK    2  A    between atoms: C_2  and  C_11 
DOCKED: REMARK    3  A    between atoms: C_19  and  C_20 
DOCKED: REMARK    4  A    between atoms: C_20  and  C_21 
DOCKED: REMARK    5  A    between atoms: C_21  and  N_22 
DOCKED: USER                              x       y       z     vdW  Elec       q    Type
DOCKED: USER                           _______ _______ _______ _____ _____    ______ ____
DOCKED: ROOT
DOCKED: ATOM      1  O   UNL     1     -36.687 -15.562  12.145 -0.04 -0.00    -0.346 OA 
DOCKED: ATOM      2  C   UNL     1     -37.626 -14.830  11.294 -0.12 +0.00    +0.130 C  
DOCKED: ATOM      3  C   UNL     1     -38.402 -15.912  10.600 -0.22 +0.00    +0.004 A  
DOCKED: ATOM      4  C   UNL     1     -38.017 -17.151  11.092 -0.23 +0.00    +0.006 A  
DOCKED: ATOM      5  C   UNL     1     -36.986 -16.978  12.139 -0.15 +0.00    +0.169 C  
DOCKED: ATOM      6  C   UNL     1     -39.378 -15.807   9.619 -0.25 -0.00    -0.001 A  
DOCKED: ATOM      7  C   UNL     1     -38.588 -18.322  10.622 -0.32 +0.00    +0.008 A  
DOCKED: ATOM      8  C   UNL     1     -39.959 -16.979   9.132 -0.32 +0.00    +0.010 A  
DOCKED: ATOM      9  C   UNL     1     -39.566 -18.230   9.631 -0.31 +0.00    +0.068 A  
DOCKED: ATOM     10  N   UNL     1     -40.670 -20.384   8.708 -2.54 -0.00    -0.191 NA 
DOCKED: ATOM     11  C   UNL     1     -40.174 -19.418   9.121 -0.36 +0.00    +0.101 C  
DOCKED: ENDROOT
DOCKED: BRANCH   2  12
DOCKED: ATOM     12  C   UNL     1     -38.498 -13.951  12.182 -0.05 +0.00    +0.038 C  
DOCKED: BRANCH  12  13
DOCKED: ATOM     13  C   UNL     1     -39.151 -12.825  11.383 -0.07 +0.00    +0.038 C  
DOCKED: BRANCH  13  14
DOCKED: ATOM     14  C   UNL     1     -40.600 -13.164  11.038 -0.10 +0.00    +0.251 C  
DOCKED: BRANCH  14  15
DOCKED: ATOM     15  N   UNL     1     -41.002 -12.484   9.812 -0.18 +0.00    +0.141 N  
DOCKED: ATOM     16  C   UNL     1     -42.016 -11.467  10.095 -0.10 +0.00    +0.285 C  
DOCKED: ATOM     17  C   UNL     1     -39.843 -11.877   9.156 -0.10 +0.00    +0.285 C  
DOCKED: ENDBRANCH  14  15
DOCKED: ENDBRANCH  13  14
DOCKED: ENDBRANCH  12  13
DOCKED: ENDBRANCH   2  12
DOCKED: BRANCH   2  18
DOCKED: ATOM     18  C   UNL     1     -36.811 -14.005  10.354 -0.14 +0.00    +0.006 A  
DOCKED: ATOM     19  C   UNL     1     -36.992 -14.133   8.978 -0.05 +0.00    +0.001 A  
DOCKED: ATOM     20  C   UNL     1     -36.228 -13.362   8.101 -0.13 +0.00    +0.029 A  
DOCKED: ATOM     21  C   UNL     1     -35.287 -12.463   8.601 -0.06 +0.00    +0.140 A  
DOCKED: ATOM     22  C   UNL     1     -35.108 -12.335   9.978 -0.04 +0.00    +0.029 A  
DOCKED: ATOM     23  F   UNL     1     -34.557 -11.721   7.759 -0.00 -0.00    -0.204 F  
DOCKED: ATOM     24  C   UNL     1     -35.870 -13.107  10.856 -0.06 +0.00    +0.001 A  
DOCKED: ENDBRANCH   2  18
DOCKED: TORSDOF 5
DOCKED: TER
DOCKED: ENDMDL
________________________________________________________________________________


    FINAL DOCKED STATE:
    ________________________


Run:   429 / 512
Time taken for this run:   0.002s

DOCKED: MODEL        429
DOCKED: USER    Run = 429
DOCKED: USER
DOCKED: USER    Estimated Free Energy of Binding    =  -4.57 kcal/mol  [=(1)+(2)+(3)-(4)]
DOCKED: USER
DOCKED: USER    (1) Final Intermolecular Energy     =  -6.06 kcal/mol
DOCKED: USER        vdW + Hbond + desolv Energy     =  -6.06 kcal/mol
DOCKED: USER        Electrostatic Energy            =  +0.00 kcal/mol
DOCKED: USER        Moving Ligand-Fixed Receptor    =  -6.06 kcal/mol
DOCKED: USER        Moving Ligand-Moving Receptor   =  +0.00 kcal/mol
DOCKED: USER    (2) Final Total Internal Energy     =  -1.43 kcal/mol
DOCKED: USER    (3) Torsional Free Energy           =  +1.49 kcal/mol
DOCKED: USER    (4) Unbound System's Energy         =  -1.43 kcal/mol
DOCKED: USER
DOCKED: USER
DOCKED: REMARK  5 active torsions:
DOCKED: REMARK  status: ('A' for Active; 'I' for Inactive)
DOCKED: REMARK    1  A    between atoms: C_2  and  C_19 
DOCKED: REMARK    2  A    between atoms: C_2  and  C_11 
DOCKED: REMARK    3  A    between atoms: C_19  and  C_20 
DOCKED: REMARK    4  A    between atoms: C_20  and  C_21 
DOCKED: REMARK    5  A    between atoms: C_21  and  N_22 
DOCKED: USER                              x       y       z     vdW  Elec       q    Type
DOCKED: USER                           _______ _______ _______ _____ _____    ______ ____
DOCKED: ROOT
DOCKED: ATOM      1  O   UNL     1     -39.008 -13.761  10.335 -0.07 -0.00    -0.346 OA 
DOCKED: ATOM      2  C   UNL     1     -40.329 -14.038  10.899 -0.15 +0.00    +0.130 C  
DOCKED: ATOM      3  C   UNL     1     -40.603 -15.457  10.495 -0.21 +0.00    +0.004 A  
DOCKED: ATOM      4  C   UNL     1     -39.491 -15.983   9.852 -0.28 +0.00    +0.006 A  
DOCKED: ATOM      5  C   UNL     1     -38.415 -14.967   9.799 -0.19 +0.00    +0.169 C  
DOCKED: ATOM      6  C   UNL     1     -41.741 -16.226  10.690 -0.19 -0.00    -0.001 A  
DOCKED: ATOM      7  C   UNL     1     -39.478 -17.285   9.382 -0.34 +0.00    +0.008 A  
DOCKED: ATOM      8  C   UNL     1     -41.746 -17.540  10.217 -0.22 +0.00    +0.010 A  
DOCKED: ATOM      9  C   UNL     1     -40.620 -18.066   9.567 -0.26 +0.00    +0.068 A  
DOCKED: ATOM     10  N   UNL     1     -40.660 -20.510   8.707 -2.61 -0.00    -0.191 NA 
DOCKED: ATOM     11  C   UNL     1     -40.642 -19.414   9.092 -0.36 +0.00    +0.101 C  
DOCKED: ENDROOT
DOCKED: BRANCH   2  12
DOCKED: ATOM     12  C   UNL     1     -40.257 -13.854  12.410 -0.05 +0.00    +0.038 C  
DOCKED: BRANCH  12  13
DOCKED: ATOM     13  C   UNL     1     -40.144 -12.378  12.787 -0.02 +0.00    +0.038 C  
DOCKED: BRANCH  13  14
DOCKED: ATOM     14  C   UNL     1     -38.703 -11.888  12.664 -0.01 +0.00    +0.251 C  
DOCKED: BRANCH  14  15
DOCKED: ATOM     15  N   UNL     1     -38.571 -10.979  11.531 -0.01 +0.00    +0.141 N  
DOCKED: ATOM     16  C   UNL     1     -38.666  -9.587  11.973 -0.00 +0.00    +0.285 C  
DOCKED: ATOM     17  C   UNL     1     -37.305 -11.205  10.833 -0.01 +0.00    +0.285 C  
DOCKED: ENDBRANCH  14  15
DOCKED: ENDBRANCH  13  14
DOCKED: ENDBRANCH  12  13
DOCKED: ENDBRANCH   2  12
DOCKED: BRANCH   2  18
DOCKED: ATOM     18  C   UNL     1     -41.279 -13.064  10.283 -0.21 +0.00    +0.006 A  
DOCKED: ATOM     19  C   UNL     1     -42.653 -13.243  10.432 -0.21 +0.00    +0.001 A  
DOCKED: ATOM     20  C   UNL     1     -43.540 -12.332   9.855 -0.20 +0.00    +0.029 A  
DOCKED: ATOM     21  C   UNL     1     -43.051 -11.245   9.132 -0.08 +0.00    +0.140 A  
DOCKED: ATOM     22  C   UNL     1     -41.675 -11.068   8.983 -0.14 +0.00    +0.029 A  
DOCKED: ATOM     23  F   UNL     1     -43.902 -10.371   8.580 -0.03 -0.00    -0.204 F  
DOCKED: ATOM     24  C   UNL     1     -40.788 -11.978   9.559 -0.18 +0.00    +0.001 A  
DOCKED: ENDBRANCH   2  18
DOCKED: TORSDOF 5
DOCKED: TER
DOCKED: ENDMDL
________________________________________________________________________________


    FINAL DOCKED STATE:
    ________________________


Run:   430 / 512
Time taken for this run:   0.002s

DOCKED: MODEL        430
DOCKED: USER    Run = 430
DOCKED: USER
DOCKED: USER    Estimated Free Energy of Binding    =  -4.08 kcal/mol  [=(1)+(2)+(3)-(4)]
DOCKED: USER
DOCKED: USER    (1) Final Intermolecular Energy     =  -5.57 kcal/mol
DOCKED: USER        vdW + Hbond + desolv Energy     =  -5.57 kcal/mol
DOCKED: USER        Electrostatic Energy            =  +0.00 kcal/mol
DOCKED: USER        Moving Ligand-Fixed Receptor    =  -5.57 kcal/mol
DOCKED: USER        Moving Ligand-Moving Receptor   =  +0.00 kcal/mol
DOCKED: USER    (2) Final Total Internal Energy     =  -1.56 kcal/mol
DOCKED: USER    (3) Torsional Free Energy           =  +1.49 kcal/mol
DOCKED: USER    (4) Unbound System's Energy         =  -1.56 kcal/mol
DOCKED: USER
DOCKED: USER
DOCKED: REMARK  5 active torsions:
DOCKED: REMARK  status: ('A' for Active; 'I' for Inactive)
DOCKED: REMARK    1  A    between atoms: C_2  and  C_19 
DOCKED: REMARK    2  A    between atoms: C_2  and  C_11 
DOCKED: REMARK    3  A    between atoms: C_19  and  C_20 
DOCKED: REMARK    4  A    between atoms: C_20  and  C_21 
DOCKED: REMARK    5  A    between atoms: C_21  and  N_22 
DOCKED: USER                              x       y       z     vdW  Elec       q    Type
DOCKED: USER                           _______ _______ _______ _____ _____    ______ ____
DOCKED: ROOT
DOCKED: ATOM      1  O   UNL     1     -36.620 -15.749  11.991 -0.06 -0.00    -0.346 OA 
DOCKED: ATOM      2  C   UNL     1     -37.752 -15.018  11.420 -0.11 +0.00    +0.130 C  
DOCKED: ATOM      3  C   UNL     1     -38.554 -16.081  10.727 -0.22 +0.00    +0.004 A  
DOCKED: ATOM      4  C   UNL     1     -37.992 -17.325  10.974 -0.25 +0.00    +0.006 A  
DOCKED: ATOM      5  C   UNL     1     -36.804 -17.176  11.844 -0.17 +0.00    +0.169 C  
DOCKED: ATOM      6  C   UNL     1     -39.697 -15.958   9.951 -0.27 -0.00    -0.001 A  
DOCKED: ATOM      7  C   UNL     1     -38.545 -18.482  10.453 -0.34 +0.00    +0.008 A  
DOCKED: ATOM      8  C   UNL     1     -40.265 -17.115   9.415 -0.31 +0.00    +0.010 A  
DOCKED: ATOM      9  C   UNL     1     -39.692 -18.371   9.665 -0.31 +0.00    +0.068 A  
DOCKED: ATOM     10  N   UNL     1     -40.774 -20.499   8.659 -2.56 -0.00    -0.191 NA 
DOCKED: ATOM     11  C   UNL     1     -40.288 -19.545   9.109 -0.28 +0.00    +0.101 C  
DOCKED: ENDROOT
DOCKED: BRANCH   2  12
DOCKED: ATOM     12  C   UNL     1     -38.514 -14.344  12.555 -0.05 +0.00    +0.038 C  
DOCKED: BRANCH  12  13
DOCKED: ATOM     13  C   UNL     1     -37.933 -14.721  13.917 -0.02 +0.00    +0.038 C  
DOCKED: BRANCH  13  14
DOCKED: ATOM     14  C   UNL     1     -36.963 -13.650  14.415 -0.00 +0.00    +0.251 C  
DOCKED: BRANCH  14  15
DOCKED: ATOM     15  N   UNL     1     -35.941 -13.384  13.410 -0.01 +0.00    +0.141 N  
DOCKED: ATOM     16  C   UNL     1     -35.886 -11.955  13.096 -0.00 +0.00    +0.285 C  
DOCKED: ATOM     17  C   UNL     1     -34.633 -13.854  13.867 -0.00 +0.00    +0.285 C  
DOCKED: ENDBRANCH  14  15
DOCKED: ENDBRANCH  13  14
DOCKED: ENDBRANCH  12  13
DOCKED: ENDBRANCH   2  12
DOCKED: BRANCH   2  18
DOCKED: ATOM     18  C   UNL     1     -37.188 -14.008  10.477 -0.14 +0.00    +0.006 A  
DOCKED: ATOM     19  C   UNL     1     -37.823 -12.778  10.312 -0.10 +0.00    +0.001 A  
DOCKED: ATOM     20  C   UNL     1     -37.295 -11.835   9.430 -0.08 +0.00    +0.029 A  
DOCKED: ATOM     21  C   UNL     1     -36.133 -12.122   8.715 -0.07 +0.00    +0.140 A  
DOCKED: ATOM     22  C   UNL     1     -35.498 -13.353   8.881 -0.12 +0.00    +0.029 A  
DOCKED: ATOM     23  F   UNL     1     -35.625 -11.216   7.869 -0.01 -0.00    -0.204 F  
DOCKED: ATOM     24  C   UNL     1     -36.026 -14.297   9.763 -0.09 +0.00    +0.001 A  
DOCKED: ENDBRANCH   2  18
DOCKED: TORSDOF 5
DOCKED: TER
DOCKED: ENDMDL
________________________________________________________________________________


    FINAL DOCKED STATE:
    ________________________


Run:   431 / 512
Time taken for this run:   0.002s

DOCKED: MODEL        431
DOCKED: USER    Run = 431
DOCKED: USER
DOCKED: USER    Estimated Free Energy of Binding    =  -3.77 kcal/mol  [=(1)+(2)+(3)-(4)]
DOCKED: USER
DOCKED: USER    (1) Final Intermolecular Energy     =  -5.26 kcal/mol
DOCKED: USER        vdW + Hbond + desolv Energy     =  -5.26 kcal/mol
DOCKED: USER        Electrostatic Energy            =  +0.00 kcal/mol
DOCKED: USER        Moving Ligand-Fixed Receptor    =  -5.26 kcal/mol
DOCKED: USER        Moving Ligand-Moving Receptor   =  +0.00 kcal/mol
DOCKED: USER    (2) Final Total Internal Energy     =  -1.38 kcal/mol
DOCKED: USER    (3) Torsional Free Energy           =  +1.49 kcal/mol
DOCKED: USER    (4) Unbound System's Energy         =  -1.38 kcal/mol
DOCKED: USER
DOCKED: USER
DOCKED: REMARK  5 active torsions:
DOCKED: REMARK  status: ('A' for Active; 'I' for Inactive)
DOCKED: REMARK    1  A    between atoms: C_2  and  C_19 
DOCKED: REMARK    2  A    between atoms: C_2  and  C_11 
DOCKED: REMARK    3  A    between atoms: C_19  and  C_20 
DOCKED: REMARK    4  A    between atoms: C_20  and  C_21 
DOCKED: REMARK    5  A    between atoms: C_21  and  N_22 
DOCKED: USER                              x       y       z     vdW  Elec       q    Type
DOCKED: USER                           _______ _______ _______ _____ _____    ______ ____
DOCKED: ROOT
DOCKED: ATOM      1  O   UNL     1     -29.857 -17.049   2.628 +0.01 -0.00    -0.346 OA 
DOCKED: ATOM      2  C   UNL     1     -31.142 -16.379   2.830 -0.06 +0.00    +0.130 C  
DOCKED: ATOM      3  C   UNL     1     -31.853 -17.255   3.820 -0.11 +0.00    +0.004 A  
DOCKED: ATOM      4  C   UNL     1     -31.007 -18.275   4.233 -0.09 +0.00    +0.006 A  
DOCKED: ATOM      5  C   UNL     1     -29.693 -18.140   3.564 -0.02 +0.00    +0.169 C  
DOCKED: ATOM      6  C   UNL     1     -33.140 -17.151   4.325 -0.20 -0.00    -0.001 A  
DOCKED: ATOM      7  C   UNL     1     -31.417 -19.223   5.155 -0.17 +0.00    +0.008 A  
DOCKED: ATOM      8  C   UNL     1     -33.571 -18.101   5.252 -0.33 +0.00    +0.010 A  
DOCKED: ATOM      9  C   UNL     1     -32.713 -19.132   5.665 -0.28 +0.00    +0.068 A  
DOCKED: ATOM     10  N   UNL     1     -33.541 -20.877   7.391 -2.60 -0.00    -0.191 NA 
DOCKED: ATOM     11  C   UNL     1     -33.170 -20.095   6.616 -0.42 +0.00    +0.101 C  
DOCKED: ENDROOT
DOCKED: BRANCH   2  12
DOCKED: ATOM     12  C   UNL     1     -30.876 -14.976   3.362 -0.02 +0.00    +0.038 C  
DOCKED: BRANCH  12  13
DOCKED: ATOM     13  C   UNL     1     -30.969 -14.931   4.886 -0.03 +0.00    +0.038 C  
DOCKED: BRANCH  13  14
DOCKED: ATOM     14  C   UNL     1     -29.598 -15.140   5.526 -0.00 +0.00    +0.251 C  
DOCKED: BRANCH  14  15
DOCKED: ATOM     15  N   UNL     1     -29.717 -15.972   6.718 -0.01 +0.00    +0.141 N  
DOCKED: ATOM     16  C   UNL     1     -28.448 -16.017   7.445 +0.00 +0.00    +0.285 C  
DOCKED: ATOM     17  C   UNL     1     -30.784 -15.476   7.589 -0.01 +0.00    +0.285 C  
DOCKED: ENDBRANCH  14  15
DOCKED: ENDBRANCH  13  14
DOCKED: ENDBRANCH  12  13
DOCKED: ENDBRANCH   2  12
DOCKED: BRANCH   2  18
DOCKED: ATOM     18  C   UNL     1     -31.823 -16.331   1.502 -0.12 +0.00    +0.006 A  
DOCKED: ATOM     19  C   UNL     1     -32.905 -15.475   1.305 -0.14 +0.00    +0.001 A  
DOCKED: ATOM     20  C   UNL     1     -33.541 -15.432   0.064 -0.16 +0.00    +0.029 A  
DOCKED: ATOM     21  C   UNL     1     -33.093 -16.243  -0.978 -0.15 +0.00    +0.140 A  
DOCKED: ATOM     22  C   UNL     1     -32.010 -17.099  -0.780 -0.13 +0.00    +0.029 A  
DOCKED: ATOM     23  F   UNL     1     -33.703 -16.200  -2.170 -0.09 -0.00    -0.204 F  
DOCKED: ATOM     24  C   UNL     1     -31.374 -17.143   0.462 -0.12 +0.00    +0.001 A  
DOCKED: ENDBRANCH   2  18
DOCKED: TORSDOF 5
DOCKED: TER
DOCKED: ENDMDL
________________________________________________________________________________


    FINAL DOCKED STATE:
    ________________________


Run:   432 / 512
Time taken for this run:   0.002s

DOCKED: MODEL        432
DOCKED: USER    Run = 432
DOCKED: USER
DOCKED: USER    Estimated Free Energy of Binding    =  -3.99 kcal/mol  [=(1)+(2)+(3)-(4)]
DOCKED: USER
DOCKED: USER    (1) Final Intermolecular Energy     =  -5.48 kcal/mol
DOCKED: USER        vdW + Hbond + desolv Energy     =  -5.48 kcal/mol
DOCKED: USER        Electrostatic Energy            =  +0.00 kcal/mol
DOCKED: USER        Moving Ligand-Fixed Receptor    =  -5.48 kcal/mol
DOCKED: USER        Moving Ligand-Moving Receptor   =  +0.00 kcal/mol
DOCKED: USER    (2) Final Total Internal Energy     =  -1.08 kcal/mol
DOCKED: USER    (3) Torsional Free Energy           =  +1.49 kcal/mol
DOCKED: USER    (4) Unbound System's Energy         =  -1.08 kcal/mol
DOCKED: USER
DOCKED: USER
DOCKED: REMARK  5 active torsions:
DOCKED: REMARK  status: ('A' for Active; 'I' for Inactive)
DOCKED: REMARK    1  A    between atoms: C_2  and  C_19 
DOCKED: REMARK    2  A    between atoms: C_2  and  C_11 
DOCKED: REMARK    3  A    between atoms: C_19  and  C_20 
DOCKED: REMARK    4  A    between atoms: C_20  and  C_21 
DOCKED: REMARK    5  A    between atoms: C_21  and  N_22 
DOCKED: USER                              x       y       z     vdW  Elec       q    Type
DOCKED: USER                           _______ _______ _______ _____ _____    ______ ____
DOCKED: ROOT
DOCKED: ATOM      1  O   UNL     1     -31.813 -17.075   1.995 -0.02 -0.00    -0.346 OA 
DOCKED: ATOM      2  C   UNL     1     -31.868 -16.153   3.130 -0.09 +0.00    +0.130 C  
DOCKED: ATOM      3  C   UNL     1     -32.253 -17.030   4.286 -0.13 +0.00    +0.004 A  
DOCKED: ATOM      4  C   UNL     1     -32.305 -18.353   3.872 -0.17 +0.00    +0.006 A  
DOCKED: ATOM      5  C   UNL     1     -31.951 -18.445   2.438 -0.04 +0.00    +0.169 C  
DOCKED: ATOM      6  C   UNL     1     -32.525 -16.685   5.602 -0.16 -0.00    -0.001 A  
DOCKED: ATOM      7  C   UNL     1     -32.632 -19.371   4.752 -0.28 +0.00    +0.008 A  
DOCKED: ATOM      8  C   UNL     1     -32.860 -17.700   6.500 -0.24 +0.00    +0.010 A  
DOCKED: ATOM      9  C   UNL     1     -32.913 -19.036   6.077 -0.31 +0.00    +0.068 A  
DOCKED: ATOM     10  N   UNL     1     -33.534 -20.896   7.771 -2.67 -0.00    -0.191 NA 
DOCKED: ATOM     11  C   UNL     1     -33.256 -20.062   7.011 -0.32 +0.00    +0.101 C  
DOCKED: ENDROOT
DOCKED: BRANCH   2  12
DOCKED: ATOM     12  C   UNL     1     -30.495 -15.515   3.301 -0.02 +0.00    +0.038 C  
DOCKED: BRANCH  12  13
DOCKED: ATOM     13  C   UNL     1     -30.595 -14.156   3.991 -0.01 +0.00    +0.038 C  
DOCKED: BRANCH  13  14
DOCKED: ATOM     14  C   UNL     1     -30.117 -14.239   5.440 -0.00 +0.00    +0.251 C  
DOCKED: BRANCH  14  15
DOCKED: ATOM     15  N   UNL     1     -30.785 -13.230   6.253 -0.01 +0.00    +0.141 N  
DOCKED: ATOM     16  C   UNL     1     -31.230 -13.804   7.524 -0.01 +0.00    +0.285 C  
DOCKED: ATOM     17  C   UNL     1     -29.898 -12.091   6.493 +0.00 +0.00    +0.285 C  
DOCKED: ENDBRANCH  14  15
DOCKED: ENDBRANCH  13  14
DOCKED: ENDBRANCH  12  13
DOCKED: ENDBRANCH   2  12
DOCKED: BRANCH   2  18
DOCKED: ATOM     18  C   UNL     1     -32.903 -15.127   2.809 -0.13 +0.00    +0.006 A  
DOCKED: ATOM     19  C   UNL     1     -32.752 -14.314   1.686 -0.11 +0.00    +0.001 A  
DOCKED: ATOM     20  C   UNL     1     -33.721 -13.354   1.387 -0.15 +0.00    +0.029 A  
DOCKED: ATOM     21  C   UNL     1     -34.837 -13.210   2.209 -0.13 +0.00    +0.140 A  
DOCKED: ATOM     22  C   UNL     1     -34.987 -14.024   3.332 -0.19 +0.00    +0.029 A  
DOCKED: ATOM     23  F   UNL     1     -35.767 -12.290   1.921 -0.09 -0.00    -0.204 F  
DOCKED: ATOM     24  C   UNL     1     -34.019 -14.984   3.632 -0.20 +0.00    +0.001 A  
DOCKED: ENDBRANCH   2  18
DOCKED: TORSDOF 5
DOCKED: TER
DOCKED: ENDMDL
________________________________________________________________________________


    FINAL DOCKED STATE:
    ________________________


Run:   433 / 512
Time taken for this run:   0.002s

DOCKED: MODEL        433
DOCKED: USER    Run = 433
DOCKED: USER
DOCKED: USER    Estimated Free Energy of Binding    =  -4.49 kcal/mol  [=(1)+(2)+(3)-(4)]
DOCKED: USER
DOCKED: USER    (1) Final Intermolecular Energy     =  -5.98 kcal/mol
DOCKED: USER        vdW + Hbond + desolv Energy     =  -5.98 kcal/mol
DOCKED: USER        Electrostatic Energy            =  +0.00 kcal/mol
DOCKED: USER        Moving Ligand-Fixed Receptor    =  -5.98 kcal/mol
DOCKED: USER        Moving Ligand-Moving Receptor   =  +0.00 kcal/mol
DOCKED: USER    (2) Final Total Internal Energy     =  -1.40 kcal/mol
DOCKED: USER    (3) Torsional Free Energy           =  +1.49 kcal/mol
DOCKED: USER    (4) Unbound System's Energy         =  -1.40 kcal/mol
DOCKED: USER
DOCKED: USER
DOCKED: REMARK  5 active torsions:
DOCKED: REMARK  status: ('A' for Active; 'I' for Inactive)
DOCKED: REMARK    1  A    between atoms: C_2  and  C_19 
DOCKED: REMARK    2  A    between atoms: C_2  and  C_11 
DOCKED: REMARK    3  A    between atoms: C_19  and  C_20 
DOCKED: REMARK    4  A    between atoms: C_20  and  C_21 
DOCKED: REMARK    5  A    between atoms: C_21  and  N_22 
DOCKED: USER                              x       y       z     vdW  Elec       q    Type
DOCKED: USER                           _______ _______ _______ _____ _____    ______ ____
DOCKED: ROOT
DOCKED: ATOM      1  O   UNL     1     -38.555 -13.852  10.308 -0.07 -0.00    -0.346 OA 
DOCKED: ATOM      2  C   UNL     1     -39.879 -14.046  10.902 -0.14 +0.00    +0.130 C  
DOCKED: ATOM      3  C   UNL     1     -40.250 -15.446  10.503 -0.21 +0.00    +0.004 A  
DOCKED: ATOM      4  C   UNL     1     -39.187 -16.038   9.836 -0.28 +0.00    +0.006 A  
DOCKED: ATOM      5  C   UNL     1     -38.052 -15.092   9.759 -0.15 +0.00    +0.169 C  
DOCKED: ATOM      6  C   UNL     1     -41.429 -16.142  10.723 -0.19 -0.00    -0.001 A  
DOCKED: ATOM      7  C   UNL     1     -39.266 -17.338   9.365 -0.33 +0.00    +0.008 A  
DOCKED: ATOM      8  C   UNL     1     -41.526 -17.452  10.251 -0.21 +0.00    +0.010 A  
DOCKED: ATOM      9  C   UNL     1     -40.450 -18.047   9.575 -0.27 +0.00    +0.068 A  
DOCKED: ATOM     10  N   UNL     1     -40.662 -20.481   8.715 -2.60 -0.00    -0.191 NA 
DOCKED: ATOM     11  C   UNL     1     -40.567 -19.389   9.100 -0.37 +0.00    +0.101 C  
DOCKED: ENDROOT
DOCKED: BRANCH   2  12
DOCKED: ATOM     12  C   UNL     1     -39.762 -13.871  12.411 -0.05 +0.00    +0.038 C  
DOCKED: BRANCH  12  13
DOCKED: ATOM     13  C   UNL     1     -38.334 -13.517  12.821 -0.03 +0.00    +0.038 C  
DOCKED: BRANCH  13  14
DOCKED: ATOM     14  C   UNL     1     -37.507 -14.776  13.076 -0.02 +0.00    +0.251 C  
DOCKED: BRANCH  14  15
DOCKED: ATOM     15  N   UNL     1     -38.382 -15.907  13.362 -0.03 +0.00    +0.141 N  
DOCKED: ATOM     16  C   UNL     1     -37.890 -17.118  12.703 -0.07 +0.00    +0.285 C  
DOCKED: ATOM     17  C   UNL     1     -38.490 -16.123  14.805 -0.01 +0.00    +0.285 C  
DOCKED: ENDBRANCH  14  15
DOCKED: ENDBRANCH  13  14
DOCKED: ENDBRANCH  12  13
DOCKED: ENDBRANCH   2  12
DOCKED: BRANCH   2  18
DOCKED: ATOM     18  C   UNL     1     -40.779 -13.015  10.308 -0.19 +0.00    +0.006 A  
DOCKED: ATOM     19  C   UNL     1     -40.289 -12.136   9.343 -0.15 +0.00    +0.001 A  
DOCKED: ATOM     20  C   UNL     1     -41.132 -11.171   8.788 -0.12 +0.00    +0.029 A  
DOCKED: ATOM     21  C   UNL     1     -42.461 -11.088   9.199 -0.11 +0.00    +0.140 A  
DOCKED: ATOM     22  C   UNL     1     -42.950 -11.968  10.164 -0.17 +0.00    +0.029 A  
DOCKED: ATOM     23  F   UNL     1     -43.270 -10.163   8.665 -0.02 -0.00    -0.204 F  
DOCKED: ATOM     24  C   UNL     1     -42.108 -12.932  10.720 -0.18 +0.00    +0.001 A  
DOCKED: ENDBRANCH   2  18
DOCKED: TORSDOF 5
DOCKED: TER
DOCKED: ENDMDL
________________________________________________________________________________


    FINAL DOCKED STATE:
    ________________________


Run:   434 / 512
Time taken for this run:   0.002s

DOCKED: MODEL        434
DOCKED: USER    Run = 434
DOCKED: USER
DOCKED: USER    Estimated Free Energy of Binding    =  -4.45 kcal/mol  [=(1)+(2)+(3)-(4)]
DOCKED: USER
DOCKED: USER    (1) Final Intermolecular Energy     =  -5.94 kcal/mol
DOCKED: USER        vdW + Hbond + desolv Energy     =  -5.94 kcal/mol
DOCKED: USER        Electrostatic Energy            =  +0.00 kcal/mol
DOCKED: USER        Moving Ligand-Fixed Receptor    =  -5.94 kcal/mol
DOCKED: USER        Moving Ligand-Moving Receptor   =  +0.00 kcal/mol
DOCKED: USER    (2) Final Total Internal Energy     =  -1.00 kcal/mol
DOCKED: USER    (3) Torsional Free Energy           =  +1.49 kcal/mol
DOCKED: USER    (4) Unbound System's Energy         =  -1.00 kcal/mol
DOCKED: USER
DOCKED: USER
DOCKED: REMARK  5 active torsions:
DOCKED: REMARK  status: ('A' for Active; 'I' for Inactive)
DOCKED: REMARK    1  A    between atoms: C_2  and  C_19 
DOCKED: REMARK    2  A    between atoms: C_2  and  C_11 
DOCKED: REMARK    3  A    between atoms: C_19  and  C_20 
DOCKED: REMARK    4  A    between atoms: C_20  and  C_21 
DOCKED: REMARK    5  A    between atoms: C_21  and  N_22 
DOCKED: USER                              x       y       z     vdW  Elec       q    Type
DOCKED: USER                           _______ _______ _______ _____ _____    ______ ____
DOCKED: ROOT
DOCKED: ATOM      1  O   UNL     1     -41.598 -13.742  10.796 -0.08 -0.00    -0.346 OA 
DOCKED: ATOM      2  C   UNL     1     -40.167 -13.942  10.557 -0.17 +0.00    +0.130 C  
DOCKED: ATOM      3  C   UNL     1     -40.069 -15.383  10.149 -0.23 +0.00    +0.004 A  
DOCKED: ATOM      4  C   UNL     1     -41.341 -15.930  10.054 -0.19 +0.00    +0.006 A  
DOCKED: ATOM      5  C   UNL     1     -42.355 -14.901  10.376 -0.19 +0.00    +0.169 C  
DOCKED: ATOM      6  C   UNL     1     -38.944 -16.146   9.871 -0.28 -0.00    -0.001 A  
DOCKED: ATOM      7  C   UNL     1     -41.532 -17.251   9.686 -0.23 +0.00    +0.008 A  
DOCKED: ATOM      8  C   UNL     1     -39.120 -17.481   9.503 -0.33 +0.00    +0.010 A  
DOCKED: ATOM      9  C   UNL     1     -40.407 -18.030   9.410 -0.28 +0.00    +0.068 A  
DOCKED: ATOM     10  N   UNL     1     -40.698 -20.510   8.719 -2.61 -0.00    -0.191 NA 
DOCKED: ATOM     11  C   UNL     1     -40.568 -19.398   9.030 -0.38 +0.00    +0.101 C  
DOCKED: ENDROOT
DOCKED: BRANCH   2  12
DOCKED: ATOM     12  C   UNL     1     -39.723 -12.982   9.460 -0.07 +0.00    +0.038 C  
DOCKED: BRANCH  12  13
DOCKED: ATOM     13  C   UNL     1     -40.593 -11.727   9.432 -0.19 +0.00    +0.038 C  
DOCKED: BRANCH  13  14
DOCKED: ATOM     14  C   UNL     1     -39.887 -10.585   8.704 -0.11 +0.00    +0.251 C  
DOCKED: BRANCH  14  15
DOCKED: ATOM     15  N   UNL     1     -40.281 -10.557   7.300 -0.16 +0.00    +0.141 N  
DOCKED: ATOM     16  C   UNL     1     -41.622  -9.990   7.152 -0.12 +0.00    +0.285 C  
DOCKED: ATOM     17  C   UNL     1     -39.316  -9.791   6.509 -0.14 +0.00    +0.285 C  
DOCKED: ENDBRANCH  14  15
DOCKED: ENDBRANCH  13  14
DOCKED: ENDBRANCH  12  13
DOCKED: ENDBRANCH   2  12
DOCKED: BRANCH   2  18
DOCKED: ATOM     18  C   UNL     1     -39.466 -13.652  11.843 -0.06 +0.00    +0.006 A  
DOCKED: ATOM     19  C   UNL     1     -40.109 -13.893  13.056 -0.02 +0.00    +0.001 A  
DOCKED: ATOM     20  C   UNL     1     -39.452 -13.622  14.257 -0.00 +0.00    +0.029 A  
DOCKED: ATOM     21  C   UNL     1     -38.155 -13.111  14.243 -0.00 +0.00    +0.140 A  
DOCKED: ATOM     22  C   UNL     1     -37.513 -12.871  13.028 -0.01 +0.00    +0.029 A  
DOCKED: ATOM     23  F   UNL     1     -37.524 -12.853  15.396 -0.00 -0.00    -0.204 F  
DOCKED: ATOM     24  C   UNL     1     -38.169 -13.142  11.826 -0.05 +0.00    +0.001 A  
DOCKED: ENDBRANCH   2  18
DOCKED: TORSDOF 5
DOCKED: TER
DOCKED: ENDMDL
________________________________________________________________________________


    FINAL DOCKED STATE:
    ________________________


Run:   435 / 512
Time taken for this run:   0.002s

DOCKED: MODEL        435
DOCKED: USER    Run = 435
DOCKED: USER
DOCKED: USER    Estimated Free Energy of Binding    =  -5.29 kcal/mol  [=(1)+(2)+(3)-(4)]
DOCKED: USER
DOCKED: USER    (1) Final Intermolecular Energy     =  -6.78 kcal/mol
DOCKED: USER        vdW + Hbond + desolv Energy     =  -6.78 kcal/mol
DOCKED: USER        Electrostatic Energy            =  +0.00 kcal/mol
DOCKED: USER        Moving Ligand-Fixed Receptor    =  -6.78 kcal/mol
DOCKED: USER        Moving Ligand-Moving Receptor   =  +0.00 kcal/mol
DOCKED: USER    (2) Final Total Internal Energy     =  -1.25 kcal/mol
DOCKED: USER    (3) Torsional Free Energy           =  +1.49 kcal/mol
DOCKED: USER    (4) Unbound System's Energy         =  -1.25 kcal/mol
DOCKED: USER
DOCKED: USER
DOCKED: REMARK  5 active torsions:
DOCKED: REMARK  status: ('A' for Active; 'I' for Inactive)
DOCKED: REMARK    1  A    between atoms: C_2  and  C_19 
DOCKED: REMARK    2  A    between atoms: C_2  and  C_11 
DOCKED: REMARK    3  A    between atoms: C_19  and  C_20 
DOCKED: REMARK    4  A    between atoms: C_20  and  C_21 
DOCKED: REMARK    5  A    between atoms: C_21  and  N_22 
DOCKED: USER                              x       y       z     vdW  Elec       q    Type
DOCKED: USER                           _______ _______ _______ _____ _____    ______ ____
DOCKED: ROOT
DOCKED: ATOM      1  O   UNL     1     -39.471 -16.827  11.322 -0.03 -0.00    -0.346 OA 
DOCKED: ATOM      2  C   UNL     1     -39.455 -18.287  11.221 -0.21 +0.00    +0.130 C  
DOCKED: ATOM      3  C   UNL     1     -39.817 -18.552   9.788 -0.35 +0.00    +0.004 A  
DOCKED: ATOM      4  C   UNL     1     -39.922 -17.350   9.103 -0.35 +0.00    +0.006 A  
DOCKED: ATOM      5  C   UNL     1     -39.628 -16.223  10.017 -0.24 +0.00    +0.169 C  
DOCKED: ATOM      6  C   UNL     1     -40.026 -19.761   9.140 -0.11 -0.00    -0.001 A  
DOCKED: ATOM      7  C   UNL     1     -40.241 -17.313   7.756 +0.31 +0.00    +0.008 A  
DOCKED: ATOM      8  C   UNL     1     -40.353 -19.740   7.783 -0.52 +0.00    +0.010 A  
DOCKED: ATOM      9  C   UNL     1     -40.459 -18.523   7.095 -0.44 +0.00    +0.068 A  
DOCKED: ATOM     10  N   UNL     1     -41.063 -18.521   4.575 -3.03 -0.00    -0.191 NA 
DOCKED: ATOM     11  C   UNL     1     -40.793 -18.522   5.706 -0.27 +0.00    +0.101 C  
DOCKED: ENDROOT
DOCKED: BRANCH   2  12
DOCKED: ATOM     12  C   UNL     1     -38.059 -18.780  11.581 -0.22 +0.00    +0.038 C  
DOCKED: BRANCH  12  13
DOCKED: ATOM     13  C   UNL     1     -37.118 -17.616  11.885 -0.23 +0.00    +0.038 C  
DOCKED: BRANCH  13  14
DOCKED: ATOM     14  C   UNL     1     -36.619 -17.675  13.327 -0.05 +0.00    +0.251 C  
DOCKED: BRANCH  14  15
DOCKED: ATOM     15  N   UNL     1     -37.633 -17.156  14.236 -0.05 +0.00    +0.141 N  
DOCKED: ATOM     16  C   UNL     1     -37.191 -17.277  15.627 -0.03 +0.00    +0.285 C  
DOCKED: ATOM     17  C   UNL     1     -37.942 -15.760  13.922 -0.01 +0.00    +0.285 C  
DOCKED: ENDBRANCH  14  15
DOCKED: ENDBRANCH  13  14
DOCKED: ENDBRANCH  12  13
DOCKED: ENDBRANCH   2  12
DOCKED: BRANCH   2  18
DOCKED: ATOM     18  C   UNL     1     -40.473 -18.801  12.183 -0.19 +0.00    +0.006 A  
DOCKED: ATOM     19  C   UNL     1     -40.329 -18.557  13.548 -0.14 +0.00    +0.001 A  
DOCKED: ATOM     20  C   UNL     1     -41.281 -19.039  14.446 -0.13 +0.00    +0.029 A  
DOCKED: ATOM     21  C   UNL     1     -42.376 -19.764  13.979 -0.09 +0.00    +0.140 A  
DOCKED: ATOM     22  C   UNL     1     -42.521 -20.008  12.613 -0.14 +0.00    +0.029 A  
DOCKED: ATOM     23  F   UNL     1     -43.291 -20.225  14.841 -0.02 -0.00    -0.204 F  
DOCKED: ATOM     24  C   UNL     1     -41.568 -19.527  11.714 -0.24 +0.00    +0.001 A  
DOCKED: ENDBRANCH   2  18
DOCKED: TORSDOF 5
DOCKED: TER
DOCKED: ENDMDL
________________________________________________________________________________


    FINAL DOCKED STATE:
    ________________________


Run:   436 / 512
Time taken for this run:   0.002s

DOCKED: MODEL        436
DOCKED: USER    Run = 436
DOCKED: USER
DOCKED: USER    Estimated Free Energy of Binding    =  -4.21 kcal/mol  [=(1)+(2)+(3)-(4)]
DOCKED: USER
DOCKED: USER    (1) Final Intermolecular Energy     =  -5.70 kcal/mol
DOCKED: USER        vdW + Hbond + desolv Energy     =  -5.70 kcal/mol
DOCKED: USER        Electrostatic Energy            =  +0.00 kcal/mol
DOCKED: USER        Moving Ligand-Fixed Receptor    =  -5.70 kcal/mol
DOCKED: USER        Moving Ligand-Moving Receptor   =  +0.00 kcal/mol
DOCKED: USER    (2) Final Total Internal Energy     =  -1.46 kcal/mol
DOCKED: USER    (3) Torsional Free Energy           =  +1.49 kcal/mol
DOCKED: USER    (4) Unbound System's Energy         =  -1.46 kcal/mol
DOCKED: USER
DOCKED: USER
DOCKED: REMARK  5 active torsions:
DOCKED: REMARK  status: ('A' for Active; 'I' for Inactive)
DOCKED: REMARK    1  A    between atoms: C_2  and  C_19 
DOCKED: REMARK    2  A    between atoms: C_2  and  C_11 
DOCKED: REMARK    3  A    between atoms: C_19  and  C_20 
DOCKED: REMARK    4  A    between atoms: C_20  and  C_21 
DOCKED: REMARK    5  A    between atoms: C_21  and  N_22 
DOCKED: USER                              x       y       z     vdW  Elec       q    Type
DOCKED: USER                           _______ _______ _______ _____ _____    ______ ____
DOCKED: ROOT
DOCKED: ATOM      1  O   UNL     1     -39.443 -14.115  11.628 -0.02 -0.00    -0.346 OA 
DOCKED: ATOM      2  C   UNL     1     -40.893 -14.272  11.504 -0.10 +0.00    +0.130 C  
DOCKED: ATOM      3  C   UNL     1     -41.055 -15.619  10.861 -0.18 +0.00    +0.004 A  
DOCKED: ATOM      4  C   UNL     1     -39.815 -16.227  10.731 -0.20 +0.00    +0.006 A  
DOCKED: ATOM      5  C   UNL     1     -38.762 -15.343  11.281 -0.12 +0.00    +0.169 C  
DOCKED: ATOM      6  C   UNL     1     -42.210 -16.260  10.437 -0.21 -0.00    -0.001 A  
DOCKED: ATOM      7  C   UNL     1     -39.684 -17.486  10.171 -0.28 +0.00    +0.008 A  
DOCKED: ATOM      8  C   UNL     1     -42.095 -17.529   9.866 -0.24 +0.00    +0.010 A  
DOCKED: ATOM      9  C   UNL     1     -40.838 -18.139   9.735 -0.24 +0.00    +0.068 A  
DOCKED: ATOM     10  N   UNL     1     -40.660 -20.497   8.676 -2.58 -0.00    -0.191 NA 
DOCKED: ATOM     11  C   UNL     1     -40.740 -19.439   9.150 -0.33 +0.00    +0.101 C  
DOCKED: ENDROOT
DOCKED: BRANCH   2  12
DOCKED: ATOM     12  C   UNL     1     -41.507 -14.201  12.897 -0.04 +0.00    +0.038 C  
DOCKED: BRANCH  12  13
DOCKED: ATOM     13  C   UNL     1     -41.151 -15.434  13.726 -0.03 +0.00    +0.038 C  
DOCKED: BRANCH  13  14
DOCKED: ATOM     14  C   UNL     1     -42.374 -16.323  13.941 -0.01 +0.00    +0.251 C  
DOCKED: BRANCH  14  15
DOCKED: ATOM     15  N   UNL     1     -42.179 -17.617  13.298 -0.04 +0.00    +0.141 N  
DOCKED: ATOM     16  C   UNL     1     -40.902 -18.207  13.702 -0.05 +0.00    +0.285 C  
DOCKED: ATOM     17  C   UNL     1     -43.282 -18.525  13.622 -0.02 +0.00    +0.285 C  
DOCKED: ENDBRANCH  14  15
DOCKED: ENDBRANCH  13  14
DOCKED: ENDBRANCH  12  13
DOCKED: ENDBRANCH   2  12
DOCKED: BRANCH   2  18
DOCKED: ATOM     18  C   UNL     1     -41.380 -13.154  10.643 -0.18 +0.00    +0.006 A  
DOCKED: ATOM     19  C   UNL     1     -40.478 -12.427   9.869 -0.19 +0.00    +0.001 A  
DOCKED: ATOM     20  C   UNL     1     -40.935 -11.382   9.065 -0.15 +0.00    +0.029 A  
DOCKED: ATOM     21  C   UNL     1     -42.292 -11.067   9.036 -0.10 +0.00    +0.140 A  
DOCKED: ATOM     22  C   UNL     1     -43.195 -11.796   9.810 -0.18 +0.00    +0.029 A  
DOCKED: ATOM     23  F   UNL     1     -42.731 -10.065   8.262 -0.03 -0.00    -0.204 F  
DOCKED: ATOM     24  C   UNL     1     -42.739 -12.841  10.615 -0.18 +0.00    +0.001 A  
DOCKED: ENDBRANCH   2  18
DOCKED: TORSDOF 5
DOCKED: TER
DOCKED: ENDMDL
________________________________________________________________________________


    FINAL DOCKED STATE:
    ________________________


Run:   437 / 512
Time taken for this run:   0.002s

DOCKED: MODEL        437
DOCKED: USER    Run = 437
DOCKED: USER
DOCKED: USER    Estimated Free Energy of Binding    =  -3.95 kcal/mol  [=(1)+(2)+(3)-(4)]
DOCKED: USER
DOCKED: USER    (1) Final Intermolecular Energy     =  -5.44 kcal/mol
DOCKED: USER        vdW + Hbond + desolv Energy     =  -5.44 kcal/mol
DOCKED: USER        Electrostatic Energy            =  +0.00 kcal/mol
DOCKED: USER        Moving Ligand-Fixed Receptor    =  -5.44 kcal/mol
DOCKED: USER        Moving Ligand-Moving Receptor   =  +0.00 kcal/mol
DOCKED: USER    (2) Final Total Internal Energy     =  -1.21 kcal/mol
DOCKED: USER    (3) Torsional Free Energy           =  +1.49 kcal/mol
DOCKED: USER    (4) Unbound System's Energy         =  -1.21 kcal/mol
DOCKED: USER
DOCKED: USER
DOCKED: REMARK  5 active torsions:
DOCKED: REMARK  status: ('A' for Active; 'I' for Inactive)
DOCKED: REMARK    1  A    between atoms: C_2  and  C_19 
DOCKED: REMARK    2  A    between atoms: C_2  and  C_11 
DOCKED: REMARK    3  A    between atoms: C_19  and  C_20 
DOCKED: REMARK    4  A    between atoms: C_20  and  C_21 
DOCKED: REMARK    5  A    between atoms: C_21  and  N_22 
DOCKED: USER                              x       y       z     vdW  Elec       q    Type
DOCKED: USER                           _______ _______ _______ _____ _____    ______ ____
DOCKED: ROOT
DOCKED: ATOM      1  O   UNL     1     -42.827 -14.474  11.746 -0.01 -0.00    -0.346 OA 
DOCKED: ATOM      2  C   UNL     1     -41.543 -14.197  11.100 -0.15 +0.00    +0.130 C  
DOCKED: ATOM      3  C   UNL     1     -41.156 -15.514  10.491 -0.22 +0.00    +0.004 A  
DOCKED: ATOM      4  C   UNL     1     -42.179 -16.433  10.675 -0.19 +0.00    +0.006 A  
DOCKED: ATOM      5  C   UNL     1     -43.303 -15.795  11.397 -0.11 +0.00    +0.169 C  
DOCKED: ATOM      6  C   UNL     1     -39.996 -15.866   9.816 -0.26 -0.00    -0.001 A  
DOCKED: ATOM      7  C   UNL     1     -42.078 -17.729  10.199 -0.23 +0.00    +0.008 A  
DOCKED: ATOM      8  C   UNL     1     -39.877 -17.170   9.334 -0.33 +0.00    +0.010 A  
DOCKED: ATOM      9  C   UNL     1     -40.913 -18.097   9.525 -0.25 +0.00    +0.068 A  
DOCKED: ATOM     10  N   UNL     1     -40.661 -20.509   8.613 -2.55 -0.00    -0.191 NA 
DOCKED: ATOM     11  C   UNL     1     -40.774 -19.427   9.022 -0.36 +0.00    +0.101 C  
DOCKED: ENDROOT
DOCKED: BRANCH   2  12
DOCKED: ATOM     12  C   UNL     1     -41.751 -13.101  10.063 -0.24 +0.00    +0.038 C  
DOCKED: BRANCH  12  13
DOCKED: ATOM     13  C   UNL     1     -40.419 -12.600   9.507 -0.18 +0.00    +0.038 C  
DOCKED: BRANCH  13  14
DOCKED: ATOM     14  C   UNL     1     -40.385 -11.074   9.455 -0.11 +0.00    +0.251 C  
DOCKED: BRANCH  14  15
DOCKED: ATOM     15  N   UNL     1     -39.200 -10.569  10.139 -0.04 +0.00    +0.141 N  
DOCKED: ATOM     16  C   UNL     1     -39.467 -10.385  11.566 -0.01 +0.00    +0.285 C  
DOCKED: ATOM     17  C   UNL     1     -38.068 -11.478   9.947 -0.05 +0.00    +0.285 C  
DOCKED: ENDBRANCH  14  15
DOCKED: ENDBRANCH  13  14
DOCKED: ENDBRANCH  12  13
DOCKED: ENDBRANCH   2  12
DOCKED: BRANCH   2  18
DOCKED: ATOM     18  C   UNL     1     -40.604 -13.754  12.172 -0.05 +0.00    +0.006 A  
DOCKED: ATOM     19  C   UNL     1     -41.086 -13.050  13.274 -0.02 +0.00    +0.001 A  
DOCKED: ATOM     20  C   UNL     1     -40.206 -12.636  14.275 -0.00 +0.00    +0.029 A  
DOCKED: ATOM     21  C   UNL     1     -38.847 -12.926  14.172 -0.00 +0.00    +0.140 A  
DOCKED: ATOM     22  C   UNL     1     -38.365 -13.630  13.069 -0.02 +0.00    +0.029 A  
DOCKED: ATOM     23  F   UNL     1     -38.003 -12.530  15.134 +0.00 -0.00    -0.204 F  
DOCKED: ATOM     24  C   UNL     1     -39.244 -14.044  12.067 -0.06 +0.00    +0.001 A  
DOCKED: ENDBRANCH   2  18
DOCKED: TORSDOF 5
DOCKED: TER
DOCKED: ENDMDL
________________________________________________________________________________


    FINAL DOCKED STATE:
    ________________________


Run:   438 / 512
Time taken for this run:   0.002s

DOCKED: MODEL        438
DOCKED: USER    Run = 438
DOCKED: USER
DOCKED: USER    Estimated Free Energy of Binding    =  -4.19 kcal/mol  [=(1)+(2)+(3)-(4)]
DOCKED: USER
DOCKED: USER    (1) Final Intermolecular Energy     =  -5.68 kcal/mol
DOCKED: USER        vdW + Hbond + desolv Energy     =  -5.68 kcal/mol
DOCKED: USER        Electrostatic Energy            =  +0.00 kcal/mol
DOCKED: USER        Moving Ligand-Fixed Receptor    =  -5.68 kcal/mol
DOCKED: USER        Moving Ligand-Moving Receptor   =  +0.00 kcal/mol
DOCKED: USER    (2) Final Total Internal Energy     =  -1.41 kcal/mol
DOCKED: USER    (3) Torsional Free Energy           =  +1.49 kcal/mol
DOCKED: USER    (4) Unbound System's Energy         =  -1.41 kcal/mol
DOCKED: USER
DOCKED: USER
DOCKED: REMARK  5 active torsions:
DOCKED: REMARK  status: ('A' for Active; 'I' for Inactive)
DOCKED: REMARK    1  A    between atoms: C_2  and  C_19 
DOCKED: REMARK    2  A    between atoms: C_2  and  C_11 
DOCKED: REMARK    3  A    between atoms: C_19  and  C_20 
DOCKED: REMARK    4  A    between atoms: C_20  and  C_21 
DOCKED: REMARK    5  A    between atoms: C_21  and  N_22 
DOCKED: USER                              x       y       z     vdW  Elec       q    Type
DOCKED: USER                           _______ _______ _______ _____ _____    ______ ____
DOCKED: ROOT
DOCKED: ATOM      1  O   UNL     1     -38.743 -13.891  10.304 -0.07 -0.00    -0.346 OA 
DOCKED: ATOM      2  C   UNL     1     -39.789 -14.265  11.257 -0.11 +0.00    +0.130 C  
DOCKED: ATOM      3  C   UNL     1     -40.188 -15.648  10.829 -0.18 +0.00    +0.004 A  
DOCKED: ATOM      4  C   UNL     1     -39.367 -16.072   9.794 -0.28 +0.00    +0.006 A  
DOCKED: ATOM      5  C   UNL     1     -38.374 -15.020   9.477 -0.11 +0.00    +0.169 C  
DOCKED: ATOM      6  C   UNL     1     -41.190 -16.470  11.325 -0.13 -0.00    -0.001 A  
DOCKED: ATOM      7  C   UNL     1     -39.520 -17.321   9.218 -0.35 +0.00    +0.008 A  
DOCKED: ATOM      8  C   UNL     1     -41.359 -17.731  10.752 -0.18 +0.00    +0.010 A  
DOCKED: ATOM      9  C   UNL     1     -40.528 -18.155   9.704 -0.25 +0.00    +0.068 A  
DOCKED: ATOM     10  N   UNL     1     -40.866 -20.505   8.667 -2.55 -0.00    -0.191 NA 
DOCKED: ATOM     11  C   UNL     1     -40.715 -19.450   9.132 -0.33 +0.00    +0.101 C  
DOCKED: ENDROOT
DOCKED: BRANCH   2  12
DOCKED: ATOM     12  C   UNL     1     -39.199 -14.225  12.661 -0.04 +0.00    +0.038 C  
DOCKED: BRANCH  12  13
DOCKED: ATOM     13  C   UNL     1     -37.856 -14.950  12.722 -0.05 +0.00    +0.038 C  
DOCKED: BRANCH  13  14
DOCKED: ATOM     14  C   UNL     1     -38.031 -16.391  13.197 -0.04 +0.00    +0.251 C  
DOCKED: BRANCH  14  15
DOCKED: ATOM     15  N   UNL     1     -37.007 -17.247  12.608 -0.12 +0.00    +0.141 N  
DOCKED: ATOM     16  C   UNL     1     -37.609 -18.212  11.687 -0.11 +0.00    +0.285 C  
DOCKED: ATOM     17  C   UNL     1     -36.000 -16.443  11.913 -0.10 +0.00    +0.285 C  
DOCKED: ENDBRANCH  14  15
DOCKED: ENDBRANCH  13  14
DOCKED: ENDBRANCH  12  13
DOCKED: ENDBRANCH   2  12
DOCKED: BRANCH   2  18
DOCKED: ATOM     18  C   UNL     1     -40.891 -13.270  11.107 -0.13 +0.00    +0.006 A  
DOCKED: ATOM     19  C   UNL     1     -41.366 -12.583  12.224 -0.04 +0.00    +0.001 A  
DOCKED: ATOM     20  C   UNL     1     -42.397 -11.653  12.082 -0.04 +0.00    +0.029 A  
DOCKED: ATOM     21  C   UNL     1     -42.950 -11.411  10.826 -0.06 +0.00    +0.140 A  
DOCKED: ATOM     22  C   UNL     1     -42.474 -12.098   9.709 -0.17 +0.00    +0.029 A  
DOCKED: ATOM     23  F   UNL     1     -43.938 -10.517  10.691 +0.01 -0.00    -0.204 F  
DOCKED: ATOM     24  C   UNL     1     -41.444 -13.029   9.850 -0.22 +0.00    +0.001 A  
DOCKED: ENDBRANCH   2  18
DOCKED: TORSDOF 5
DOCKED: TER
DOCKED: ENDMDL
________________________________________________________________________________


    FINAL DOCKED STATE:
    ________________________


Run:   439 / 512
Time taken for this run:   0.002s

DOCKED: MODEL        439
DOCKED: USER    Run = 439
DOCKED: USER
DOCKED: USER    Estimated Free Energy of Binding    =  -4.07 kcal/mol  [=(1)+(2)+(3)-(4)]
DOCKED: USER
DOCKED: USER    (1) Final Intermolecular Energy     =  -5.56 kcal/mol
DOCKED: USER        vdW + Hbond + desolv Energy     =  -5.56 kcal/mol
DOCKED: USER        Electrostatic Energy            =  +0.00 kcal/mol
DOCKED: USER        Moving Ligand-Fixed Receptor    =  -5.56 kcal/mol
DOCKED: USER        Moving Ligand-Moving Receptor   =  +0.00 kcal/mol
DOCKED: USER    (2) Final Total Internal Energy     =  -1.58 kcal/mol
DOCKED: USER    (3) Torsional Free Energy           =  +1.49 kcal/mol
DOCKED: USER    (4) Unbound System's Energy         =  -1.58 kcal/mol
DOCKED: USER
DOCKED: USER
DOCKED: REMARK  5 active torsions:
DOCKED: REMARK  status: ('A' for Active; 'I' for Inactive)
DOCKED: REMARK    1  A    between atoms: C_2  and  C_19 
DOCKED: REMARK    2  A    between atoms: C_2  and  C_11 
DOCKED: REMARK    3  A    between atoms: C_19  and  C_20 
DOCKED: REMARK    4  A    between atoms: C_20  and  C_21 
DOCKED: REMARK    5  A    between atoms: C_21  and  N_22 
DOCKED: USER                              x       y       z     vdW  Elec       q    Type
DOCKED: USER                           _______ _______ _______ _____ _____    ______ ____
DOCKED: ROOT
DOCKED: ATOM      1  O   UNL     1     -39.102 -13.913  11.389 -0.02 -0.00    -0.346 OA 
DOCKED: ATOM      2  C   UNL     1     -40.553 -13.938  11.202 -0.12 +0.00    +0.130 C  
DOCKED: ATOM      3  C   UNL     1     -40.818 -15.297  10.624 -0.21 +0.00    +0.004 A  
DOCKED: ATOM      4  C   UNL     1     -39.638 -16.027  10.586 -0.22 +0.00    +0.006 A  
DOCKED: ATOM      5  C   UNL     1     -38.529 -15.218  11.141 -0.13 +0.00    +0.169 C  
DOCKED: ATOM      6  C   UNL     1     -42.010 -15.849  10.177 -0.21 -0.00    -0.001 A  
DOCKED: ATOM      7  C   UNL     1     -39.607 -17.323  10.100 -0.29 +0.00    +0.008 A  
DOCKED: ATOM      8  C   UNL     1     -41.994 -17.153   9.679 -0.22 +0.00    +0.010 A  
DOCKED: ATOM      9  C   UNL     1     -40.798 -17.886   9.642 -0.24 +0.00    +0.068 A  
DOCKED: ATOM     10  N   UNL     1     -40.805 -20.307   8.717 -2.52 -0.00    -0.191 NA 
DOCKED: ATOM     11  C   UNL     1     -40.802 -19.221   9.132 -0.36 +0.00    +0.101 C  
DOCKED: ENDROOT
DOCKED: BRANCH   2  12
DOCKED: ATOM     12  C   UNL     1     -41.218 -13.730  12.558 -0.05 +0.00    +0.038 C  
DOCKED: BRANCH  12  13
DOCKED: ATOM     13  C   UNL     1     -40.210 -13.267  13.608 -0.01 +0.00    +0.038 C  
DOCKED: BRANCH  13  14
DOCKED: ATOM     14  C   UNL     1     -40.246 -11.748  13.772 -0.00 +0.00    +0.251 C  
DOCKED: BRANCH  14  15
DOCKED: ATOM     15  N   UNL     1     -39.613 -11.099  12.630 -0.01 +0.00    +0.141 N  
DOCKED: ATOM     16  C   UNL     1     -40.122  -9.737  12.463 -0.00 +0.00    +0.285 C  
DOCKED: ATOM     17  C   UNL     1     -38.158 -11.082  12.788 -0.00 +0.00    +0.285 C  
DOCKED: ENDBRANCH  14  15
DOCKED: ENDBRANCH  13  14
DOCKED: ENDBRANCH  12  13
DOCKED: ENDBRANCH   2  12
DOCKED: BRANCH   2  18
DOCKED: ATOM     18  C   UNL     1     -40.891 -12.829  10.262 -0.19 +0.00    +0.006 A  
DOCKED: ATOM     19  C   UNL     1     -42.211 -12.396  10.141 -0.20 +0.00    +0.001 A  
DOCKED: ATOM     20  C   UNL     1     -42.525 -11.360   9.260 -0.13 +0.00    +0.029 A  
DOCKED: ATOM     21  C   UNL     1     -41.521 -10.759   8.503 -0.09 +0.00    +0.140 A  
DOCKED: ATOM     22  C   UNL     1     -40.201 -11.193   8.625 -0.14 +0.00    +0.029 A  
DOCKED: ATOM     23  F   UNL     1     -41.823  -9.763   7.660 -0.03 -0.00    -0.204 F  
DOCKED: ATOM     24  C   UNL     1     -39.885 -12.229   9.505 -0.16 +0.00    +0.001 A  
DOCKED: ENDBRANCH   2  18
DOCKED: TORSDOF 5
DOCKED: TER
DOCKED: ENDMDL
________________________________________________________________________________


    FINAL DOCKED STATE:
    ________________________


Run:   440 / 512
Time taken for this run:   0.002s

DOCKED: MODEL        440
DOCKED: USER    Run = 440
DOCKED: USER
DOCKED: USER    Estimated Free Energy of Binding    =  -3.73 kcal/mol  [=(1)+(2)+(3)-(4)]
DOCKED: USER
DOCKED: USER    (1) Final Intermolecular Energy     =  -5.22 kcal/mol
DOCKED: USER        vdW + Hbond + desolv Energy     =  -5.22 kcal/mol
DOCKED: USER        Electrostatic Energy            =  +0.00 kcal/mol
DOCKED: USER        Moving Ligand-Fixed Receptor    =  -5.22 kcal/mol
DOCKED: USER        Moving Ligand-Moving Receptor   =  +0.00 kcal/mol
DOCKED: USER    (2) Final Total Internal Energy     =  -1.62 kcal/mol
DOCKED: USER    (3) Torsional Free Energy           =  +1.49 kcal/mol
DOCKED: USER    (4) Unbound System's Energy         =  -1.62 kcal/mol
DOCKED: USER
DOCKED: USER
DOCKED: REMARK  5 active torsions:
DOCKED: REMARK  status: ('A' for Active; 'I' for Inactive)
DOCKED: REMARK    1  A    between atoms: C_2  and  C_19 
DOCKED: REMARK    2  A    between atoms: C_2  and  C_11 
DOCKED: REMARK    3  A    between atoms: C_19  and  C_20 
DOCKED: REMARK    4  A    between atoms: C_20  and  C_21 
DOCKED: REMARK    5  A    between atoms: C_21  and  N_22 
DOCKED: USER                              x       y       z     vdW  Elec       q    Type
DOCKED: USER                           _______ _______ _______ _____ _____    ______ ____
DOCKED: ROOT
DOCKED: ATOM      1  O   UNL     1     -39.944 -13.852  11.093 -0.04 -0.00    -0.346 OA 
DOCKED: ATOM      2  C   UNL     1     -38.636 -14.503  11.182 -0.11 +0.00    +0.130 C  
DOCKED: ATOM      3  C   UNL     1     -38.890 -15.891  10.670 -0.22 +0.00    +0.004 A  
DOCKED: ATOM      4  C   UNL     1     -40.200 -15.992  10.223 -0.24 +0.00    +0.006 A  
DOCKED: ATOM      5  C   UNL     1     -40.890 -14.694  10.394 -0.19 +0.00    +0.169 C  
DOCKED: ATOM      6  C   UNL     1     -38.027 -16.975  10.594 -0.23 -0.00    -0.001 A  
DOCKED: ATOM      7  C   UNL     1     -40.692 -17.172   9.693 -0.27 +0.00    +0.008 A  
DOCKED: ATOM      8  C   UNL     1     -38.510 -18.174  10.066 -0.32 +0.00    +0.010 A  
DOCKED: ATOM      9  C   UNL     1     -39.835 -18.271   9.617 -0.30 +0.00    +0.068 A  
DOCKED: ATOM     10  N   UNL     1     -40.697 -20.510   8.637 -2.56 -0.00    -0.191 NA 
DOCKED: ATOM     11  C   UNL     1     -40.311 -19.506   9.077 -0.32 +0.00    +0.101 C  
DOCKED: ENDROOT
DOCKED: BRANCH   2  12
DOCKED: ATOM     12  C   UNL     1     -37.649 -13.724  10.321 -0.16 +0.00    +0.038 C  
DOCKED: BRANCH  12  13
DOCKED: ATOM     13  C   UNL     1     -38.168 -12.321  10.012 -0.11 +0.00    +0.038 C  
DOCKED: BRANCH  13  14
DOCKED: ATOM     14  C   UNL     1     -37.849 -11.354  11.150 -0.02 +0.00    +0.251 C  
DOCKED: BRANCH  14  15
DOCKED: ATOM     15  N   UNL     1     -38.906 -11.385  12.153 -0.01 +0.00    +0.141 N  
DOCKED: ATOM     16  C   UNL     1     -38.468 -10.729  13.386 +0.00 +0.00    +0.285 C  
DOCKED: ATOM     17  C   UNL     1     -40.120 -10.746  11.643 -0.01 +0.00    +0.285 C  
DOCKED: ENDBRANCH  14  15
DOCKED: ENDBRANCH  13  14
DOCKED: ENDBRANCH  12  13
DOCKED: ENDBRANCH   2  12
DOCKED: BRANCH   2  18
DOCKED: ATOM     18  C   UNL     1     -38.234 -14.478  12.619 -0.04 +0.00    +0.006 A  
DOCKED: ATOM     19  C   UNL     1     -36.887 -14.371  12.963 -0.03 +0.00    +0.001 A  
DOCKED: ATOM     20  C   UNL     1     -36.512 -14.348  14.307 -0.01 +0.00    +0.029 A  
DOCKED: ATOM     21  C   UNL     1     -37.483 -14.432  15.304 -0.00 +0.00    +0.140 A  
DOCKED: ATOM     22  C   UNL     1     -38.830 -14.540  14.959 -0.00 +0.00    +0.029 A  
DOCKED: ATOM     23  F   UNL     1     -37.123 -14.409  16.594 +0.00 -0.00    -0.204 F  
DOCKED: ATOM     24  C   UNL     1     -39.206 -14.563  13.615 -0.02 +0.00    +0.001 A  
DOCKED: ENDBRANCH   2  18
DOCKED: TORSDOF 5
DOCKED: TER
DOCKED: ENDMDL
________________________________________________________________________________


    FINAL DOCKED STATE:
    ________________________


Run:   441 / 512
Time taken for this run:   0.002s

DOCKED: MODEL        441
DOCKED: USER    Run = 441
DOCKED: USER
DOCKED: USER    Estimated Free Energy of Binding    =  -3.47 kcal/mol  [=(1)+(2)+(3)-(4)]
DOCKED: USER
DOCKED: USER    (1) Final Intermolecular Energy     =  -4.97 kcal/mol
DOCKED: USER        vdW + Hbond + desolv Energy     =  -4.97 kcal/mol
DOCKED: USER        Electrostatic Energy            =  +0.00 kcal/mol
DOCKED: USER        Moving Ligand-Fixed Receptor    =  -4.97 kcal/mol
DOCKED: USER        Moving Ligand-Moving Receptor   =  +0.00 kcal/mol
DOCKED: USER    (2) Final Total Internal Energy     =  -1.50 kcal/mol
DOCKED: USER    (3) Torsional Free Energy           =  +1.49 kcal/mol
DOCKED: USER    (4) Unbound System's Energy         =  -1.50 kcal/mol
DOCKED: USER
DOCKED: USER
DOCKED: REMARK  5 active torsions:
DOCKED: REMARK  status: ('A' for Active; 'I' for Inactive)
DOCKED: REMARK    1  A    between atoms: C_2  and  C_19 
DOCKED: REMARK    2  A    between atoms: C_2  and  C_11 
DOCKED: REMARK    3  A    between atoms: C_19  and  C_20 
DOCKED: REMARK    4  A    between atoms: C_20  and  C_21 
DOCKED: REMARK    5  A    between atoms: C_21  and  N_22 
DOCKED: USER                              x       y       z     vdW  Elec       q    Type
DOCKED: USER                           _______ _______ _______ _____ _____    ______ ____
DOCKED: ROOT
DOCKED: ATOM      1  O   UNL     1     -33.698  -9.165   3.013 -0.04 -0.00    -0.346 OA 
DOCKED: ATOM      2  C   UNL     1     -32.957  -8.286   2.106 -0.08 +0.00    +0.130 C  
DOCKED: ATOM      3  C   UNL     1     -33.973  -7.900   1.070 -0.14 +0.00    +0.004 A  
DOCKED: ATOM      4  C   UNL     1     -35.212  -8.422   1.414 -0.21 +0.00    +0.006 A  
DOCKED: ATOM      5  C   UNL     1     -35.108  -9.166   2.688 -0.14 +0.00    +0.169 C  
DOCKED: ATOM      6  C   UNL     1     -33.815  -7.139  -0.079 -0.14 -0.00    -0.001 A  
DOCKED: ATOM      7  C   UNL     1     -36.329  -8.206   0.624 -0.33 +0.00    +0.008 A  
DOCKED: ATOM      8  C   UNL     1     -34.930  -6.917  -0.888 -0.26 +0.00    +0.010 A  
DOCKED: ATOM      9  C   UNL     1     -36.181  -7.447  -0.538 -0.34 +0.00    +0.068 A  
DOCKED: ATOM     10  N   UNL     1     -38.233  -7.010  -2.059 -2.56 -0.00    -0.191 NA 
DOCKED: ATOM     11  C   UNL     1     -37.312  -7.207  -1.377 -0.39 +0.00    +0.101 C  
DOCKED: ENDROOT
DOCKED: BRANCH   2  12
DOCKED: ATOM     12  C   UNL     1     -32.441  -7.094   2.904 -0.13 +0.00    +0.038 C  
DOCKED: BRANCH  12  13
DOCKED: ATOM     13  C   UNL     1     -32.259  -7.448   4.378 -0.09 +0.00    +0.038 C  
DOCKED: BRANCH  13  14
DOCKED: ATOM     14  C   UNL     1     -30.895  -8.091   4.625 -0.04 +0.00    +0.251 C  
DOCKED: BRANCH  14  15
DOCKED: ATOM     15  N   UNL     1     -31.045  -9.520   4.869 -0.01 +0.00    +0.141 N  
DOCKED: ATOM     16  C   UNL     1     -29.763 -10.208   4.712 -0.00 +0.00    +0.285 C  
DOCKED: ATOM     17  C   UNL     1     -31.590  -9.761   6.206 -0.02 +0.00    +0.285 C  
DOCKED: ENDBRANCH  14  15
DOCKED: ENDBRANCH  13  14
DOCKED: ENDBRANCH  12  13
DOCKED: ENDBRANCH   2  12
DOCKED: BRANCH   2  18
DOCKED: ATOM     18  C   UNL     1     -31.830  -9.088   1.546 -0.02 +0.00    +0.006 A  
DOCKED: ATOM     19  C   UNL     1     -30.856  -8.468   0.764 -0.01 +0.00    +0.001 A  
DOCKED: ATOM     20  C   UNL     1     -29.803  -9.219   0.240 -0.00 +0.00    +0.029 A  
DOCKED: ATOM     21  C   UNL     1     -29.725 -10.587   0.500 +0.00 +0.00    +0.140 A  
DOCKED: ATOM     22  C   UNL     1     -30.699 -11.205   1.282 -0.00 +0.00    +0.029 A  
DOCKED: ATOM     23  F   UNL     1     -28.713 -11.307  -0.002 +0.00 -0.00    -0.204 F  
DOCKED: ATOM     24  C   UNL     1     -31.754 -10.455   1.806 -0.01 +0.00    +0.001 A  
DOCKED: ENDBRANCH   2  18
DOCKED: TORSDOF 5
DOCKED: TER
DOCKED: ENDMDL
________________________________________________________________________________


    FINAL DOCKED STATE:
    ________________________


Run:   442 / 512
Time taken for this run:   0.002s

DOCKED: MODEL        442
DOCKED: USER    Run = 442
DOCKED: USER
DOCKED: USER    Estimated Free Energy of Binding    =  -3.87 kcal/mol  [=(1)+(2)+(3)-(4)]
DOCKED: USER
DOCKED: USER    (1) Final Intermolecular Energy     =  -5.36 kcal/mol
DOCKED: USER        vdW + Hbond + desolv Energy     =  -5.36 kcal/mol
DOCKED: USER        Electrostatic Energy            =  +0.00 kcal/mol
DOCKED: USER        Moving Ligand-Fixed Receptor    =  -5.36 kcal/mol
DOCKED: USER        Moving Ligand-Moving Receptor   =  +0.00 kcal/mol
DOCKED: USER    (2) Final Total Internal Energy     =  -1.25 kcal/mol
DOCKED: USER    (3) Torsional Free Energy           =  +1.49 kcal/mol
DOCKED: USER    (4) Unbound System's Energy         =  -1.25 kcal/mol
DOCKED: USER
DOCKED: USER
DOCKED: REMARK  5 active torsions:
DOCKED: REMARK  status: ('A' for Active; 'I' for Inactive)
DOCKED: REMARK    1  A    between atoms: C_2  and  C_19 
DOCKED: REMARK    2  A    between atoms: C_2  and  C_11 
DOCKED: REMARK    3  A    between atoms: C_19  and  C_20 
DOCKED: REMARK    4  A    between atoms: C_20  and  C_21 
DOCKED: REMARK    5  A    between atoms: C_21  and  N_22 
DOCKED: USER                              x       y       z     vdW  Elec       q    Type
DOCKED: USER                           _______ _______ _______ _____ _____    ______ ____
DOCKED: ROOT
DOCKED: ATOM      1  O   UNL     1     -30.032 -16.083   4.040 +0.01 -0.00    -0.346 OA 
DOCKED: ATOM      2  C   UNL     1     -31.026 -16.717   3.173 -0.06 +0.00    +0.130 C  
DOCKED: ATOM      3  C   UNL     1     -31.700 -17.715   4.069 -0.11 +0.00    +0.004 A  
DOCKED: ATOM      4  C   UNL     1     -31.212 -17.586   5.362 -0.08 +0.00    +0.006 A  
DOCKED: ATOM      5  C   UNL     1     -30.206 -16.502   5.413 -0.02 +0.00    +0.169 C  
DOCKED: ATOM      6  C   UNL     1     -32.676 -18.654   3.767 -0.13 -0.00    -0.001 A  
DOCKED: ATOM      7  C   UNL     1     -31.675 -18.389   6.390 -0.17 +0.00    +0.008 A  
DOCKED: ATOM      8  C   UNL     1     -33.150 -19.474   4.792 -0.32 +0.00    +0.010 A  
DOCKED: ATOM      9  C   UNL     1     -32.652 -19.342   6.097 -0.31 +0.00    +0.068 A  
DOCKED: ATOM     10  N   UNL     1     -33.558 -20.877   7.978 -2.65 -0.00    -0.191 NA 
DOCKED: ATOM     11  C   UNL     1     -33.151 -20.189   7.135 -0.32 +0.00    +0.101 C  
DOCKED: ENDROOT
DOCKED: BRANCH   2  12
DOCKED: ATOM     12  C   UNL     1     -31.977 -15.641   2.662 -0.10 +0.00    +0.038 C  
DOCKED: BRANCH  12  13
DOCKED: ATOM     13  C   UNL     1     -32.823 -15.062   3.794 -0.12 +0.00    +0.038 C  
DOCKED: BRANCH  13  14
DOCKED: ATOM     14  C   UNL     1     -34.314 -15.193   3.489 -0.14 +0.00    +0.251 C  
DOCKED: BRANCH  14  15
DOCKED: ATOM     15  N   UNL     1     -35.062 -15.445   4.714 -0.28 +0.00    +0.141 N  
DOCKED: ATOM     16  C   UNL     1     -34.251 -16.203   5.668 -0.15 +0.00    +0.285 C  
DOCKED: ATOM     17  C   UNL     1     -35.509 -14.187   5.315 -0.18 +0.00    +0.285 C  
DOCKED: ENDBRANCH  14  15
DOCKED: ENDBRANCH  13  14
DOCKED: ENDBRANCH  12  13
DOCKED: ENDBRANCH   2  12
DOCKED: BRANCH   2  18
DOCKED: ATOM     18  C   UNL     1     -30.281 -17.355   2.049 -0.04 +0.00    +0.006 A  
DOCKED: ATOM     19  C   UNL     1     -30.973 -18.061   1.066 -0.10 +0.00    +0.001 A  
DOCKED: ATOM     20  C   UNL     1     -30.275 -18.658   0.015 -0.06 +0.00    +0.029 A  
DOCKED: ATOM     21  C   UNL     1     -28.887 -18.547  -0.051 -0.01 +0.00    +0.140 A  
DOCKED: ATOM     22  C   UNL     1     -28.195 -17.840   0.932 -0.00 +0.00    +0.029 A  
DOCKED: ATOM     23  F   UNL     1     -28.217 -19.118  -1.061 +0.00 -0.00    -0.204 F  
DOCKED: ATOM     24  C   UNL     1     -28.893 -17.243   1.984 -0.01 +0.00    +0.001 A  
DOCKED: ENDBRANCH   2  18
DOCKED: TORSDOF 5
DOCKED: TER
DOCKED: ENDMDL
________________________________________________________________________________


    FINAL DOCKED STATE:
    ________________________


Run:   443 / 512
Time taken for this run:   0.002s

DOCKED: MODEL        443
DOCKED: USER    Run = 443
DOCKED: USER
DOCKED: USER    Estimated Free Energy of Binding    =  -3.84 kcal/mol  [=(1)+(2)+(3)-(4)]
DOCKED: USER
DOCKED: USER    (1) Final Intermolecular Energy     =  -5.33 kcal/mol
DOCKED: USER        vdW + Hbond + desolv Energy     =  -5.33 kcal/mol
DOCKED: USER        Electrostatic Energy            =  +0.00 kcal/mol
DOCKED: USER        Moving Ligand-Fixed Receptor    =  -5.33 kcal/mol
DOCKED: USER        Moving Ligand-Moving Receptor   =  +0.00 kcal/mol
DOCKED: USER    (2) Final Total Internal Energy     =  -1.42 kcal/mol
DOCKED: USER    (3) Torsional Free Energy           =  +1.49 kcal/mol
DOCKED: USER    (4) Unbound System's Energy         =  -1.42 kcal/mol
DOCKED: USER
DOCKED: USER
DOCKED: REMARK  5 active torsions:
DOCKED: REMARK  status: ('A' for Active; 'I' for Inactive)
DOCKED: REMARK    1  A    between atoms: C_2  and  C_19 
DOCKED: REMARK    2  A    between atoms: C_2  and  C_11 
DOCKED: REMARK    3  A    between atoms: C_19  and  C_20 
DOCKED: REMARK    4  A    between atoms: C_20  and  C_21 
DOCKED: REMARK    5  A    between atoms: C_21  and  N_22 
DOCKED: USER                              x       y       z     vdW  Elec       q    Type
DOCKED: USER                           _______ _______ _______ _____ _____    ______ ____
DOCKED: ROOT
DOCKED: ATOM      1  O   UNL     1     -37.395 -14.997  11.150 -0.06 -0.00    -0.346 OA 
DOCKED: ATOM      2  C   UNL     1     -37.060 -16.192  11.926 -0.14 +0.00    +0.130 C  
DOCKED: ATOM      3  C   UNL     1     -37.878 -17.277  11.286 -0.23 +0.00    +0.004 A  
DOCKED: ATOM      4  C   UNL     1     -38.537 -16.771  10.175 -0.26 +0.00    +0.006 A  
DOCKED: ATOM      5  C   UNL     1     -38.196 -15.342   9.996 -0.18 +0.00    +0.169 C  
DOCKED: ATOM      6  C   UNL     1     -38.018 -18.607  11.653 -0.22 -0.00    -0.001 A  
DOCKED: ATOM      7  C   UNL     1     -39.357 -17.571   9.398 -0.35 +0.00    +0.008 A  
DOCKED: ATOM      8  C   UNL     1     -38.846 -19.426  10.882 -0.35 +0.00    +0.010 A  
DOCKED: ATOM      9  C   UNL     1     -39.511 -18.910   9.760 -0.33 +0.00    +0.068 A  
DOCKED: ATOM     10  N   UNL     1     -41.035 -20.458   8.348 -2.33 -0.00    -0.191 NA 
DOCKED: ATOM     11  C   UNL     1     -40.352 -19.764   8.981 -0.24 +0.00    +0.101 C  
DOCKED: ENDROOT
DOCKED: BRANCH   2  12
DOCKED: ATOM     12  C   UNL     1     -35.560 -16.435  11.814 -0.16 +0.00    +0.038 C  
DOCKED: BRANCH  12  13
DOCKED: ATOM     13  C   UNL     1     -34.769 -15.148  12.034 -0.09 +0.00    +0.038 C  
DOCKED: BRANCH  13  14
DOCKED: ATOM     14  C   UNL     1     -34.045 -14.722  10.758 -0.07 +0.00    +0.251 C  
DOCKED: BRANCH  14  15
DOCKED: ATOM     15  N   UNL     1     -34.565 -13.446  10.282 -0.05 +0.00    +0.141 N  
DOCKED: ATOM     16  C   UNL     1     -35.351 -13.631   9.061 -0.09 +0.00    +0.285 C  
DOCKED: ATOM     17  C   UNL     1     -35.378 -12.802  11.316 -0.02 +0.00    +0.285 C  
DOCKED: ENDBRANCH  14  15
DOCKED: ENDBRANCH  13  14
DOCKED: ENDBRANCH  12  13
DOCKED: ENDBRANCH   2  12
DOCKED: BRANCH   2  18
DOCKED: ATOM     18  C   UNL     1     -37.458 -15.920  13.338 -0.06 +0.00    +0.006 A  
DOCKED: ATOM     19  C   UNL     1     -38.365 -14.901  13.623 -0.02 +0.00    +0.001 A  
DOCKED: ATOM     20  C   UNL     1     -38.735 -14.647  14.944 -0.00 +0.00    +0.029 A  
DOCKED: ATOM     21  C   UNL     1     -38.199 -15.413  15.978 -0.00 +0.00    +0.140 A  
DOCKED: ATOM     22  C   UNL     1     -37.291 -16.433  15.692 -0.02 +0.00    +0.029 A  
DOCKED: ATOM     23  F   UNL     1     -38.556 -15.171  17.246 +0.00 -0.00    -0.204 F  
DOCKED: ATOM     24  C   UNL     1     -36.920 -16.687  14.371 -0.06 +0.00    +0.001 A  
DOCKED: ENDBRANCH   2  18
DOCKED: TORSDOF 5
DOCKED: TER
DOCKED: ENDMDL
________________________________________________________________________________


    FINAL DOCKED STATE:
    ________________________


Run:   444 / 512
Time taken for this run:   0.002s

DOCKED: MODEL        444
DOCKED: USER    Run = 444
DOCKED: USER
DOCKED: USER    Estimated Free Energy of Binding    =  -3.56 kcal/mol  [=(1)+(2)+(3)-(4)]
DOCKED: USER
DOCKED: USER    (1) Final Intermolecular Energy     =  -5.05 kcal/mol
DOCKED: USER        vdW + Hbond + desolv Energy     =  -5.05 kcal/mol
DOCKED: USER        Electrostatic Energy            =  +0.00 kcal/mol
DOCKED: USER        Moving Ligand-Fixed Receptor    =  -5.05 kcal/mol
DOCKED: USER        Moving Ligand-Moving Receptor   =  +0.00 kcal/mol
DOCKED: USER    (2) Final Total Internal Energy     =  -1.22 kcal/mol
DOCKED: USER    (3) Torsional Free Energy           =  +1.49 kcal/mol
DOCKED: USER    (4) Unbound System's Energy         =  -1.22 kcal/mol
DOCKED: USER
DOCKED: USER
DOCKED: REMARK  5 active torsions:
DOCKED: REMARK  status: ('A' for Active; 'I' for Inactive)
DOCKED: REMARK    1  A    between atoms: C_2  and  C_19 
DOCKED: REMARK    2  A    between atoms: C_2  and  C_11 
DOCKED: REMARK    3  A    between atoms: C_19  and  C_20 
DOCKED: REMARK    4  A    between atoms: C_20  and  C_21 
DOCKED: REMARK    5  A    between atoms: C_21  and  N_22 
DOCKED: USER                              x       y       z     vdW  Elec       q    Type
DOCKED: USER                           _______ _______ _______ _____ _____    ______ ____
DOCKED: ROOT
DOCKED: ATOM      1  O   UNL     1     -34.388 -10.233   3.279 -0.02 -0.00    -0.346 OA 
DOCKED: ATOM      2  C   UNL     1     -33.575  -9.174   2.678 -0.09 +0.00    +0.130 C  
DOCKED: ATOM      3  C   UNL     1     -34.480  -8.569   1.645 -0.16 +0.00    +0.004 A  
DOCKED: ATOM      4  C   UNL     1     -35.736  -9.155   1.723 -0.25 +0.00    +0.006 A  
DOCKED: ATOM      5  C   UNL     1     -35.753 -10.165   2.805 -0.19 +0.00    +0.169 C  
DOCKED: ATOM      6  C   UNL     1     -34.217  -7.571   0.717 -0.16 -0.00    -0.001 A  
DOCKED: ATOM      7  C   UNL     1     -36.764  -8.771   0.879 -0.28 +0.00    +0.008 A  
DOCKED: ATOM      8  C   UNL     1     -35.243  -7.176  -0.143 -0.28 +0.00    +0.010 A  
DOCKED: ATOM      9  C   UNL     1     -36.510  -7.772  -0.062 -0.34 +0.00    +0.068 A  
DOCKED: ATOM     10  N   UNL     1     -38.392  -7.011  -1.671 -2.49 -0.00    -0.191 NA 
DOCKED: ATOM     11  C   UNL     1     -37.548  -7.353  -0.950 -0.39 +0.00    +0.101 C  
DOCKED: ENDROOT
DOCKED: BRANCH   2  12
DOCKED: ATOM     12  C   UNL     1     -33.182  -8.189   3.772 -0.13 +0.00    +0.038 C  
DOCKED: BRANCH  12  13
DOCKED: ATOM     13  C   UNL     1     -32.495  -6.955   3.190 -0.13 +0.00    +0.038 C  
DOCKED: BRANCH  13  14
DOCKED: ATOM     14  C   UNL     1     -31.127  -6.733   3.832 -0.06 +0.00    +0.251 C  
DOCKED: BRANCH  14  15
DOCKED: ATOM     15  N   UNL     1     -30.121  -6.475   2.808 -0.01 +0.00    +0.141 N  
DOCKED: ATOM     16  C   UNL     1     -29.126  -7.547   2.781 -0.00 +0.00    +0.285 C  
DOCKED: ATOM     17  C   UNL     1     -30.749  -6.332   1.494 -0.01 +0.00    +0.285 C  
DOCKED: ENDBRANCH  14  15
DOCKED: ENDBRANCH  13  14
DOCKED: ENDBRANCH  12  13
DOCKED: ENDBRANCH   2  12
DOCKED: BRANCH   2  18
DOCKED: ATOM     18  C   UNL     1     -32.373  -9.830   2.086 -0.02 +0.00    +0.006 A  
DOCKED: ATOM     19  C   UNL     1     -31.985  -9.526   0.782 -0.02 +0.00    +0.001 A  
DOCKED: ATOM     20  C   UNL     1     -30.860 -10.140   0.229 -0.00 +0.00    +0.029 A  
DOCKED: ATOM     21  C   UNL     1     -30.125 -11.055   0.981 -0.00 +0.00    +0.140 A  
DOCKED: ATOM     22  C   UNL     1     -30.514 -11.359   2.285 -0.00 +0.00    +0.029 A  
DOCKED: ATOM     23  F   UNL     1     -29.045 -11.643   0.451 +0.00 -0.00    -0.204 F  
DOCKED: ATOM     24  C   UNL     1     -31.639 -10.746   2.839 -0.01 +0.00    +0.001 A  
DOCKED: ENDBRANCH   2  18
DOCKED: TORSDOF 5
DOCKED: TER
DOCKED: ENDMDL
________________________________________________________________________________


    FINAL DOCKED STATE:
    ________________________


Run:   445 / 512
Time taken for this run:   0.002s

DOCKED: MODEL        445
DOCKED: USER    Run = 445
DOCKED: USER
DOCKED: USER    Estimated Free Energy of Binding    =  -5.88 kcal/mol  [=(1)+(2)+(3)-(4)]
DOCKED: USER
DOCKED: USER    (1) Final Intermolecular Energy     =  -7.37 kcal/mol
DOCKED: USER        vdW + Hbond + desolv Energy     =  -7.37 kcal/mol
DOCKED: USER        Electrostatic Energy            =  +0.00 kcal/mol
DOCKED: USER        Moving Ligand-Fixed Receptor    =  -7.37 kcal/mol
DOCKED: USER        Moving Ligand-Moving Receptor   =  +0.00 kcal/mol
DOCKED: USER    (2) Final Total Internal Energy     =  -1.20 kcal/mol
DOCKED: USER    (3) Torsional Free Energy           =  +1.49 kcal/mol
DOCKED: USER    (4) Unbound System's Energy         =  -1.20 kcal/mol
DOCKED: USER
DOCKED: USER
DOCKED: REMARK  5 active torsions:
DOCKED: REMARK  status: ('A' for Active; 'I' for Inactive)
DOCKED: REMARK    1  A    between atoms: C_2  and  C_19 
DOCKED: REMARK    2  A    between atoms: C_2  and  C_11 
DOCKED: REMARK    3  A    between atoms: C_19  and  C_20 
DOCKED: REMARK    4  A    between atoms: C_20  and  C_21 
DOCKED: REMARK    5  A    between atoms: C_21  and  N_22 
DOCKED: USER                              x       y       z     vdW  Elec       q    Type
DOCKED: USER                           _______ _______ _______ _____ _____    ______ ____
DOCKED: ROOT
DOCKED: ATOM      1  O   UNL     1     -38.672 -16.290  11.264 -0.06 -0.00    -0.346 OA 
DOCKED: ATOM      2  C   UNL     1     -38.427 -17.732  11.224 -0.23 +0.00    +0.130 C  
DOCKED: ATOM      3  C   UNL     1     -38.985 -18.154   9.895 -0.34 +0.00    +0.004 A  
DOCKED: ATOM      4  C   UNL     1     -39.410 -17.037   9.191 -0.33 +0.00    +0.006 A  
DOCKED: ATOM      5  C   UNL     1     -39.156 -15.815   9.986 -0.23 +0.00    +0.169 C  
DOCKED: ATOM      6  C   UNL     1     -39.096 -19.425   9.349 -0.41 -0.00    -0.001 A  
DOCKED: ATOM      7  C   UNL     1     -39.962 -17.150   7.926 +0.06 +0.00    +0.008 A  
DOCKED: ATOM      8  C   UNL     1     -39.655 -19.556   8.077 -0.46 +0.00    +0.010 A  
DOCKED: ATOM      9  C   UNL     1     -40.085 -18.424   7.369 -0.39 +0.00    +0.068 A  
DOCKED: ATOM     10  N   UNL     1     -41.112 -18.701   5.006 -3.08 -0.00    -0.191 NA 
DOCKED: ATOM     11  C   UNL     1     -40.652 -18.576   6.066 -0.43 +0.00    +0.101 C  
DOCKED: ENDROOT
DOCKED: BRANCH   2  12
DOCKED: ATOM     12  C   UNL     1     -36.927 -17.970  11.340 -0.19 +0.00    +0.038 C  
DOCKED: BRANCH  12  13
DOCKED: ATOM     13  C   UNL     1     -36.253 -16.881  12.173 -0.18 +0.00    +0.038 C  
DOCKED: BRANCH  13  14
DOCKED: ATOM     14  C   UNL     1     -35.145 -16.190  11.381 -0.05 +0.00    +0.251 C  
DOCKED: BRANCH  14  15
DOCKED: ATOM     15  N   UNL     1     -35.360 -14.749  11.359 -0.08 +0.00    +0.141 N  
DOCKED: ATOM     16  C   UNL     1     -35.837 -14.318  10.044 -0.07 +0.00    +0.285 C  
DOCKED: ATOM     17  C   UNL     1     -36.312 -14.354  12.398 -0.03 +0.00    +0.285 C  
DOCKED: ENDBRANCH  14  15
DOCKED: ENDBRANCH  13  14
DOCKED: ENDBRANCH  12  13
DOCKED: ENDBRANCH   2  12
DOCKED: BRANCH   2  18
DOCKED: ATOM     18  C   UNL     1     -39.159 -18.331  12.379 -0.18 +0.00    +0.006 A  
DOCKED: ATOM     19  C   UNL     1     -38.700 -18.120  13.678 -0.14 +0.00    +0.001 A  
DOCKED: ATOM     20  C   UNL     1     -39.385 -18.681  14.757 -0.13 +0.00    +0.029 A  
DOCKED: ATOM     21  C   UNL     1     -40.526 -19.450  14.535 -0.09 +0.00    +0.140 A  
DOCKED: ATOM     22  C   UNL     1     -40.984 -19.660  13.234 -0.08 +0.00    +0.029 A  
DOCKED: ATOM     23  F   UNL     1     -41.185 -19.987  15.571 -0.03 -0.00    -0.204 F  
DOCKED: ATOM     24  C   UNL     1     -40.300 -19.100  12.155 -0.22 +0.00    +0.001 A  
DOCKED: ENDBRANCH   2  18
DOCKED: TORSDOF 5
DOCKED: TER
DOCKED: ENDMDL
________________________________________________________________________________


    FINAL DOCKED STATE:
    ________________________


Run:   446 / 512
Time taken for this run:   0.002s

DOCKED: MODEL        446
DOCKED: USER    Run = 446
DOCKED: USER
DOCKED: USER    Estimated Free Energy of Binding    =  -3.50 kcal/mol  [=(1)+(2)+(3)-(4)]
DOCKED: USER
DOCKED: USER    (1) Final Intermolecular Energy     =  -4.99 kcal/mol
DOCKED: USER        vdW + Hbond + desolv Energy     =  -4.99 kcal/mol
DOCKED: USER        Electrostatic Energy            =  +0.00 kcal/mol
DOCKED: USER        Moving Ligand-Fixed Receptor    =  -4.99 kcal/mol
DOCKED: USER        Moving Ligand-Moving Receptor   =  +0.00 kcal/mol
DOCKED: USER    (2) Final Total Internal Energy     =  -1.27 kcal/mol
DOCKED: USER    (3) Torsional Free Energy           =  +1.49 kcal/mol
DOCKED: USER    (4) Unbound System's Energy         =  -1.27 kcal/mol
DOCKED: USER
DOCKED: USER
DOCKED: REMARK  5 active torsions:
DOCKED: REMARK  status: ('A' for Active; 'I' for Inactive)
DOCKED: REMARK    1  A    between atoms: C_2  and  C_19 
DOCKED: REMARK    2  A    between atoms: C_2  and  C_11 
DOCKED: REMARK    3  A    between atoms: C_19  and  C_20 
DOCKED: REMARK    4  A    between atoms: C_20  and  C_21 
DOCKED: REMARK    5  A    between atoms: C_21  and  N_22 
DOCKED: USER                              x       y       z     vdW  Elec       q    Type
DOCKED: USER                           _______ _______ _______ _____ _____    ______ ____
DOCKED: ROOT
DOCKED: ATOM      1  O   UNL     1     -31.671  -6.397   0.750 +0.00 -0.00    -0.346 OA 
DOCKED: ATOM      2  C   UNL     1     -31.818  -5.740  -0.550 -0.07 +0.00    +0.130 C  
DOCKED: ATOM      3  C   UNL     1     -33.244  -6.013  -0.932 -0.15 +0.00    +0.004 A  
DOCKED: ATOM      4  C   UNL     1     -33.888  -6.671   0.106 -0.16 +0.00    +0.006 A  
DOCKED: ATOM      5  C   UNL     1     -32.951  -6.866   1.236 -0.09 +0.00    +0.169 C  
DOCKED: ATOM      6  C   UNL     1     -33.921  -5.694  -2.100 -0.09 -0.00    -0.001 A  
DOCKED: ATOM      7  C   UNL     1     -35.220  -7.035   0.013 -0.28 +0.00    +0.008 A  
DOCKED: ATOM      8  C   UNL     1     -35.264  -6.058  -2.212 +0.00 +0.00    +0.010 A  
DOCKED: ATOM      9  C   UNL     1     -35.910  -6.725  -1.160 -0.34 +0.00    +0.068 A  
DOCKED: ATOM     10  N   UNL     1     -38.405  -7.383  -1.398 -2.51 -0.00    -0.191 NA 
DOCKED: ATOM     11  C   UNL     1     -37.286  -7.088  -1.291 -0.43 +0.00    +0.101 C  
DOCKED: ENDROOT
DOCKED: BRANCH   2  12
DOCKED: ATOM     12  C   UNL     1     -31.524  -4.255  -0.376 -0.10 +0.00    +0.038 C  
DOCKED: BRANCH  12  13
DOCKED: ATOM     13  C   UNL     1     -31.974  -3.755   0.995 -0.11 +0.00    +0.038 C  
DOCKED: BRANCH  13  14
DOCKED: ATOM     14  C   UNL     1     -33.015  -2.645   0.861 -0.11 +0.00    +0.251 C  
DOCKED: BRANCH  14  15
DOCKED: ATOM     15  N   UNL     1     -33.998  -2.740   1.933 -0.17 +0.00    +0.141 N  
DOCKED: ATOM     16  C   UNL     1     -34.571  -1.425   2.226 -0.10 +0.00    +0.285 C  
DOCKED: ATOM     17  C   UNL     1     -35.057  -3.687   1.580 -0.17 +0.00    +0.285 C  
DOCKED: ENDBRANCH  14  15
DOCKED: ENDBRANCH  13  14
DOCKED: ENDBRANCH  12  13
DOCKED: ENDBRANCH   2  12
DOCKED: BRANCH   2  18
DOCKED: ATOM     18  C   UNL     1     -30.836  -6.379  -1.474 -0.03 +0.00    +0.006 A  
DOCKED: ATOM     19  C   UNL     1     -30.100  -5.593  -2.360 -0.04 +0.00    +0.001 A  
DOCKED: ATOM     20  C   UNL     1     -29.182  -6.191  -3.224 -0.01 +0.00    +0.029 A  
DOCKED: ATOM     21  C   UNL     1     -29.002  -7.574  -3.201 +0.00 +0.00    +0.140 A  
DOCKED: ATOM     22  C   UNL     1     -29.738  -8.359  -2.315 -0.00 +0.00    +0.029 A  
DOCKED: ATOM     23  F   UNL     1     -28.120  -8.148  -4.030 +0.00 -0.00    -0.204 F  
DOCKED: ATOM     24  C   UNL     1     -30.657  -7.761  -1.451 -0.01 +0.00    +0.001 A  
DOCKED: ENDBRANCH   2  18
DOCKED: TORSDOF 5
DOCKED: TER
DOCKED: ENDMDL
________________________________________________________________________________


    FINAL DOCKED STATE:
    ________________________


Run:   447 / 512
Time taken for this run:   0.002s

DOCKED: MODEL        447
DOCKED: USER    Run = 447
DOCKED: USER
DOCKED: USER    Estimated Free Energy of Binding    =  -4.31 kcal/mol  [=(1)+(2)+(3)-(4)]
DOCKED: USER
DOCKED: USER    (1) Final Intermolecular Energy     =  -5.80 kcal/mol
DOCKED: USER        vdW + Hbond + desolv Energy     =  -5.80 kcal/mol
DOCKED: USER        Electrostatic Energy            =  +0.00 kcal/mol
DOCKED: USER        Moving Ligand-Fixed Receptor    =  -5.80 kcal/mol
DOCKED: USER        Moving Ligand-Moving Receptor   =  +0.00 kcal/mol
DOCKED: USER    (2) Final Total Internal Energy     =  -1.16 kcal/mol
DOCKED: USER    (3) Torsional Free Energy           =  +1.49 kcal/mol
DOCKED: USER    (4) Unbound System's Energy         =  -1.16 kcal/mol
DOCKED: USER
DOCKED: USER
DOCKED: REMARK  5 active torsions:
DOCKED: REMARK  status: ('A' for Active; 'I' for Inactive)
DOCKED: REMARK    1  A    between atoms: C_2  and  C_19 
DOCKED: REMARK    2  A    between atoms: C_2  and  C_11 
DOCKED: REMARK    3  A    between atoms: C_19  and  C_20 
DOCKED: REMARK    4  A    between atoms: C_20  and  C_21 
DOCKED: REMARK    5  A    between atoms: C_21  and  N_22 
DOCKED: USER                              x       y       z     vdW  Elec       q    Type
DOCKED: USER                           _______ _______ _______ _____ _____    ______ ____
DOCKED: ROOT
DOCKED: ATOM      1  O   UNL     1     -38.388 -13.686  10.163 -0.07 -0.00    -0.346 OA 
DOCKED: ATOM      2  C   UNL     1     -39.741 -13.741  10.718 -0.15 +0.00    +0.130 C  
DOCKED: ATOM      3  C   UNL     1     -40.222 -15.116  10.355 -0.22 +0.00    +0.004 A  
DOCKED: ATOM      4  C   UNL     1     -39.197 -15.824   9.744 -0.27 +0.00    +0.006 A  
DOCKED: ATOM      5  C   UNL     1     -37.980 -14.985   9.673 -0.12 +0.00    +0.169 C  
DOCKED: ATOM      6  C   UNL     1     -41.465 -15.698  10.559 -0.21 -0.00    -0.001 A  
DOCKED: ATOM      7  C   UNL     1     -39.377 -17.128   9.315 -0.33 +0.00    +0.008 A  
DOCKED: ATOM      8  C   UNL     1     -41.664 -17.010  10.128 -0.22 +0.00    +0.010 A  
DOCKED: ATOM      9  C   UNL     1     -40.625 -17.722   9.510 -0.26 +0.00    +0.068 A  
DOCKED: ATOM     10  N   UNL     1     -41.026 -20.159   8.726 -2.56 -0.00    -0.191 NA 
DOCKED: ATOM     11  C   UNL     1     -40.847 -19.065   9.077 -0.36 +0.00    +0.101 C  
DOCKED: ENDROOT
DOCKED: BRANCH   2  12
DOCKED: ATOM     12  C   UNL     1     -39.655 -13.521  12.223 -0.05 +0.00    +0.038 C  
DOCKED: BRANCH  12  13
DOCKED: ATOM     13  C   UNL     1     -38.328 -12.873  12.616 -0.03 +0.00    +0.038 C  
DOCKED: BRANCH  13  14
DOCKED: ATOM     14  C   UNL     1     -38.270 -11.418  12.157 -0.01 +0.00    +0.251 C  
DOCKED: BRANCH  14  15
DOCKED: ATOM     15  N   UNL     1     -37.396 -10.645  13.031 -0.00 +0.00    +0.141 N  
DOCKED: ATOM     16  C   UNL     1     -36.135 -11.353  13.259 -0.00 +0.00    +0.285 C  
DOCKED: ATOM     17  C   UNL     1     -37.138  -9.321  12.463 +0.00 +0.00    +0.285 C  
DOCKED: ENDBRANCH  14  15
DOCKED: ENDBRANCH  13  14
DOCKED: ENDBRANCH  12  13
DOCKED: ENDBRANCH   2  12
DOCKED: BRANCH   2  18
DOCKED: ATOM     18  C   UNL     1     -40.527 -12.657  10.059 -0.19 +0.00    +0.006 A  
DOCKED: ATOM     19  C   UNL     1     -39.927 -11.850   9.093 -0.15 +0.00    +0.001 A  
DOCKED: ATOM     20  C   UNL     1     -40.663 -10.837   8.478 -0.14 +0.00    +0.029 A  
DOCKED: ATOM     21  C   UNL     1     -41.997 -10.632   8.829 -0.11 +0.00    +0.140 A  
DOCKED: ATOM     22  C   UNL     1     -42.596 -11.439   9.796 -0.16 +0.00    +0.029 A  
DOCKED: ATOM     23  F   UNL     1     -42.704  -9.660   8.238 -0.02 -0.00    -0.204 F  
DOCKED: ATOM     24  C   UNL     1     -41.860 -12.453  10.412 -0.18 +0.00    +0.001 A  
DOCKED: ENDBRANCH   2  18
DOCKED: TORSDOF 5
DOCKED: TER
DOCKED: ENDMDL
________________________________________________________________________________


    FINAL DOCKED STATE:
    ________________________


Run:   448 / 512
Time taken for this run:   0.002s

DOCKED: MODEL        448
DOCKED: USER    Run = 448
DOCKED: USER
DOCKED: USER    Estimated Free Energy of Binding    =  -5.66 kcal/mol  [=(1)+(2)+(3)-(4)]
DOCKED: USER
DOCKED: USER    (1) Final Intermolecular Energy     =  -7.15 kcal/mol
DOCKED: USER        vdW + Hbond + desolv Energy     =  -7.15 kcal/mol
DOCKED: USER        Electrostatic Energy            =  +0.00 kcal/mol
DOCKED: USER        Moving Ligand-Fixed Receptor    =  -7.15 kcal/mol
DOCKED: USER        Moving Ligand-Moving Receptor   =  +0.00 kcal/mol
DOCKED: USER    (2) Final Total Internal Energy     =  -1.49 kcal/mol
DOCKED: USER    (3) Torsional Free Energy           =  +1.49 kcal/mol
DOCKED: USER    (4) Unbound System's Energy         =  -1.49 kcal/mol
DOCKED: USER
DOCKED: USER
DOCKED: REMARK  5 active torsions:
DOCKED: REMARK  status: ('A' for Active; 'I' for Inactive)
DOCKED: REMARK    1  A    between atoms: C_2  and  C_19 
DOCKED: REMARK    2  A    between atoms: C_2  and  C_11 
DOCKED: REMARK    3  A    between atoms: C_19  and  C_20 
DOCKED: REMARK    4  A    between atoms: C_20  and  C_21 
DOCKED: REMARK    5  A    between atoms: C_21  and  N_22 
DOCKED: USER                              x       y       z     vdW  Elec       q    Type
DOCKED: USER                           _______ _______ _______ _____ _____    ______ ____
DOCKED: ROOT
DOCKED: ATOM      1  O   UNL     1     -38.627 -16.108  11.016 -0.07 -0.00    -0.346 OA 
DOCKED: ATOM      2  C   UNL     1     -38.544 -17.563  11.155 -0.22 +0.00    +0.130 C  
DOCKED: ATOM      3  C   UNL     1     -39.106 -18.080   9.862 -0.34 +0.00    +0.004 A  
DOCKED: ATOM      4  C   UNL     1     -39.383 -17.017   9.015 -0.30 +0.00    +0.006 A  
DOCKED: ATOM      5  C   UNL     1     -39.018 -15.742   9.673 -0.21 +0.00    +0.169 C  
DOCKED: ATOM      6  C   UNL     1     -39.342 -19.388   9.464 -0.40 -0.00    -0.001 A  
DOCKED: ATOM      7  C   UNL     1     -39.908 -17.221   7.750 +0.07 +0.00    +0.008 A  
DOCKED: ATOM      8  C   UNL     1     -39.874 -19.610   8.193 -0.50 +0.00    +0.010 A  
DOCKED: ATOM      9  C   UNL     1     -40.155 -18.532   7.340 -0.42 +0.00    +0.068 A  
DOCKED: ATOM     10  N   UNL     1     -41.138 -18.980   4.985 -2.99 -0.00    -0.191 NA 
DOCKED: ATOM     11  C   UNL     1     -40.698 -18.779   6.042 -0.39 +0.00    +0.101 C  
DOCKED: ENDROOT
DOCKED: BRANCH   2  12
DOCKED: ATOM     12  C   UNL     1     -37.083 -17.945  11.361 -0.23 +0.00    +0.038 C  
DOCKED: BRANCH  12  13
DOCKED: ATOM     13  C   UNL     1     -36.234 -16.727  11.722 -0.19 +0.00    +0.038 C  
DOCKED: BRANCH  13  14
DOCKED: ATOM     14  C   UNL     1     -35.735 -16.812  13.163 -0.08 +0.00    +0.251 C  
DOCKED: BRANCH  14  15
DOCKED: ATOM     15  N   UNL     1     -36.842 -17.098  14.067 -0.06 +0.00    +0.141 N  
DOCKED: ATOM     16  C   UNL     1     -36.480 -18.160  15.007 -0.07 +0.00    +0.285 C  
DOCKED: ATOM     17  C   UNL     1     -37.240 -15.891  14.794 -0.01 +0.00    +0.285 C  
DOCKED: ENDBRANCH  14  15
DOCKED: ENDBRANCH  13  14
DOCKED: ENDBRANCH  12  13
DOCKED: ENDBRANCH   2  12
DOCKED: BRANCH   2  18
DOCKED: ATOM     18  C   UNL     1     -39.371 -17.937  12.340 -0.15 +0.00    +0.006 A  
DOCKED: ATOM     19  C   UNL     1     -39.133 -19.140  13.003 -0.23 +0.00    +0.001 A  
DOCKED: ATOM     20  C   UNL     1     -39.908 -19.488  14.111 -0.16 +0.00    +0.029 A  
DOCKED: ATOM     21  C   UNL     1     -40.916 -18.634  14.553 -0.07 +0.00    +0.140 A  
DOCKED: ATOM     22  C   UNL     1     -41.153 -17.430  13.889 -0.05 +0.00    +0.029 A  
DOCKED: ATOM     23  F   UNL     1     -41.658 -18.967  15.617 -0.00 -0.00    -0.204 F  
DOCKED: ATOM     24  C   UNL     1     -40.379 -17.081  12.781 -0.07 +0.00    +0.001 A  
DOCKED: ENDBRANCH   2  18
DOCKED: TORSDOF 5
DOCKED: TER
DOCKED: ENDMDL
________________________________________________________________________________


    FINAL DOCKED STATE:
    ________________________


Run:   449 / 512
Time taken for this run:   0.002s

DOCKED: MODEL        449
DOCKED: USER    Run = 449
DOCKED: USER
DOCKED: USER    Estimated Free Energy of Binding    =  -3.46 kcal/mol  [=(1)+(2)+(3)-(4)]
DOCKED: USER
DOCKED: USER    (1) Final Intermolecular Energy     =  -4.95 kcal/mol
DOCKED: USER        vdW + Hbond + desolv Energy     =  -4.95 kcal/mol
DOCKED: USER        Electrostatic Energy            =  +0.00 kcal/mol
DOCKED: USER        Moving Ligand-Fixed Receptor    =  -4.95 kcal/mol
DOCKED: USER        Moving Ligand-Moving Receptor   =  +0.00 kcal/mol
DOCKED: USER    (2) Final Total Internal Energy     =  -1.36 kcal/mol
DOCKED: USER    (3) Torsional Free Energy           =  +1.49 kcal/mol
DOCKED: USER    (4) Unbound System's Energy         =  -1.36 kcal/mol
DOCKED: USER
DOCKED: USER
DOCKED: REMARK  5 active torsions:
DOCKED: REMARK  status: ('A' for Active; 'I' for Inactive)
DOCKED: REMARK    1  A    between atoms: C_2  and  C_19 
DOCKED: REMARK    2  A    between atoms: C_2  and  C_11 
DOCKED: REMARK    3  A    between atoms: C_19  and  C_20 
DOCKED: REMARK    4  A    between atoms: C_20  and  C_21 
DOCKED: REMARK    5  A    between atoms: C_21  and  N_22 
DOCKED: USER                              x       y       z     vdW  Elec       q    Type
DOCKED: USER                           _______ _______ _______ _____ _____    ______ ____
DOCKED: ROOT
DOCKED: ATOM      1  O   UNL     1     -38.860 -14.706  10.727 -0.06 -0.00    -0.346 OA 
DOCKED: ATOM      2  C   UNL     1     -39.906 -15.481  11.396 -0.11 +0.00    +0.130 C  
DOCKED: ATOM      3  C   UNL     1     -40.315 -16.495  10.367 -0.23 +0.00    +0.004 A  
DOCKED: ATOM      4  C   UNL     1     -39.499 -16.383   9.250 -0.27 +0.00    +0.006 A  
DOCKED: ATOM      5  C   UNL     1     -38.500 -15.311   9.463 -0.12 +0.00    +0.169 C  
DOCKED: ATOM      6  C   UNL     1     -41.321 -17.449  10.420 -0.21 -0.00    -0.001 A  
DOCKED: ATOM      7  C   UNL     1     -39.661 -17.210   8.152 -0.12 +0.00    +0.008 A  
DOCKED: ATOM      8  C   UNL     1     -41.500 -18.289   9.319 -0.30 +0.00    +0.010 A  
DOCKED: ATOM      9  C   UNL     1     -40.674 -18.170   8.191 -0.34 +0.00    +0.068 A  
DOCKED: ATOM     10  N   UNL     1     -41.030 -19.748   6.167 -1.54 -0.00    -0.191 NA 
DOCKED: ATOM     11  C   UNL     1     -40.871 -19.040   7.075 -0.48 +0.00    +0.101 C  
DOCKED: ENDROOT
DOCKED: BRANCH   2  12
DOCKED: ATOM     12  C   UNL     1     -39.312 -16.113  12.649 -0.08 +0.00    +0.038 C  
DOCKED: BRANCH  12  13
DOCKED: ATOM     13  C   UNL     1     -38.169 -17.065  12.304 -0.16 +0.00    +0.038 C  
DOCKED: BRANCH  13  14
DOCKED: ATOM     14  C   UNL     1     -38.302 -18.382  13.066 -0.09 +0.00    +0.251 C  
DOCKED: BRANCH  14  15
DOCKED: ATOM     15  N   UNL     1     -39.511 -19.086  12.655 -0.17 +0.00    +0.141 N  
DOCKED: ATOM     16  C   UNL     1     -39.176 -20.369  12.035 -0.11 +0.00    +0.285 C  
DOCKED: ATOM     17  C   UNL     1     -40.401 -19.292  13.799 -0.09 +0.00    +0.285 C  
DOCKED: ENDBRANCH  14  15
DOCKED: ENDBRANCH  13  14
DOCKED: ENDBRANCH  12  13
DOCKED: ENDBRANCH   2  12
DOCKED: BRANCH   2  18
DOCKED: ATOM     18  C   UNL     1     -41.002 -14.529  11.740 -0.09 +0.00    +0.006 A  
DOCKED: ATOM     19  C   UNL     1     -41.422 -14.399  13.064 -0.03 +0.00    +0.001 A  
DOCKED: ATOM     20  C   UNL     1     -42.447 -13.509  13.385 -0.02 +0.00    +0.029 A  
DOCKED: ATOM     21  C   UNL     1     -43.049 -12.748  12.383 -0.02 +0.00    +0.140 A  
DOCKED: ATOM     22  C   UNL     1     -42.628 -12.878  11.060 -0.13 +0.00    +0.029 A  
DOCKED: ATOM     23  F   UNL     1     -44.032 -11.892  12.692 +0.01 -0.00    -0.204 F  
DOCKED: ATOM     24  C   UNL     1     -41.603 -13.769  10.738 -0.20 +0.00    +0.001 A  
DOCKED: ENDBRANCH   2  18
DOCKED: TORSDOF 5
DOCKED: TER
DOCKED: ENDMDL
________________________________________________________________________________


    FINAL DOCKED STATE:
    ________________________


Run:   450 / 512
Time taken for this run:   0.002s

DOCKED: MODEL        450
DOCKED: USER    Run = 450
DOCKED: USER
DOCKED: USER    Estimated Free Energy of Binding    =  -3.54 kcal/mol  [=(1)+(2)+(3)-(4)]
DOCKED: USER
DOCKED: USER    (1) Final Intermolecular Energy     =  -5.03 kcal/mol
DOCKED: USER        vdW + Hbond + desolv Energy     =  -5.03 kcal/mol
DOCKED: USER        Electrostatic Energy            =  +0.00 kcal/mol
DOCKED: USER        Moving Ligand-Fixed Receptor    =  -5.03 kcal/mol
DOCKED: USER        Moving Ligand-Moving Receptor   =  +0.00 kcal/mol
DOCKED: USER    (2) Final Total Internal Energy     =  -1.48 kcal/mol
DOCKED: USER    (3) Torsional Free Energy           =  +1.49 kcal/mol
DOCKED: USER    (4) Unbound System's Energy         =  -1.48 kcal/mol
DOCKED: USER
DOCKED: USER
DOCKED: REMARK  5 active torsions:
DOCKED: REMARK  status: ('A' for Active; 'I' for Inactive)
DOCKED: REMARK    1  A    between atoms: C_2  and  C_19 
DOCKED: REMARK    2  A    between atoms: C_2  and  C_11 
DOCKED: REMARK    3  A    between atoms: C_19  and  C_20 
DOCKED: REMARK    4  A    between atoms: C_20  and  C_21 
DOCKED: REMARK    5  A    between atoms: C_21  and  N_22 
DOCKED: USER                              x       y       z     vdW  Elec       q    Type
DOCKED: USER                           _______ _______ _______ _____ _____    ______ ____
DOCKED: ROOT
DOCKED: ATOM      1  O   UNL     1     -31.632  -5.153  -1.448 -0.03 -0.00    -0.346 OA 
DOCKED: ATOM      2  C   UNL     1     -32.106  -5.093  -0.065 -0.09 +0.00    +0.130 C  
DOCKED: ATOM      3  C   UNL     1     -33.532  -5.555  -0.154 -0.03 +0.00    +0.004 A  
DOCKED: ATOM      4  C   UNL     1     -33.815  -5.949  -1.453 -0.16 +0.00    +0.006 A  
DOCKED: ATOM      5  C   UNL     1     -32.611  -5.791  -2.300 -0.08 +0.00    +0.169 C  
DOCKED: ATOM      6  C   UNL     1     -34.498  -5.630   0.839 -0.19 -0.00    -0.001 A  
DOCKED: ATOM      7  C   UNL     1     -35.066  -6.426  -1.806 -0.28 +0.00    +0.008 A  
DOCKED: ATOM      8  C   UNL     1     -35.766  -6.105   0.499 -0.25 +0.00    +0.010 A  
DOCKED: ATOM      9  C   UNL     1     -36.048  -6.501  -0.817 -0.34 +0.00    +0.068 A  
DOCKED: ATOM     10  N   UNL     1     -38.410  -7.382  -1.413 -2.52 -0.00    -0.191 NA 
DOCKED: ATOM     11  C   UNL     1     -37.351  -6.986  -1.146 -0.40 +0.00    +0.101 C  
DOCKED: ENDROOT
DOCKED: BRANCH   2  12
DOCKED: ATOM     12  C   UNL     1     -31.236  -6.013   0.784 -0.04 +0.00    +0.038 C  
DOCKED: BRANCH  12  13
DOCKED: ATOM     13  C   UNL     1     -31.840  -7.412   0.886 -0.04 +0.00    +0.038 C  
DOCKED: BRANCH  13  14
DOCKED: ATOM     14  C   UNL     1     -31.400  -8.287  -0.285 +0.00 +0.00    +0.251 C  
DOCKED: BRANCH  14  15
DOCKED: ATOM     15  N   UNL     1     -32.393  -9.322  -0.547 -0.02 +0.00    +0.141 N  
DOCKED: ATOM     16  C   UNL     1     -33.565  -9.141   0.311 -0.03 +0.00    +0.285 C  
DOCKED: ATOM     17  C   UNL     1     -32.789  -9.313  -1.956 -0.03 +0.00    +0.285 C  
DOCKED: ENDBRANCH  14  15
DOCKED: ENDBRANCH  13  14
DOCKED: ENDBRANCH  12  13
DOCKED: ENDBRANCH   2  12
DOCKED: BRANCH   2  18
DOCKED: ATOM     18  C   UNL     1     -31.981  -3.673   0.378 -0.11 +0.00    +0.006 A  
DOCKED: ATOM     19  C   UNL     1     -32.798  -2.693  -0.184 -0.15 +0.00    +0.001 A  
DOCKED: ATOM     20  C   UNL     1     -32.679  -1.366   0.231 -0.13 +0.00    +0.029 A  
DOCKED: ATOM     21  C   UNL     1     -31.746  -1.022   1.207 -0.03 +0.00    +0.140 A  
DOCKED: ATOM     22  C   UNL     1     -30.930  -2.003   1.770 -0.02 +0.00    +0.029 A  
DOCKED: ATOM     23  F   UNL     1     -31.634   0.252   1.607 +0.00 -0.00    -0.204 F  
DOCKED: ATOM     24  C   UNL     1     -31.047  -3.330   1.355 -0.04 +0.00    +0.001 A  
DOCKED: ENDBRANCH   2  18
DOCKED: TORSDOF 5
DOCKED: TER
DOCKED: ENDMDL
________________________________________________________________________________


    FINAL DOCKED STATE:
    ________________________


Run:   451 / 512
Time taken for this run:   0.002s

DOCKED: MODEL        451
DOCKED: USER    Run = 451
DOCKED: USER
DOCKED: USER    Estimated Free Energy of Binding    =  -3.98 kcal/mol  [=(1)+(2)+(3)-(4)]
DOCKED: USER
DOCKED: USER    (1) Final Intermolecular Energy     =  -5.47 kcal/mol
DOCKED: USER        vdW + Hbond + desolv Energy     =  -5.47 kcal/mol
DOCKED: USER        Electrostatic Energy            =  +0.00 kcal/mol
DOCKED: USER        Moving Ligand-Fixed Receptor    =  -5.47 kcal/mol
DOCKED: USER        Moving Ligand-Moving Receptor   =  +0.00 kcal/mol
DOCKED: USER    (2) Final Total Internal Energy     =  -1.46 kcal/mol
DOCKED: USER    (3) Torsional Free Energy           =  +1.49 kcal/mol
DOCKED: USER    (4) Unbound System's Energy         =  -1.46 kcal/mol
DOCKED: USER
DOCKED: USER
DOCKED: REMARK  5 active torsions:
DOCKED: REMARK  status: ('A' for Active; 'I' for Inactive)
DOCKED: REMARK    1  A    between atoms: C_2  and  C_19 
DOCKED: REMARK    2  A    between atoms: C_2  and  C_11 
DOCKED: REMARK    3  A    between atoms: C_19  and  C_20 
DOCKED: REMARK    4  A    between atoms: C_20  and  C_21 
DOCKED: REMARK    5  A    between atoms: C_21  and  N_22 
DOCKED: USER                              x       y       z     vdW  Elec       q    Type
DOCKED: USER                           _______ _______ _______ _____ _____    ______ ____
DOCKED: ROOT
DOCKED: ATOM      1  O   UNL     1     -37.216 -16.985  13.367 -0.04 -0.00    -0.346 OA 
DOCKED: ATOM      2  C   UNL     1     -37.232 -16.205  12.129 -0.12 +0.00    +0.130 C  
DOCKED: ATOM      3  C   UNL     1     -38.105 -17.008  11.209 -0.22 +0.00    +0.004 A  
DOCKED: ATOM      4  C   UNL     1     -38.633 -18.093  11.895 -0.21 +0.00    +0.006 A  
DOCKED: ATOM      5  C   UNL     1     -38.162 -18.078  13.298 -0.12 +0.00    +0.169 C  
DOCKED: ATOM      6  C   UNL     1     -38.417 -16.789   9.875 -0.18 -0.00    -0.001 A  
DOCKED: ATOM      7  C   UNL     1     -39.481 -18.994  11.274 -0.28 +0.00    +0.008 A  
DOCKED: ATOM      8  C   UNL     1     -39.268 -17.691   9.235 -0.34 +0.00    +0.010 A  
DOCKED: ATOM      9  C   UNL     1     -39.798 -18.788   9.931 -0.29 +0.00    +0.068 A  
DOCKED: ATOM     10  N   UNL     1     -41.378 -20.441   8.713 -2.38 -0.00    -0.191 NA 
DOCKED: ATOM     11  C   UNL     1     -40.669 -19.700   9.259 -0.14 +0.00    +0.101 C  
DOCKED: ENDROOT
DOCKED: BRANCH   2  12
DOCKED: ATOM     12  C   UNL     1     -37.802 -14.825  12.435 -0.06 +0.00    +0.038 C  
DOCKED: BRANCH  12  13
DOCKED: ATOM     13  C   UNL     1     -39.131 -14.925  13.182 -0.04 +0.00    +0.038 C  
DOCKED: BRANCH  13  14
DOCKED: ATOM     14  C   UNL     1     -40.242 -14.198  12.427 -0.02 +0.00    +0.251 C  
DOCKED: BRANCH  14  15
DOCKED: ATOM     15  N   UNL     1     -40.725 -15.018  11.323 -0.09 +0.00    +0.141 N  
DOCKED: ATOM     16  C   UNL     1     -41.680 -16.018  11.802 -0.04 +0.00    +0.285 C  
DOCKED: ATOM     17  C   UNL     1     -41.342 -14.182  10.291 -0.16 +0.00    +0.285 C  
DOCKED: ENDBRANCH  14  15
DOCKED: ENDBRANCH  13  14
DOCKED: ENDBRANCH  12  13
DOCKED: ENDBRANCH   2  12
DOCKED: BRANCH   2  18
DOCKED: ATOM     18  C   UNL     1     -35.820 -16.111  11.655 -0.13 +0.00    +0.006 A  
DOCKED: ATOM     19  C   UNL     1     -34.987 -17.227  11.722 -0.17 +0.00    +0.001 A  
DOCKED: ATOM     20  C   UNL     1     -33.666 -17.137  11.279 -0.15 +0.00    +0.029 A  
DOCKED: ATOM     21  C   UNL     1     -33.182 -15.934  10.770 -0.08 +0.00    +0.140 A  
DOCKED: ATOM     22  C   UNL     1     -34.016 -14.818  10.703 -0.09 +0.00    +0.029 A  
DOCKED: ATOM     23  F   UNL     1     -31.915 -15.848  10.343 -0.01 -0.00    -0.204 F  
DOCKED: ATOM     24  C   UNL     1     -35.337 -14.906  11.146 -0.11 +0.00    +0.001 A  
DOCKED: ENDBRANCH   2  18
DOCKED: TORSDOF 5
DOCKED: TER
DOCKED: ENDMDL
________________________________________________________________________________


    FINAL DOCKED STATE:
    ________________________


Run:   452 / 512
Time taken for this run:   0.002s

DOCKED: MODEL        452
DOCKED: USER    Run = 452
DOCKED: USER
DOCKED: USER    Estimated Free Energy of Binding    =  -4.28 kcal/mol  [=(1)+(2)+(3)-(4)]
DOCKED: USER
DOCKED: USER    (1) Final Intermolecular Energy     =  -5.77 kcal/mol
DOCKED: USER        vdW + Hbond + desolv Energy     =  -5.77 kcal/mol
DOCKED: USER        Electrostatic Energy            =  +0.00 kcal/mol
DOCKED: USER        Moving Ligand-Fixed Receptor    =  -5.77 kcal/mol
DOCKED: USER        Moving Ligand-Moving Receptor   =  +0.00 kcal/mol
DOCKED: USER    (2) Final Total Internal Energy     =  -1.28 kcal/mol
DOCKED: USER    (3) Torsional Free Energy           =  +1.49 kcal/mol
DOCKED: USER    (4) Unbound System's Energy         =  -1.28 kcal/mol
DOCKED: USER
DOCKED: USER
DOCKED: REMARK  5 active torsions:
DOCKED: REMARK  status: ('A' for Active; 'I' for Inactive)
DOCKED: REMARK    1  A    between atoms: C_2  and  C_19 
DOCKED: REMARK    2  A    between atoms: C_2  and  C_11 
DOCKED: REMARK    3  A    between atoms: C_19  and  C_20 
DOCKED: REMARK    4  A    between atoms: C_20  and  C_21 
DOCKED: REMARK    5  A    between atoms: C_21  and  N_22 
DOCKED: USER                              x       y       z     vdW  Elec       q    Type
DOCKED: USER                           _______ _______ _______ _____ _____    ______ ____
DOCKED: ROOT
DOCKED: ATOM      1  O   UNL     1     -39.519 -13.550  10.990 -0.04 -0.00    -0.346 OA 
DOCKED: ATOM      2  C   UNL     1     -40.962 -13.743  11.133 -0.13 +0.00    +0.130 C  
DOCKED: ATOM      3  C   UNL     1     -41.193 -15.134  10.619 -0.21 +0.00    +0.004 A  
DOCKED: ATOM      4  C   UNL     1     -39.976 -15.726  10.312 -0.23 +0.00    +0.006 A  
DOCKED: ATOM      5  C   UNL     1     -38.871 -14.787  10.609 -0.16 +0.00    +0.169 C  
DOCKED: ATOM      6  C   UNL     1     -42.383 -15.825  10.447 -0.22 -0.00    -0.001 A  
DOCKED: ATOM      7  C   UNL     1     -39.907 -17.019   9.822 -0.30 +0.00    +0.008 A  
DOCKED: ATOM      8  C   UNL     1     -42.331 -17.128   9.950 -0.24 +0.00    +0.010 A  
DOCKED: ATOM      9  C   UNL     1     -41.098 -17.722   9.639 -0.23 +0.00    +0.068 A  
DOCKED: ATOM     10  N   UNL     1     -41.036 -20.144   8.722 -2.56 -0.00    -0.191 NA 
DOCKED: ATOM     11  C   UNL     1     -41.064 -19.058   9.133 -0.34 +0.00    +0.101 C  
DOCKED: ENDROOT
DOCKED: BRANCH   2  12
DOCKED: ATOM     12  C   UNL     1     -41.326 -13.586  12.605 -0.04 +0.00    +0.038 C  
DOCKED: BRANCH  12  13
DOCKED: ATOM     13  C   UNL     1     -40.411 -12.580  13.301 -0.02 +0.00    +0.038 C  
DOCKED: BRANCH  13  14
DOCKED: ATOM     14  C   UNL     1     -41.184 -11.751  14.325 -0.00 +0.00    +0.251 C  
DOCKED: BRANCH  14  15
DOCKED: ATOM     15  N   UNL     1     -41.991 -10.739  13.654 -0.00 +0.00    +0.141 N  
DOCKED: ATOM     16  C   UNL     1     -42.599  -9.834  14.630 +0.00 +0.00    +0.285 C  
DOCKED: ATOM     17  C   UNL     1     -41.179  -9.984  12.698 -0.00 +0.00    +0.285 C  
DOCKED: ENDBRANCH  14  15
DOCKED: ENDBRANCH  13  14
DOCKED: ENDBRANCH  12  13
DOCKED: ENDBRANCH   2  12
DOCKED: BRANCH   2  18
DOCKED: ATOM     18  C   UNL     1     -41.627 -12.697  10.301 -0.20 +0.00    +0.006 A  
DOCKED: ATOM     19  C   UNL     1     -40.856 -11.817   9.542 -0.18 +0.00    +0.001 A  
DOCKED: ATOM     20  C   UNL     1     -41.478 -10.840   8.765 -0.15 +0.00    +0.029 A  
DOCKED: ATOM     21  C   UNL     1     -42.869 -10.745   8.746 -0.09 +0.00    +0.140 A  
DOCKED: ATOM     22  C   UNL     1     -43.639 -11.626   9.505 -0.18 +0.00    +0.029 A  
DOCKED: ATOM     23  F   UNL     1     -43.466  -9.808   7.998 -0.03 -0.00    -0.204 F  
DOCKED: ATOM     24  C   UNL     1     -43.018 -12.603  10.283 -0.20 +0.00    +0.001 A  
DOCKED: ENDBRANCH   2  18
DOCKED: TORSDOF 5
DOCKED: TER
DOCKED: ENDMDL
________________________________________________________________________________


    FINAL DOCKED STATE:
    ________________________


Run:   453 / 512
Time taken for this run:   0.002s

DOCKED: MODEL        453
DOCKED: USER    Run = 453
DOCKED: USER
DOCKED: USER    Estimated Free Energy of Binding    =  -4.09 kcal/mol  [=(1)+(2)+(3)-(4)]
DOCKED: USER
DOCKED: USER    (1) Final Intermolecular Energy     =  -5.58 kcal/mol
DOCKED: USER        vdW + Hbond + desolv Energy     =  -5.58 kcal/mol
DOCKED: USER        Electrostatic Energy            =  +0.00 kcal/mol
DOCKED: USER        Moving Ligand-Fixed Receptor    =  -5.58 kcal/mol
DOCKED: USER        Moving Ligand-Moving Receptor   =  +0.00 kcal/mol
DOCKED: USER    (2) Final Total Internal Energy     =  -1.17 kcal/mol
DOCKED: USER    (3) Torsional Free Energy           =  +1.49 kcal/mol
DOCKED: USER    (4) Unbound System's Energy         =  -1.17 kcal/mol
DOCKED: USER
DOCKED: USER
DOCKED: REMARK  5 active torsions:
DOCKED: REMARK  status: ('A' for Active; 'I' for Inactive)
DOCKED: REMARK    1  A    between atoms: C_2  and  C_19 
DOCKED: REMARK    2  A    between atoms: C_2  and  C_11 
DOCKED: REMARK    3  A    between atoms: C_19  and  C_20 
DOCKED: REMARK    4  A    between atoms: C_20  and  C_21 
DOCKED: REMARK    5  A    between atoms: C_21  and  N_22 
DOCKED: USER                              x       y       z     vdW  Elec       q    Type
DOCKED: USER                           _______ _______ _______ _____ _____    ______ ____
DOCKED: ROOT
DOCKED: ATOM      1  O   UNL     1     -31.515 -18.161   1.442 -0.02 -0.00    -0.346 OA 
DOCKED: ATOM      2  C   UNL     1     -31.463 -17.080   2.426 -0.10 +0.00    +0.130 C  
DOCKED: ATOM      3  C   UNL     1     -31.920 -17.731   3.700 -0.13 +0.00    +0.004 A  
DOCKED: ATOM      4  C   UNL     1     -32.110 -19.089   3.488 -0.17 +0.00    +0.006 A  
DOCKED: ATOM      5  C   UNL     1     -31.785 -19.429   2.085 -0.02 +0.00    +0.169 C  
DOCKED: ATOM      6  C   UNL     1     -32.139 -17.168   4.949 -0.13 -0.00    -0.001 A  
DOCKED: ATOM      7  C   UNL     1     -32.527 -19.926   4.509 -0.29 +0.00    +0.008 A  
DOCKED: ATOM      8  C   UNL     1     -32.564 -17.998   5.987 -0.24 +0.00    +0.010 A  
DOCKED: ATOM      9  C   UNL     1     -32.756 -19.371   5.768 -0.31 +0.00    +0.068 A  
DOCKED: ATOM     10  N   UNL     1     -33.541 -20.884   7.719 -2.68 -0.00    -0.191 NA 
DOCKED: ATOM     11  C   UNL     1     -33.189 -20.205   6.844 -0.39 +0.00    +0.101 C  
DOCKED: ENDROOT
DOCKED: BRANCH   2  12
DOCKED: ATOM     12  C   UNL     1     -30.030 -16.566   2.504 -0.02 +0.00    +0.038 C  
DOCKED: BRANCH  12  13
DOCKED: ATOM     13  C   UNL     1     -29.415 -16.421   1.113 -0.01 +0.00    +0.038 C  
DOCKED: BRANCH  13  14
DOCKED: ATOM     14  C   UNL     1     -27.971 -16.920   1.096 -0.00 +0.00    +0.251 C  
DOCKED: BRANCH  14  15
DOCKED: ATOM     15  N   UNL     1     -27.903 -18.292   1.585 -0.00 +0.00    +0.141 N  
DOCKED: ATOM     16  C   UNL     1     -28.608 -19.199   0.677 -0.00 +0.00    +0.285 C  
DOCKED: ATOM     17  C   UNL     1     -26.511 -18.714   1.744 -0.00 +0.00    +0.285 C  
DOCKED: ENDBRANCH  14  15
DOCKED: ENDBRANCH  13  14
DOCKED: ENDBRANCH  12  13
DOCKED: ENDBRANCH   2  12
DOCKED: BRANCH   2  18
DOCKED: ATOM     18  C   UNL     1     -32.393 -16.013   1.953 -0.12 +0.00    +0.006 A  
DOCKED: ATOM     19  C   UNL     1     -32.793 -15.981   0.617 -0.13 +0.00    +0.001 A  
DOCKED: ATOM     20  C   UNL     1     -33.663 -14.983   0.176 -0.21 +0.00    +0.029 A  
DOCKED: ATOM     21  C   UNL     1     -34.130 -14.020   1.068 -0.19 +0.00    +0.140 A  
DOCKED: ATOM     22  C   UNL     1     -33.729 -14.053   2.404 -0.16 +0.00    +0.029 A  
DOCKED: ATOM     23  F   UNL     1     -34.966 -13.063   0.644 -0.12 -0.00    -0.204 F  
DOCKED: ATOM     24  C   UNL     1     -32.859 -15.051   2.847 -0.13 +0.00    +0.001 A  
DOCKED: ENDBRANCH   2  18
DOCKED: TORSDOF 5
DOCKED: TER
DOCKED: ENDMDL
________________________________________________________________________________


    FINAL DOCKED STATE:
    ________________________


Run:   454 / 512
Time taken for this run:   0.002s

DOCKED: MODEL        454
DOCKED: USER    Run = 454
DOCKED: USER
DOCKED: USER    Estimated Free Energy of Binding    =  -4.80 kcal/mol  [=(1)+(2)+(3)-(4)]
DOCKED: USER
DOCKED: USER    (1) Final Intermolecular Energy     =  -6.29 kcal/mol
DOCKED: USER        vdW + Hbond + desolv Energy     =  -6.29 kcal/mol
DOCKED: USER        Electrostatic Energy            =  +0.00 kcal/mol
DOCKED: USER        Moving Ligand-Fixed Receptor    =  -6.29 kcal/mol
DOCKED: USER        Moving Ligand-Moving Receptor   =  +0.00 kcal/mol
DOCKED: USER    (2) Final Total Internal Energy     =  -1.02 kcal/mol
DOCKED: USER    (3) Torsional Free Energy           =  +1.49 kcal/mol
DOCKED: USER    (4) Unbound System's Energy         =  -1.02 kcal/mol
DOCKED: USER
DOCKED: USER
DOCKED: REMARK  5 active torsions:
DOCKED: REMARK  status: ('A' for Active; 'I' for Inactive)
DOCKED: REMARK    1  A    between atoms: C_2  and  C_19 
DOCKED: REMARK    2  A    between atoms: C_2  and  C_11 
DOCKED: REMARK    3  A    between atoms: C_19  and  C_20 
DOCKED: REMARK    4  A    between atoms: C_20  and  C_21 
DOCKED: REMARK    5  A    between atoms: C_21  and  N_22 
DOCKED: USER                              x       y       z     vdW  Elec       q    Type
DOCKED: USER                           _______ _______ _______ _____ _____    ______ ____
DOCKED: ROOT
DOCKED: ATOM      1  O   UNL     1     -40.812 -18.667  12.100 -0.05 -0.00    -0.346 OA 
DOCKED: ATOM      2  C   UNL     1     -40.086 -17.508  11.578 -0.12 +0.00    +0.130 C  
DOCKED: ATOM      3  C   UNL     1     -40.165 -17.675  10.088 -0.27 +0.00    +0.004 A  
DOCKED: ATOM      4  C   UNL     1     -40.959 -18.771   9.783 -0.29 +0.00    +0.006 A  
DOCKED: ATOM      5  C   UNL     1     -41.464 -19.389  11.029 -0.18 +0.00    +0.169 C  
DOCKED: ATOM      6  C   UNL     1     -39.590 -16.911   9.083 -0.33 -0.00    -0.001 A  
DOCKED: ATOM      7  C   UNL     1     -41.201 -19.142   8.471 -0.41 +0.00    +0.008 A  
DOCKED: ATOM      8  C   UNL     1     -39.821 -17.275   7.756 +0.07 +0.00    +0.010 A  
DOCKED: ATOM      9  C   UNL     1     -40.623 -18.385   7.451 -0.39 +0.00    +0.068 A  
DOCKED: ATOM     10  N   UNL     1     -41.035 -19.031   4.976 -2.94 -0.00    -0.191 NA 
DOCKED: ATOM     11  C   UNL     1     -40.850 -18.742   6.086 -0.35 +0.00    +0.101 C  
DOCKED: ENDROOT
DOCKED: BRANCH   2  12
DOCKED: ATOM     12  C   UNL     1     -40.780 -16.243  12.071 -0.09 +0.00    +0.038 C  
DOCKED: BRANCH  12  13
DOCKED: ATOM     13  C   UNL     1     -42.008 -16.575  12.917 -0.07 +0.00    +0.038 C  
DOCKED: BRANCH  13  14
DOCKED: ATOM     14  C   UNL     1     -41.815 -16.128  14.365 -0.00 +0.00    +0.251 C  
DOCKED: BRANCH  14  15
DOCKED: ATOM     15  N   UNL     1     -42.259 -17.171  15.281 -0.02 +0.00    +0.141 N  
DOCKED: ATOM     16  C   UNL     1     -41.858 -16.858  16.654 +0.00 +0.00    +0.285 C  
DOCKED: ATOM     17  C   UNL     1     -43.711 -17.342  15.203 +0.00 +0.00    +0.285 C  
DOCKED: ENDBRANCH  14  15
DOCKED: ENDBRANCH  13  14
DOCKED: ENDBRANCH  12  13
DOCKED: ENDBRANCH   2  12
DOCKED: BRANCH   2  18
DOCKED: ATOM     18  C   UNL     1     -38.691 -17.595  12.100 -0.16 +0.00    +0.006 A  
DOCKED: ATOM     19  C   UNL     1     -37.612 -17.435  11.232 -0.24 +0.00    +0.001 A  
DOCKED: ATOM     20  C   UNL     1     -36.307 -17.518  11.721 -0.19 +0.00    +0.029 A  
DOCKED: ATOM     21  C   UNL     1     -36.085 -17.759  13.076 +0.00 +0.00    +0.140 A  
DOCKED: ATOM     22  C   UNL     1     -37.165 -17.919  13.944 -0.11 +0.00    +0.029 A  
DOCKED: ATOM     23  F   UNL     1     -34.833 -17.836  13.546 -0.03 -0.00    -0.204 F  
DOCKED: ATOM     24  C   UNL     1     -38.470 -17.837  13.455 -0.13 +0.00    +0.001 A  
DOCKED: ENDBRANCH   2  18
DOCKED: TORSDOF 5
DOCKED: TER
DOCKED: ENDMDL
________________________________________________________________________________


    FINAL DOCKED STATE:
    ________________________


Run:   455 / 512
Time taken for this run:   0.002s

DOCKED: MODEL        455
DOCKED: USER    Run = 455
DOCKED: USER
DOCKED: USER    Estimated Free Energy of Binding    =  -3.78 kcal/mol  [=(1)+(2)+(3)-(4)]
DOCKED: USER
DOCKED: USER    (1) Final Intermolecular Energy     =  -5.27 kcal/mol
DOCKED: USER        vdW + Hbond + desolv Energy     =  -5.27 kcal/mol
DOCKED: USER        Electrostatic Energy            =  +0.00 kcal/mol
DOCKED: USER        Moving Ligand-Fixed Receptor    =  -5.27 kcal/mol
DOCKED: USER        Moving Ligand-Moving Receptor   =  +0.00 kcal/mol
DOCKED: USER    (2) Final Total Internal Energy     =  -1.24 kcal/mol
DOCKED: USER    (3) Torsional Free Energy           =  +1.49 kcal/mol
DOCKED: USER    (4) Unbound System's Energy         =  -1.24 kcal/mol
DOCKED: USER
DOCKED: USER
DOCKED: REMARK  5 active torsions:
DOCKED: REMARK  status: ('A' for Active; 'I' for Inactive)
DOCKED: REMARK    1  A    between atoms: C_2  and  C_19 
DOCKED: REMARK    2  A    between atoms: C_2  and  C_11 
DOCKED: REMARK    3  A    between atoms: C_19  and  C_20 
DOCKED: REMARK    4  A    between atoms: C_20  and  C_21 
DOCKED: REMARK    5  A    between atoms: C_21  and  N_22 
DOCKED: USER                              x       y       z     vdW  Elec       q    Type
DOCKED: USER                           _______ _______ _______ _____ _____    ______ ____
DOCKED: ROOT
DOCKED: ATOM      1  O   UNL     1     -32.240  -5.524   1.646 -0.02 -0.00    -0.346 OA 
DOCKED: ATOM      2  C   UNL     1     -32.121  -5.253   0.213 -0.08 +0.00    +0.130 C  
DOCKED: ATOM      3  C   UNL     1     -33.441  -5.699  -0.348 -0.08 +0.00    +0.004 A  
DOCKED: ATOM      4  C   UNL     1     -34.281  -6.087   0.687 -0.22 +0.00    +0.006 A  
DOCKED: ATOM      5  C   UNL     1     -33.590  -5.915   1.985 -0.16 +0.00    +0.169 C  
DOCKED: ATOM      6  C   UNL     1     -33.868  -5.747  -1.667 -0.08 -0.00    -0.001 A  
DOCKED: ATOM      7  C   UNL     1     -35.566  -6.538   0.441 -0.32 +0.00    +0.008 A  
DOCKED: ATOM      8  C   UNL     1     -35.161  -6.203  -1.931 -0.23 +0.00    +0.010 A  
DOCKED: ATOM      9  C   UNL     1     -36.005  -6.596  -0.882 -0.35 +0.00    +0.068 A  
DOCKED: ATOM     10  N   UNL     1     -38.401  -7.433  -1.407 -2.43 -0.00    -0.191 NA 
DOCKED: ATOM     11  C   UNL     1     -37.326  -7.058  -1.172 -0.42 +0.00    +0.101 C  
DOCKED: ENDROOT
DOCKED: BRANCH   2  12
DOCKED: ATOM     12  C   UNL     1     -31.870  -3.762   0.022 -0.13 +0.00    +0.038 C  
DOCKED: BRANCH  12  13
DOCKED: ATOM     13  C   UNL     1     -33.139  -2.948   0.262 -0.20 +0.00    +0.038 C  
DOCKED: BRANCH  13  14
DOCKED: ATOM     14  C   UNL     1     -33.318  -2.633   1.746 -0.11 +0.00    +0.251 C  
DOCKED: BRANCH  14  15
DOCKED: ATOM     15  N   UNL     1     -34.468  -1.759   1.945 -0.16 +0.00    +0.141 N  
DOCKED: ATOM     16  C   UNL     1     -35.715  -2.521   1.866 -0.14 +0.00    +0.285 C  
DOCKED: ATOM     17  C   UNL     1     -34.375  -1.069   3.233 -0.06 +0.00    +0.285 C  
DOCKED: ENDBRANCH  14  15
DOCKED: ENDBRANCH  13  14
DOCKED: ENDBRANCH  12  13
DOCKED: ENDBRANCH   2  12
DOCKED: BRANCH   2  18
DOCKED: ATOM     18  C   UNL     1     -30.973  -6.062  -0.291 -0.03 +0.00    +0.006 A  
DOCKED: ATOM     19  C   UNL     1     -29.908  -5.434  -0.936 -0.02 +0.00    +0.001 A  
DOCKED: ATOM     20  C   UNL     1     -28.835  -6.191  -1.407 -0.01 +0.00    +0.029 A  
DOCKED: ATOM     21  C   UNL     1     -28.827  -7.574  -1.231 +0.00 +0.00    +0.140 A  
DOCKED: ATOM     22  C   UNL     1     -29.892  -8.202  -0.585 -0.00 +0.00    +0.029 A  
DOCKED: ATOM     23  F   UNL     1     -27.796  -8.301  -1.681 +0.00 -0.00    -0.204 F  
DOCKED: ATOM     24  C   UNL     1     -30.966  -7.445  -0.114 -0.02 +0.00    +0.001 A  
DOCKED: ENDBRANCH   2  18
DOCKED: TORSDOF 5
DOCKED: TER
DOCKED: ENDMDL
________________________________________________________________________________


    FINAL DOCKED STATE:
    ________________________


Run:   456 / 512
Time taken for this run:   0.002s

DOCKED: MODEL        456
DOCKED: USER    Run = 456
DOCKED: USER
DOCKED: USER    Estimated Free Energy of Binding    =  -4.11 kcal/mol  [=(1)+(2)+(3)-(4)]
DOCKED: USER
DOCKED: USER    (1) Final Intermolecular Energy     =  -5.60 kcal/mol
DOCKED: USER        vdW + Hbond + desolv Energy     =  -5.60 kcal/mol
DOCKED: USER        Electrostatic Energy            =  +0.00 kcal/mol
DOCKED: USER        Moving Ligand-Fixed Receptor    =  -5.60 kcal/mol
DOCKED: USER        Moving Ligand-Moving Receptor   =  +0.00 kcal/mol
DOCKED: USER    (2) Final Total Internal Energy     =  -1.42 kcal/mol
DOCKED: USER    (3) Torsional Free Energy           =  +1.49 kcal/mol
DOCKED: USER    (4) Unbound System's Energy         =  -1.42 kcal/mol
DOCKED: USER
DOCKED: USER
DOCKED: REMARK  5 active torsions:
DOCKED: REMARK  status: ('A' for Active; 'I' for Inactive)
DOCKED: REMARK    1  A    between atoms: C_2  and  C_19 
DOCKED: REMARK    2  A    between atoms: C_2  and  C_11 
DOCKED: REMARK    3  A    between atoms: C_19  and  C_20 
DOCKED: REMARK    4  A    between atoms: C_20  and  C_21 
DOCKED: REMARK    5  A    between atoms: C_21  and  N_22 
DOCKED: USER                              x       y       z     vdW  Elec       q    Type
DOCKED: USER                           _______ _______ _______ _____ _____    ______ ____
DOCKED: ROOT
DOCKED: ATOM      1  O   UNL     1     -30.992 -15.026   4.025 +0.01 -0.00    -0.346 OA 
DOCKED: ATOM      2  C   UNL     1     -32.452 -14.929   4.029 -0.07 +0.00    +0.130 C  
DOCKED: ATOM      3  C   UNL     1     -32.895 -16.199   4.695 -0.16 +0.00    +0.004 A  
DOCKED: ATOM      4  C   UNL     1     -31.786 -16.909   5.132 -0.10 +0.00    +0.006 A  
DOCKED: ATOM      5  C   UNL     1     -30.550 -16.163   4.803 -0.02 +0.00    +0.169 C  
DOCKED: ATOM      6  C   UNL     1     -34.178 -16.683   4.906 -0.31 -0.00    -0.001 A  
DOCKED: ATOM      7  C   UNL     1     -31.918 -18.121   5.789 -0.16 +0.00    +0.008 A  
DOCKED: ATOM      8  C   UNL     1     -34.328 -17.906   5.563 -0.21 +0.00    +0.010 A  
DOCKED: ATOM      9  C   UNL     1     -33.204 -18.620   6.002 -0.30 +0.00    +0.068 A  
DOCKED: ATOM     10  N   UNL     1     -33.518 -20.885   7.222 -2.54 -0.00    -0.191 NA 
DOCKED: ATOM     11  C   UNL     1     -33.377 -19.869   6.674 -0.33 +0.00    +0.101 C  
DOCKED: ENDROOT
DOCKED: BRANCH   2  12
DOCKED: ATOM     12  C   UNL     1     -32.850 -13.681   4.808 -0.05 +0.00    +0.038 C  
DOCKED: BRANCH  12  13
DOCKED: ATOM     13  C   UNL     1     -31.701 -13.178   5.680 -0.02 +0.00    +0.038 C  
DOCKED: BRANCH  13  14
DOCKED: ATOM     14  C   UNL     1     -31.595 -13.989   6.970 -0.02 +0.00    +0.251 C  
DOCKED: BRANCH  14  15
DOCKED: ATOM     15  N   UNL     1     -32.910 -14.470   7.376 -0.07 +0.00    +0.141 N  
DOCKED: ATOM     16  C   UNL     1     -32.784 -15.601   8.297 -0.08 +0.00    +0.285 C  
DOCKED: ATOM     17  C   UNL     1     -33.685 -13.394   7.996 -0.05 +0.00    +0.285 C  
DOCKED: ENDBRANCH  14  15
DOCKED: ENDBRANCH  13  14
DOCKED: ENDBRANCH  12  13
DOCKED: ENDBRANCH   2  12
DOCKED: BRANCH   2  18
DOCKED: ATOM     18  C   UNL     1     -32.887 -14.836   2.605 -0.13 +0.00    +0.006 A  
DOCKED: ATOM     19  C   UNL     1     -32.376 -15.726   1.661 -0.13 +0.00    +0.001 A  
DOCKED: ATOM     20  C   UNL     1     -32.783 -15.638   0.329 -0.18 +0.00    +0.029 A  
DOCKED: ATOM     21  C   UNL     1     -33.700 -14.662  -0.057 -0.20 +0.00    +0.140 A  
DOCKED: ATOM     22  C   UNL     1     -34.211 -13.772   0.888 -0.22 +0.00    +0.029 A  
DOCKED: ATOM     23  F   UNL     1     -34.092 -14.579  -1.335 -0.10 -0.00    -0.204 F  
DOCKED: ATOM     24  C   UNL     1     -33.804 -13.859   2.220 -0.17 +0.00    +0.001 A  
DOCKED: ENDBRANCH   2  18
DOCKED: TORSDOF 5
DOCKED: TER
DOCKED: ENDMDL
________________________________________________________________________________


    FINAL DOCKED STATE:
    ________________________


Run:   457 / 512
Time taken for this run:   0.002s

DOCKED: MODEL        457
DOCKED: USER    Run = 457
DOCKED: USER
DOCKED: USER    Estimated Free Energy of Binding    =  -3.72 kcal/mol  [=(1)+(2)+(3)-(4)]
DOCKED: USER
DOCKED: USER    (1) Final Intermolecular Energy     =  -5.21 kcal/mol
DOCKED: USER        vdW + Hbond + desolv Energy     =  -5.21 kcal/mol
DOCKED: USER        Electrostatic Energy            =  +0.00 kcal/mol
DOCKED: USER        Moving Ligand-Fixed Receptor    =  -5.21 kcal/mol
DOCKED: USER        Moving Ligand-Moving Receptor   =  +0.00 kcal/mol
DOCKED: USER    (2) Final Total Internal Energy     =  -1.55 kcal/mol
DOCKED: USER    (3) Torsional Free Energy           =  +1.49 kcal/mol
DOCKED: USER    (4) Unbound System's Energy         =  -1.55 kcal/mol
DOCKED: USER
DOCKED: USER
DOCKED: REMARK  5 active torsions:
DOCKED: REMARK  status: ('A' for Active; 'I' for Inactive)
DOCKED: REMARK    1  A    between atoms: C_2  and  C_19 
DOCKED: REMARK    2  A    between atoms: C_2  and  C_11 
DOCKED: REMARK    3  A    between atoms: C_19  and  C_20 
DOCKED: REMARK    4  A    between atoms: C_20  and  C_21 
DOCKED: REMARK    5  A    between atoms: C_21  and  N_22 
DOCKED: USER                              x       y       z     vdW  Elec       q    Type
DOCKED: USER                           _______ _______ _______ _____ _____    ______ ____
DOCKED: ROOT
DOCKED: ATOM      1  O   UNL     1     -36.833 -16.891  13.436 -0.04 -0.00    -0.346 OA 
DOCKED: ATOM      2  C   UNL     1     -37.229 -15.891  12.443 -0.09 +0.00    +0.130 C  
DOCKED: ATOM      3  C   UNL     1     -38.092 -16.659  11.484 -0.19 +0.00    +0.004 A  
DOCKED: ATOM      4  C   UNL     1     -38.266 -17.955  11.947 -0.21 +0.00    +0.006 A  
DOCKED: ATOM      5  C   UNL     1     -37.552 -18.130  13.232 -0.06 +0.00    +0.169 C  
DOCKED: ATOM      6  C   UNL     1     -38.685 -16.240  10.302 -0.26 -0.00    -0.001 A  
DOCKED: ATOM      7  C   UNL     1     -39.030 -18.874  11.248 -0.29 +0.00    +0.008 A  
DOCKED: ATOM      8  C   UNL     1     -39.456 -17.156   9.583 -0.33 +0.00    +0.010 A  
DOCKED: ATOM      9  C   UNL     1     -39.627 -18.466  10.054 -0.28 +0.00    +0.068 A  
DOCKED: ATOM     10  N   UNL     1     -41.067 -20.139   8.698 -2.52 -0.00    -0.191 NA 
DOCKED: ATOM     11  C   UNL     1     -40.421 -19.389   9.306 -0.33 +0.00    +0.101 C  
DOCKED: ENDROOT
DOCKED: BRANCH   2  12
DOCKED: ATOM     12  C   UNL     1     -37.982 -14.774  13.156 -0.03 +0.00    +0.038 C  
DOCKED: BRANCH  12  13
DOCKED: ATOM     13  C   UNL     1     -37.884 -14.917  14.674 -0.01 +0.00    +0.038 C  
DOCKED: BRANCH  13  14
DOCKED: ATOM     14  C   UNL     1     -36.554 -14.375  15.192 -0.00 +0.00    +0.251 C  
DOCKED: BRANCH  14  15
DOCKED: ATOM     15  N   UNL     1     -35.543 -15.426  15.190 -0.01 +0.00    +0.141 N  
DOCKED: ATOM     16  C   UNL     1     -34.214 -14.863  14.944 -0.00 +0.00    +0.285 C  
DOCKED: ATOM     17  C   UNL     1     -35.557 -16.157  16.458 -0.00 +0.00    +0.285 C  
DOCKED: ENDBRANCH  14  15
DOCKED: ENDBRANCH  13  14
DOCKED: ENDBRANCH  12  13
DOCKED: ENDBRANCH   2  12
DOCKED: BRANCH   2  18
DOCKED: ATOM     18  C   UNL     1     -35.975 -15.380  11.816 -0.11 +0.00    +0.006 A  
DOCKED: ATOM     19  C   UNL     1     -35.905 -14.058  11.376 -0.08 +0.00    +0.001 A  
DOCKED: ATOM     20  C   UNL     1     -34.732 -13.582  10.790 -0.06 +0.00    +0.029 A  
DOCKED: ATOM     21  C   UNL     1     -33.632 -14.426  10.644 -0.06 +0.00    +0.140 A  
DOCKED: ATOM     22  C   UNL     1     -33.703 -15.747  11.084 -0.10 +0.00    +0.029 A  
DOCKED: ATOM     23  F   UNL     1     -32.506 -13.968  10.082 -0.00 -0.00    -0.204 F  
DOCKED: ATOM     24  C   UNL     1     -34.876 -16.226  11.670 -0.13 +0.00    +0.001 A  
DOCKED: ENDBRANCH   2  18
DOCKED: TORSDOF 5
DOCKED: TER
DOCKED: ENDMDL
________________________________________________________________________________


    FINAL DOCKED STATE:
    ________________________


Run:   458 / 512
Time taken for this run:   0.002s

DOCKED: MODEL        458
DOCKED: USER    Run = 458
DOCKED: USER
DOCKED: USER    Estimated Free Energy of Binding    =  -4.05 kcal/mol  [=(1)+(2)+(3)-(4)]
DOCKED: USER
DOCKED: USER    (1) Final Intermolecular Energy     =  -5.54 kcal/mol
DOCKED: USER        vdW + Hbond + desolv Energy     =  -5.54 kcal/mol
DOCKED: USER        Electrostatic Energy            =  +0.00 kcal/mol
DOCKED: USER        Moving Ligand-Fixed Receptor    =  -5.54 kcal/mol
DOCKED: USER        Moving Ligand-Moving Receptor   =  +0.00 kcal/mol
DOCKED: USER    (2) Final Total Internal Energy     =  -1.31 kcal/mol
DOCKED: USER    (3) Torsional Free Energy           =  +1.49 kcal/mol
DOCKED: USER    (4) Unbound System's Energy         =  -1.31 kcal/mol
DOCKED: USER
DOCKED: USER
DOCKED: REMARK  5 active torsions:
DOCKED: REMARK  status: ('A' for Active; 'I' for Inactive)
DOCKED: REMARK    1  A    between atoms: C_2  and  C_19 
DOCKED: REMARK    2  A    between atoms: C_2  and  C_11 
DOCKED: REMARK    3  A    between atoms: C_19  and  C_20 
DOCKED: REMARK    4  A    between atoms: C_20  and  C_21 
DOCKED: REMARK    5  A    between atoms: C_21  and  N_22 
DOCKED: USER                              x       y       z     vdW  Elec       q    Type
DOCKED: USER                           _______ _______ _______ _____ _____    ______ ____
DOCKED: ROOT
DOCKED: ATOM      1  O   UNL     1     -38.286 -13.686  10.021 -0.08 -0.00    -0.346 OA 
DOCKED: ATOM      2  C   UNL     1     -39.389 -13.892  10.960 -0.12 +0.00    +0.130 C  
DOCKED: ATOM      3  C   UNL     1     -39.915 -15.253  10.604 -0.20 +0.00    +0.004 A  
DOCKED: ATOM      4  C   UNL     1     -39.114 -15.821   9.624 -0.25 +0.00    +0.006 A  
DOCKED: ATOM      5  C   UNL     1     -38.012 -14.896   9.277 +0.10 +0.00    +0.169 C  
DOCKED: ATOM      6  C   UNL     1     -41.007 -15.937  11.115 -0.15 -0.00    -0.001 A  
DOCKED: ATOM      7  C   UNL     1     -39.377 -17.084   9.120 -0.32 +0.00    +0.008 A  
DOCKED: ATOM      8  C   UNL     1     -41.289 -17.210  10.615 -0.19 +0.00    +0.010 A  
DOCKED: ATOM      9  C   UNL     1     -40.478 -17.780   9.623 -0.26 +0.00    +0.068 A  
DOCKED: ATOM     10  N   UNL     1     -41.026 -20.145   8.719 -2.56 -0.00    -0.191 NA 
DOCKED: ATOM     11  C   UNL     1     -40.780 -19.084   9.124 -0.36 +0.00    +0.101 C  
DOCKED: ENDROOT
DOCKED: BRANCH   2  12
DOCKED: ATOM     12  C   UNL     1     -38.835 -13.822  12.378 -0.05 +0.00    +0.038 C  
DOCKED: BRANCH  12  13
DOCKED: ATOM     13  C   UNL     1     -38.397 -15.199  12.874 -0.05 +0.00    +0.038 C  
DOCKED: BRANCH  13  14
DOCKED: ATOM     14  C   UNL     1     -36.910 -15.430  12.612 -0.05 +0.00    +0.251 C  
DOCKED: BRANCH  14  15
DOCKED: ATOM     15  N   UNL     1     -36.586 -16.845  12.741 -0.10 +0.00    +0.141 N  
DOCKED: ATOM     16  C   UNL     1     -37.292 -17.631  11.728 -0.14 +0.00    +0.285 C  
DOCKED: ATOM     17  C   UNL     1     -35.142 -17.056  12.632 -0.09 +0.00    +0.285 C  
DOCKED: ENDBRANCH  14  15
DOCKED: ENDBRANCH  13  14
DOCKED: ENDBRANCH  12  13
DOCKED: ENDBRANCH   2  12
DOCKED: BRANCH   2  18
DOCKED: ATOM     18  C   UNL     1     -40.380 -12.804  10.714 -0.14 +0.00    +0.006 A  
DOCKED: ATOM     19  C   UNL     1     -40.453 -12.198   9.460 -0.18 +0.00    +0.001 A  
DOCKED: ATOM     20  C   UNL     1     -41.379 -11.180   9.232 -0.16 +0.00    +0.029 A  
DOCKED: ATOM     21  C   UNL     1     -42.231 -10.770  10.256 -0.07 +0.00    +0.140 A  
DOCKED: ATOM     22  C   UNL     1     -42.158 -11.376  11.510 -0.05 +0.00    +0.029 A  
DOCKED: ATOM     23  F   UNL     1     -43.122  -9.794  10.037 +0.01 -0.00    -0.204 F  
DOCKED: ATOM     24  C   UNL     1     -41.231 -12.394  11.740 -0.06 +0.00    +0.001 A  
DOCKED: ENDBRANCH   2  18
DOCKED: TORSDOF 5
DOCKED: TER
DOCKED: ENDMDL
________________________________________________________________________________


    FINAL DOCKED STATE:
    ________________________


Run:   459 / 512
Time taken for this run:   0.002s

DOCKED: MODEL        459
DOCKED: USER    Run = 459
DOCKED: USER
DOCKED: USER    Estimated Free Energy of Binding    =  -3.04 kcal/mol  [=(1)+(2)+(3)-(4)]
DOCKED: USER
DOCKED: USER    (1) Final Intermolecular Energy     =  -4.54 kcal/mol
DOCKED: USER        vdW + Hbond + desolv Energy     =  -4.54 kcal/mol
DOCKED: USER        Electrostatic Energy            =  +0.00 kcal/mol
DOCKED: USER        Moving Ligand-Fixed Receptor    =  -4.54 kcal/mol
DOCKED: USER        Moving Ligand-Moving Receptor   =  +0.00 kcal/mol
DOCKED: USER    (2) Final Total Internal Energy     =  -1.58 kcal/mol
DOCKED: USER    (3) Torsional Free Energy           =  +1.49 kcal/mol
DOCKED: USER    (4) Unbound System's Energy         =  -1.58 kcal/mol
DOCKED: USER
DOCKED: USER
DOCKED: REMARK  5 active torsions:
DOCKED: REMARK  status: ('A' for Active; 'I' for Inactive)
DOCKED: REMARK    1  A    between atoms: C_2  and  C_19 
DOCKED: REMARK    2  A    between atoms: C_2  and  C_11 
DOCKED: REMARK    3  A    between atoms: C_19  and  C_20 
DOCKED: REMARK    4  A    between atoms: C_20  and  C_21 
DOCKED: REMARK    5  A    between atoms: C_21  and  N_22 
DOCKED: USER                              x       y       z     vdW  Elec       q    Type
DOCKED: USER                           _______ _______ _______ _____ _____    ______ ____
DOCKED: ROOT
DOCKED: ATOM      1  O   UNL     1     -30.370 -19.798   1.517 -0.01 -0.00    -0.346 OA 
DOCKED: ATOM      2  C   UNL     1     -30.159 -18.612   2.350 -0.04 +0.00    +0.130 C  
DOCKED: ATOM      3  C   UNL     1     -30.921 -18.916   3.607 -0.10 +0.00    +0.004 A  
DOCKED: ATOM      4  C   UNL     1     -31.429 -20.206   3.545 -0.18 +0.00    +0.006 A  
DOCKED: ATOM      5  C   UNL     1     -31.035 -20.841   2.267 -0.09 +0.00    +0.169 C  
DOCKED: ATOM      6  C   UNL     1     -31.137 -18.119   4.722 -0.09 -0.00    -0.001 A  
DOCKED: ATOM      7  C   UNL     1     -32.170 -20.739   4.586 -0.29 +0.00    +0.008 A  
DOCKED: ATOM      8  C   UNL     1     -31.886 -18.641   5.778 -0.19 +0.00    +0.010 A  
DOCKED: ATOM      9  C   UNL     1     -32.399 -19.945   5.710 -0.30 +0.00    +0.068 A  
DOCKED: ATOM     10  N   UNL     1     -33.781 -20.885   7.690 -2.45 -0.00    -0.191 NA 
DOCKED: ATOM     11  C   UNL     1     -33.162 -20.463   6.802 -0.39 +0.00    +0.101 C  
DOCKED: ENDROOT
DOCKED: BRANCH   2  12
DOCKED: ATOM     12  C   UNL     1     -28.663 -18.449   2.587 -0.02 +0.00    +0.038 C  
DOCKED: BRANCH  12  13
DOCKED: ATOM     13  C   UNL     1     -27.860 -19.510   1.836 -0.02 +0.00    +0.038 C  
DOCKED: BRANCH  13  14
DOCKED: ATOM     14  C   UNL     1     -27.443 -19.008   0.455 -0.00 +0.00    +0.251 C  
DOCKED: BRANCH  14  15
DOCKED: ATOM     15  N   UNL     1     -28.571 -19.062  -0.467 -0.01 +0.00    +0.141 N  
DOCKED: ATOM     16  C   UNL     1     -28.442 -18.033  -1.500 -0.00 +0.00    +0.285 C  
DOCKED: ATOM     17  C   UNL     1     -28.672 -20.387  -1.080 -0.00 +0.00    +0.285 C  
DOCKED: ENDBRANCH  14  15
DOCKED: ENDBRANCH  13  14
DOCKED: ENDBRANCH  12  13
DOCKED: ENDBRANCH   2  12
DOCKED: BRANCH   2  18
DOCKED: ATOM     18  C   UNL     1     -30.716 -17.449   1.599 -0.07 +0.00    +0.006 A  
DOCKED: ATOM     19  C   UNL     1     -30.105 -16.199   1.699 -0.02 +0.00    +0.001 A  
DOCKED: ATOM     20  C   UNL     1     -30.627 -15.112   0.997 -0.02 +0.00    +0.029 A  
DOCKED: ATOM     21  C   UNL     1     -31.757 -15.275   0.198 -0.07 +0.00    +0.140 A  
DOCKED: ATOM     22  C   UNL     1     -32.367 -16.525   0.098 -0.15 +0.00    +0.029 A  
DOCKED: ATOM     23  F   UNL     1     -32.256 -14.231  -0.477 -0.01 -0.00    -0.204 F  
DOCKED: ATOM     24  C   UNL     1     -31.846 -17.613   0.800 -0.03 +0.00    +0.001 A  
DOCKED: ENDBRANCH   2  18
DOCKED: TORSDOF 5
DOCKED: TER
DOCKED: ENDMDL
________________________________________________________________________________


    FINAL DOCKED STATE:
    ________________________


Run:   460 / 512
Time taken for this run:   0.002s

DOCKED: MODEL        460
DOCKED: USER    Run = 460
DOCKED: USER
DOCKED: USER    Estimated Free Energy of Binding    =  -3.98 kcal/mol  [=(1)+(2)+(3)-(4)]
DOCKED: USER
DOCKED: USER    (1) Final Intermolecular Energy     =  -5.47 kcal/mol
DOCKED: USER        vdW + Hbond + desolv Energy     =  -5.47 kcal/mol
DOCKED: USER        Electrostatic Energy            =  +0.00 kcal/mol
DOCKED: USER        Moving Ligand-Fixed Receptor    =  -5.47 kcal/mol
DOCKED: USER        Moving Ligand-Moving Receptor   =  +0.00 kcal/mol
DOCKED: USER    (2) Final Total Internal Energy     =  -1.15 kcal/mol
DOCKED: USER    (3) Torsional Free Energy           =  +1.49 kcal/mol
DOCKED: USER    (4) Unbound System's Energy         =  -1.15 kcal/mol
DOCKED: USER
DOCKED: USER
DOCKED: REMARK  5 active torsions:
DOCKED: REMARK  status: ('A' for Active; 'I' for Inactive)
DOCKED: REMARK    1  A    between atoms: C_2  and  C_19 
DOCKED: REMARK    2  A    between atoms: C_2  and  C_11 
DOCKED: REMARK    3  A    between atoms: C_19  and  C_20 
DOCKED: REMARK    4  A    between atoms: C_20  and  C_21 
DOCKED: REMARK    5  A    between atoms: C_21  and  N_22 
DOCKED: USER                              x       y       z     vdW  Elec       q    Type
DOCKED: USER                           _______ _______ _______ _____ _____    ______ ____
DOCKED: ROOT
DOCKED: ATOM      1  O   UNL     1     -32.072 -14.290   4.798 +0.01 -0.00    -0.346 OA 
DOCKED: ATOM      2  C   UNL     1     -33.405 -14.696   4.352 -0.11 +0.00    +0.130 C  
DOCKED: ATOM      3  C   UNL     1     -33.558 -16.087   4.896 -0.23 +0.00    +0.004 A  
DOCKED: ATOM      4  C   UNL     1     -32.456 -16.407   5.677 -0.14 +0.00    +0.006 A  
DOCKED: ATOM      5  C   UNL     1     -31.518 -15.263   5.715 -0.03 +0.00    +0.169 C  
DOCKED: ATOM      6  C   UNL     1     -34.594 -16.993   4.723 -0.27 -0.00    -0.001 A  
DOCKED: ATOM      7  C   UNL     1     -32.350 -17.636   6.304 -0.20 +0.00    +0.008 A  
DOCKED: ATOM      8  C   UNL     1     -34.500 -18.239   5.345 +0.07 +0.00    +0.010 A  
DOCKED: ATOM      9  C   UNL     1     -33.383 -18.558   6.132 -0.28 +0.00    +0.068 A  
DOCKED: ATOM     10  N   UNL     1     -33.242 -20.878   7.278 -2.26 -0.00    -0.191 NA 
DOCKED: ATOM     11  C   UNL     1     -33.305 -19.838   6.764 -0.33 +0.00    +0.101 C  
DOCKED: ENDROOT
DOCKED: BRANCH   2  12
DOCKED: ATOM     12  C   UNL     1     -34.424 -13.719   4.927 -0.14 +0.00    +0.038 C  
DOCKED: BRANCH  12  13
DOCKED: ATOM     13  C   UNL     1     -34.199 -13.494   6.421 -0.11 +0.00    +0.038 C  
DOCKED: BRANCH  13  14
DOCKED: ATOM     14  C   UNL     1     -35.477 -13.758   7.215 -0.10 +0.00    +0.251 C  
DOCKED: BRANCH  14  15
DOCKED: ATOM     15  N   UNL     1     -35.247 -13.530   8.637 -0.11 +0.00    +0.141 N  
DOCKED: ATOM     16  C   UNL     1     -36.460 -13.808   9.407 -0.11 +0.00    +0.285 C  
DOCKED: ATOM     17  C   UNL     1     -34.138 -14.355   9.119 -0.06 +0.00    +0.285 C  
DOCKED: ENDBRANCH  14  15
DOCKED: ENDBRANCH  13  14
DOCKED: ENDBRANCH  12  13
DOCKED: ENDBRANCH   2  12
DOCKED: BRANCH   2  18
DOCKED: ATOM     18  C   UNL     1     -33.399 -14.652   2.861 -0.15 +0.00    +0.006 A  
DOCKED: ATOM     19  C   UNL     1     -32.725 -15.636   2.138 -0.13 +0.00    +0.001 A  
DOCKED: ATOM     20  C   UNL     1     -32.720 -15.593   0.743 -0.16 +0.00    +0.029 A  
DOCKED: ATOM     21  C   UNL     1     -33.387 -14.568   0.074 -0.18 +0.00    +0.140 A  
DOCKED: ATOM     22  C   UNL     1     -34.060 -13.585   0.798 -0.21 +0.00    +0.029 A  
DOCKED: ATOM     23  F   UNL     1     -33.383 -14.529  -1.265 -0.05 -0.00    -0.204 F  
DOCKED: ATOM     24  C   UNL     1     -34.066 -13.626   2.193 -0.18 +0.00    +0.001 A  
DOCKED: ENDBRANCH   2  18
DOCKED: TORSDOF 5
DOCKED: TER
DOCKED: ENDMDL
________________________________________________________________________________


    FINAL DOCKED STATE:
    ________________________


Run:   461 / 512
Time taken for this run:   0.002s

DOCKED: MODEL        461
DOCKED: USER    Run = 461
DOCKED: USER
DOCKED: USER    Estimated Free Energy of Binding    =  -4.98 kcal/mol  [=(1)+(2)+(3)-(4)]
DOCKED: USER
DOCKED: USER    (1) Final Intermolecular Energy     =  -6.47 kcal/mol
DOCKED: USER        vdW + Hbond + desolv Energy     =  -6.47 kcal/mol
DOCKED: USER        Electrostatic Energy            =  +0.00 kcal/mol
DOCKED: USER        Moving Ligand-Fixed Receptor    =  -6.47 kcal/mol
DOCKED: USER        Moving Ligand-Moving Receptor   =  +0.00 kcal/mol
DOCKED: USER    (2) Final Total Internal Energy     =  -1.35 kcal/mol
DOCKED: USER    (3) Torsional Free Energy           =  +1.49 kcal/mol
DOCKED: USER    (4) Unbound System's Energy         =  -1.35 kcal/mol
DOCKED: USER
DOCKED: USER
DOCKED: REMARK  5 active torsions:
DOCKED: REMARK  status: ('A' for Active; 'I' for Inactive)
DOCKED: REMARK    1  A    between atoms: C_2  and  C_19 
DOCKED: REMARK    2  A    between atoms: C_2  and  C_11 
DOCKED: REMARK    3  A    between atoms: C_19  and  C_20 
DOCKED: REMARK    4  A    between atoms: C_20  and  C_21 
DOCKED: REMARK    5  A    between atoms: C_21  and  N_22 
DOCKED: USER                              x       y       z     vdW  Elec       q    Type
DOCKED: USER                           _______ _______ _______ _____ _____    ______ ____
DOCKED: ROOT
DOCKED: ATOM      1  O   UNL     1     -37.544  -9.941   4.702 -0.12 -0.00    -0.346 OA 
DOCKED: ATOM      2  C   UNL     1     -36.241 -10.088   4.053 -0.20 +0.00    +0.130 C  
DOCKED: ATOM      3  C   UNL     1     -36.440  -9.469   2.700 -0.27 +0.00    +0.004 A  
DOCKED: ATOM      4  C   UNL     1     -37.711  -8.917   2.622 -0.10 +0.00    +0.006 A  
DOCKED: ATOM      5  C   UNL     1     -38.426  -9.119   3.902 -0.12 +0.00    +0.169 C  
DOCKED: ATOM      6  C   UNL     1     -35.563  -9.389   1.628 -0.24 -0.00    -0.001 A  
DOCKED: ATOM      7  C   UNL     1     -38.149  -8.275   1.476 -0.14 +0.00    +0.008 A  
DOCKED: ATOM      8  C   UNL     1     -35.991  -8.749   0.464 -0.26 +0.00    +0.010 A  
DOCKED: ATOM      9  C   UNL     1     -37.277  -8.194   0.389 -0.27 +0.00    +0.068 A  
DOCKED: ATOM     10  N   UNL     1     -38.039  -7.008  -1.785 -2.55 -0.00    -0.191 NA 
DOCKED: ATOM     11  C   UNL     1     -37.698  -7.540  -0.810 -0.30 +0.00    +0.101 C  
DOCKED: ENDROOT
DOCKED: BRANCH   2  12
DOCKED: ATOM     12  C   UNL     1     -35.199  -9.358   4.892 -0.18 +0.00    +0.038 C  
DOCKED: BRANCH  12  13
DOCKED: ATOM     13  C   UNL     1     -35.495  -9.489   6.385 -0.15 +0.00    +0.038 C  
DOCKED: BRANCH  13  14
DOCKED: ATOM     14  C   UNL     1     -36.058  -8.186   6.950 -0.06 +0.00    +0.251 C  
DOCKED: BRANCH  14  15
DOCKED: ATOM     15  N   UNL     1     -37.515  -8.203   6.910 -0.19 +0.00    +0.141 N  
DOCKED: ATOM     16  C   UNL     1     -38.035  -9.421   7.534 -0.07 +0.00    +0.285 C  
DOCKED: ATOM     17  C   UNL     1     -38.063  -7.019   7.573 -0.15 +0.00    +0.285 C  
DOCKED: ENDBRANCH  14  15
DOCKED: ENDBRANCH  13  14
DOCKED: ENDBRANCH  12  13
DOCKED: ENDBRANCH   2  12
DOCKED: BRANCH   2  18
DOCKED: ATOM     18  C   UNL     1     -35.949 -11.550   3.986 -0.17 +0.00    +0.006 A  
DOCKED: ATOM     19  C   UNL     1     -36.894 -12.471   4.439 -0.23 +0.00    +0.001 A  
DOCKED: ATOM     20  C   UNL     1     -36.620 -13.837   4.376 -0.16 +0.00    +0.029 A  
DOCKED: ATOM     21  C   UNL     1     -35.404 -14.282   3.859 -0.19 +0.00    +0.140 A  
DOCKED: ATOM     22  C   UNL     1     -34.460 -13.361   3.406 -0.15 +0.00    +0.029 A  
DOCKED: ATOM     23  F   UNL     1     -35.142 -15.594   3.797 -0.10 -0.00    -0.204 F  
DOCKED: ATOM     24  C   UNL     1     -34.732 -11.993   3.469 -0.11 +0.00    +0.001 A  
DOCKED: ENDBRANCH   2  18
DOCKED: TORSDOF 5
DOCKED: TER
DOCKED: ENDMDL
________________________________________________________________________________


    FINAL DOCKED STATE:
    ________________________


Run:   462 / 512
Time taken for this run:   0.002s

DOCKED: MODEL        462
DOCKED: USER    Run = 462
DOCKED: USER
DOCKED: USER    Estimated Free Energy of Binding    =  -4.80 kcal/mol  [=(1)+(2)+(3)-(4)]
DOCKED: USER
DOCKED: USER    (1) Final Intermolecular Energy     =  -6.29 kcal/mol
DOCKED: USER        vdW + Hbond + desolv Energy     =  -6.29 kcal/mol
DOCKED: USER        Electrostatic Energy            =  +0.00 kcal/mol
DOCKED: USER        Moving Ligand-Fixed Receptor    =  -6.29 kcal/mol
DOCKED: USER        Moving Ligand-Moving Receptor   =  +0.00 kcal/mol
DOCKED: USER    (2) Final Total Internal Energy     =  -1.03 kcal/mol
DOCKED: USER    (3) Torsional Free Energy           =  +1.49 kcal/mol
DOCKED: USER    (4) Unbound System's Energy         =  -1.03 kcal/mol
DOCKED: USER
DOCKED: USER
DOCKED: REMARK  5 active torsions:
DOCKED: REMARK  status: ('A' for Active; 'I' for Inactive)
DOCKED: REMARK    1  A    between atoms: C_2  and  C_19 
DOCKED: REMARK    2  A    between atoms: C_2  and  C_11 
DOCKED: REMARK    3  A    between atoms: C_19  and  C_20 
DOCKED: REMARK    4  A    between atoms: C_20  and  C_21 
DOCKED: REMARK    5  A    between atoms: C_21  and  N_22 
DOCKED: USER                              x       y       z     vdW  Elec       q    Type
DOCKED: USER                           _______ _______ _______ _____ _____    ______ ____
DOCKED: ROOT
DOCKED: ATOM      1  O   UNL     1     -39.013 -16.327  12.383 -0.01 -0.00    -0.346 OA 
DOCKED: ATOM      2  C   UNL     1     -38.632 -17.738  12.307 -0.15 +0.00    +0.130 C  
DOCKED: ATOM      3  C   UNL     1     -39.022 -18.141  10.914 -0.28 +0.00    +0.004 A  
DOCKED: ATOM      4  C   UNL     1     -39.483 -17.032  10.219 -0.28 +0.00    +0.006 A  
DOCKED: ATOM      5  C   UNL     1     -39.419 -15.834  11.085 -0.14 +0.00    +0.169 C  
DOCKED: ATOM      6  C   UNL     1     -38.964 -19.387  10.308 -0.37 -0.00    -0.001 A  
DOCKED: ATOM      7  C   UNL     1     -39.903 -17.130   8.903 -0.33 +0.00    +0.008 A  
DOCKED: ATOM      8  C   UNL     1     -39.387 -19.503   8.983 -0.41 +0.00    +0.010 A  
DOCKED: ATOM      9  C   UNL     1     -39.854 -18.379   8.284 -0.37 +0.00    +0.068 A  
DOCKED: ATOM     10  N   UNL     1     -40.628 -18.628   5.824 -1.90 -0.00    -0.191 NA 
DOCKED: ATOM     11  C   UNL     1     -40.282 -18.516   6.928 -0.50 +0.00    +0.101 C  
DOCKED: ENDROOT
DOCKED: BRANCH   2  12
DOCKED: ATOM     12  C   UNL     1     -37.133 -17.847  12.558 -0.15 +0.00    +0.038 C  
DOCKED: BRANCH  12  13
DOCKED: ATOM     13  C   UNL     1     -36.329 -17.363  11.352 -0.07 +0.00    +0.038 C  
DOCKED: BRANCH  13  14
DOCKED: ATOM     14  C   UNL     1     -35.190 -16.443  11.785 -0.10 +0.00    +0.251 C  
DOCKED: BRANCH  14  15
DOCKED: ATOM     15  N   UNL     1     -33.905 -16.998  11.376 -0.13 +0.00    +0.141 N  
DOCKED: ATOM     16  C   UNL     1     -32.817 -16.072  11.694 -0.04 +0.00    +0.285 C  
DOCKED: ATOM     17  C   UNL     1     -33.675 -18.293  12.018 -0.12 +0.00    +0.285 C  
DOCKED: ENDBRANCH  14  15
DOCKED: ENDBRANCH  13  14
DOCKED: ENDBRANCH  12  13
DOCKED: ENDBRANCH   2  12
DOCKED: BRANCH   2  18
DOCKED: ATOM     18  C   UNL     1     -39.408 -18.457  13.359 -0.16 +0.00    +0.006 A  
DOCKED: ATOM     19  C   UNL     1     -40.761 -18.728  13.164 -0.16 +0.00    +0.001 A  
DOCKED: ATOM     20  C   UNL     1     -41.486 -19.400  14.149 -0.14 +0.00    +0.029 A  
DOCKED: ATOM     21  C   UNL     1     -40.856 -19.800  15.327 -0.09 +0.00    +0.140 A  
DOCKED: ATOM     22  C   UNL     1     -39.502 -19.528  15.522 -0.17 +0.00    +0.029 A  
DOCKED: ATOM     23  F   UNL     1     -41.552 -20.446  16.272 -0.04 -0.00    -0.204 F  
DOCKED: ATOM     24  C   UNL     1     -38.777 -18.856  14.537 -0.17 +0.00    +0.001 A  
DOCKED: ENDBRANCH   2  18
DOCKED: TORSDOF 5
DOCKED: TER
DOCKED: ENDMDL
________________________________________________________________________________


    FINAL DOCKED STATE:
    ________________________


Run:   463 / 512
Time taken for this run:   0.002s

DOCKED: MODEL        463
DOCKED: USER    Run = 463
DOCKED: USER
DOCKED: USER    Estimated Free Energy of Binding    =  -5.70 kcal/mol  [=(1)+(2)+(3)-(4)]
DOCKED: USER
DOCKED: USER    (1) Final Intermolecular Energy     =  -7.19 kcal/mol
DOCKED: USER        vdW + Hbond + desolv Energy     =  -7.19 kcal/mol
DOCKED: USER        Electrostatic Energy            =  +0.00 kcal/mol
DOCKED: USER        Moving Ligand-Fixed Receptor    =  -7.19 kcal/mol
DOCKED: USER        Moving Ligand-Moving Receptor   =  +0.00 kcal/mol
DOCKED: USER    (2) Final Total Internal Energy     =  -1.30 kcal/mol
DOCKED: USER    (3) Torsional Free Energy           =  +1.49 kcal/mol
DOCKED: USER    (4) Unbound System's Energy         =  -1.30 kcal/mol
DOCKED: USER
DOCKED: USER
DOCKED: REMARK  5 active torsions:
DOCKED: REMARK  status: ('A' for Active; 'I' for Inactive)
DOCKED: REMARK    1  A    between atoms: C_2  and  C_19 
DOCKED: REMARK    2  A    between atoms: C_2  and  C_11 
DOCKED: REMARK    3  A    between atoms: C_19  and  C_20 
DOCKED: REMARK    4  A    between atoms: C_20  and  C_21 
DOCKED: REMARK    5  A    between atoms: C_21  and  N_22 
DOCKED: USER                              x       y       z     vdW  Elec       q    Type
DOCKED: USER                           _______ _______ _______ _____ _____    ______ ____
DOCKED: ROOT
DOCKED: ATOM      1  O   UNL     1     -37.855 -19.203  11.121 -0.18 -0.00    -0.346 OA 
DOCKED: ATOM      2  C   UNL     1     -38.898 -18.177  11.155 -0.24 +0.00    +0.130 C  
DOCKED: ATOM      3  C   UNL     1     -39.582 -18.316   9.825 -0.35 +0.00    +0.004 A  
DOCKED: ATOM      4  C   UNL     1     -39.051 -19.397   9.137 -0.42 +0.00    +0.006 A  
DOCKED: ATOM      5  C   UNL     1     -38.003 -20.048   9.956 -0.28 +0.00    +0.169 C  
DOCKED: ATOM      6  C   UNL     1     -40.601 -17.552   9.274 -0.32 -0.00    -0.001 A  
DOCKED: ATOM      7  C   UNL     1     -39.513 -19.749   7.880 -0.38 +0.00    +0.008 A  
DOCKED: ATOM      8  C   UNL     1     -41.075 -17.892   8.006 -0.16 +0.00    +0.010 A  
DOCKED: ATOM      9  C   UNL     1     -40.534 -18.985   7.313 -0.45 +0.00    +0.068 A  
DOCKED: ATOM     10  N   UNL     1     -41.440 -19.591   4.962 -2.62 -0.00    -0.191 NA 
DOCKED: ATOM     11  C   UNL     1     -41.033 -19.319   6.016 -0.34 +0.00    +0.101 C  
DOCKED: ENDROOT
DOCKED: BRANCH   2  12
DOCKED: ATOM     12  C   UNL     1     -39.823 -18.468  12.331 -0.20 +0.00    +0.038 C  
DOCKED: BRANCH  12  13
DOCKED: ATOM     13  C   UNL     1     -39.128 -19.325  13.387 -0.26 +0.00    +0.038 C  
DOCKED: BRANCH  13  14
DOCKED: ATOM     14  C   UNL     1     -39.135 -18.633  14.749 -0.09 +0.00    +0.251 C  
DOCKED: BRANCH  14  15
DOCKED: ATOM     15  N   UNL     1     -39.391 -17.207  14.591 -0.03 +0.00    +0.141 N  
DOCKED: ATOM     16  C   UNL     1     -40.458 -16.771  15.494 -0.00 +0.00    +0.285 C  
DOCKED: ATOM     17  C   UNL     1     -38.173 -16.434  14.837 -0.01 +0.00    +0.285 C  
DOCKED: ENDBRANCH  14  15
DOCKED: ENDBRANCH  13  14
DOCKED: ENDBRANCH  12  13
DOCKED: ENDBRANCH   2  12
DOCKED: BRANCH   2  18
DOCKED: ATOM     18  C   UNL     1     -38.211 -16.863  11.321 -0.20 +0.00    +0.006 A  
DOCKED: ATOM     19  C   UNL     1     -36.859 -16.821  11.659 -0.19 +0.00    +0.001 A  
DOCKED: ATOM     20  C   UNL     1     -36.219 -15.591  11.815 -0.12 +0.00    +0.029 A  
DOCKED: ATOM     21  C   UNL     1     -36.930 -14.406  11.632 -0.07 +0.00    +0.140 A  
DOCKED: ATOM     22  C   UNL     1     -38.282 -14.449  11.294 -0.11 +0.00    +0.029 A  
DOCKED: ATOM     23  F   UNL     1     -36.314 -13.226  11.780 -0.00 -0.00    -0.204 F  
DOCKED: ATOM     24  C   UNL     1     -38.924 -15.678  11.139 -0.16 +0.00    +0.001 A  
DOCKED: ENDBRANCH   2  18
DOCKED: TORSDOF 5
DOCKED: TER
DOCKED: ENDMDL
________________________________________________________________________________


    FINAL DOCKED STATE:
    ________________________


Run:   464 / 512
Time taken for this run:   0.002s

DOCKED: MODEL        464
DOCKED: USER    Run = 464
DOCKED: USER
DOCKED: USER    Estimated Free Energy of Binding    =  -4.39 kcal/mol  [=(1)+(2)+(3)-(4)]
DOCKED: USER
DOCKED: USER    (1) Final Intermolecular Energy     =  -5.88 kcal/mol
DOCKED: USER        vdW + Hbond + desolv Energy     =  -5.88 kcal/mol
DOCKED: USER        Electrostatic Energy            =  +0.00 kcal/mol
DOCKED: USER        Moving Ligand-Fixed Receptor    =  -5.88 kcal/mol
DOCKED: USER        Moving Ligand-Moving Receptor   =  +0.00 kcal/mol
DOCKED: USER    (2) Final Total Internal Energy     =  -1.04 kcal/mol
DOCKED: USER    (3) Torsional Free Energy           =  +1.49 kcal/mol
DOCKED: USER    (4) Unbound System's Energy         =  -1.04 kcal/mol
DOCKED: USER
DOCKED: USER
DOCKED: REMARK  5 active torsions:
DOCKED: REMARK  status: ('A' for Active; 'I' for Inactive)
DOCKED: REMARK    1  A    between atoms: C_2  and  C_19 
DOCKED: REMARK    2  A    between atoms: C_2  and  C_11 
DOCKED: REMARK    3  A    between atoms: C_19  and  C_20 
DOCKED: REMARK    4  A    between atoms: C_20  and  C_21 
DOCKED: REMARK    5  A    between atoms: C_21  and  N_22 
DOCKED: USER                              x       y       z     vdW  Elec       q    Type
DOCKED: USER                           _______ _______ _______ _____ _____    ______ ____
DOCKED: ROOT
DOCKED: ATOM      1  O   UNL     1     -37.118 -10.326   4.937 -0.08 -0.00    -0.346 OA 
DOCKED: ATOM      2  C   UNL     1     -35.897 -10.497   4.148 -0.16 +0.00    +0.130 C  
DOCKED: ATOM      3  C   UNL     1     -36.218  -9.832   2.841 -0.26 +0.00    +0.004 A  
DOCKED: ATOM      4  C   UNL     1     -37.469  -9.236   2.914 -0.26 +0.00    +0.006 A  
DOCKED: ATOM      5  C   UNL     1     -38.049  -9.451   4.259 -0.27 +0.00    +0.169 C  
DOCKED: ATOM      6  C   UNL     1     -35.458  -9.751   1.683 -0.23 -0.00    -0.001 A  
DOCKED: ATOM      7  C   UNL     1     -38.003  -8.546   1.839 -0.11 +0.00    +0.008 A  
DOCKED: ATOM      8  C   UNL     1     -35.984  -9.062   0.589 -0.22 +0.00    +0.010 A  
DOCKED: ATOM      9  C   UNL     1     -37.250  -8.463   0.667 -0.23 +0.00    +0.068 A  
DOCKED: ATOM     10  N   UNL     1     -38.195  -7.188  -1.381 -2.22 -0.00    -0.191 NA 
DOCKED: ATOM     11  C   UNL     1     -37.772  -7.760  -0.463 -0.33 +0.00    +0.101 C  
DOCKED: ENDROOT
DOCKED: BRANCH   2  12
DOCKED: ATOM     12  C   UNL     1     -34.746  -9.827   4.888 -0.14 +0.00    +0.038 C  
DOCKED: BRANCH  12  13
DOCKED: ATOM     13  C   UNL     1     -34.345  -8.513   4.222 +0.00 +0.00    +0.038 C  
DOCKED: BRANCH  13  14
DOCKED: ATOM     14  C   UNL     1     -32.832  -8.310   4.274 -0.09 +0.00    +0.251 C  
DOCKED: BRANCH  14  15
DOCKED: ATOM     15  N   UNL     1     -32.403  -7.410   3.209 -0.10 +0.00    +0.141 N  
DOCKED: ATOM     16  C   UNL     1     -31.139  -7.864   2.628 -0.02 +0.00    +0.285 C  
DOCKED: ATOM     17  C   UNL     1     -33.432  -7.312   2.173 -0.09 +0.00    +0.285 C  
DOCKED: ENDBRANCH  14  15
DOCKED: ENDBRANCH  13  14
DOCKED: ENDBRANCH  12  13
DOCKED: ENDBRANCH   2  12
DOCKED: BRANCH   2  18
DOCKED: ATOM     18  C   UNL     1     -35.669 -11.966   4.012 -0.16 +0.00    +0.006 A  
DOCKED: ATOM     19  C   UNL     1     -34.629 -12.438   3.212 -0.13 +0.00    +0.001 A  
DOCKED: ATOM     20  C   UNL     1     -34.416 -13.811   3.086 -0.18 +0.00    +0.029 A  
DOCKED: ATOM     21  C   UNL     1     -35.242 -14.709   3.760 -0.16 +0.00    +0.140 A  
DOCKED: ATOM     22  C   UNL     1     -36.282 -14.236   4.560 -0.27 +0.00    +0.029 A  
DOCKED: ATOM     23  F   UNL     1     -35.036 -16.027   3.640 +0.03 -0.00    -0.204 F  
DOCKED: ATOM     24  C   UNL     1     -36.496 -12.863   4.687 -0.22 +0.00    +0.001 A  
DOCKED: ENDBRANCH   2  18
DOCKED: TORSDOF 5
DOCKED: TER
DOCKED: ENDMDL
________________________________________________________________________________


    FINAL DOCKED STATE:
    ________________________


Run:   465 / 512
Time taken for this run:   0.002s

DOCKED: MODEL        465
DOCKED: USER    Run = 465
DOCKED: USER
DOCKED: USER    Estimated Free Energy of Binding    =  -4.15 kcal/mol  [=(1)+(2)+(3)-(4)]
DOCKED: USER
DOCKED: USER    (1) Final Intermolecular Energy     =  -5.64 kcal/mol
DOCKED: USER        vdW + Hbond + desolv Energy     =  -5.64 kcal/mol
DOCKED: USER        Electrostatic Energy            =  +0.00 kcal/mol
DOCKED: USER        Moving Ligand-Fixed Receptor    =  -5.64 kcal/mol
DOCKED: USER        Moving Ligand-Moving Receptor   =  +0.00 kcal/mol
DOCKED: USER    (2) Final Total Internal Energy     =  -1.11 kcal/mol
DOCKED: USER    (3) Torsional Free Energy           =  +1.49 kcal/mol
DOCKED: USER    (4) Unbound System's Energy         =  -1.11 kcal/mol
DOCKED: USER
DOCKED: USER
DOCKED: REMARK  5 active torsions:
DOCKED: REMARK  status: ('A' for Active; 'I' for Inactive)
DOCKED: REMARK    1  A    between atoms: C_2  and  C_19 
DOCKED: REMARK    2  A    between atoms: C_2  and  C_11 
DOCKED: REMARK    3  A    between atoms: C_19  and  C_20 
DOCKED: REMARK    4  A    between atoms: C_20  and  C_21 
DOCKED: REMARK    5  A    between atoms: C_21  and  N_22 
DOCKED: USER                              x       y       z     vdW  Elec       q    Type
DOCKED: USER                           _______ _______ _______ _____ _____    ______ ____
DOCKED: ROOT
DOCKED: ATOM      1  O   UNL     1     -37.235 -15.561  12.493 -0.02 -0.00    -0.346 OA 
DOCKED: ATOM      2  C   UNL     1     -38.129 -14.855  11.574 -0.10 +0.00    +0.130 C  
DOCKED: ATOM      3  C   UNL     1     -38.784 -15.957  10.793 -0.21 +0.00    +0.004 A  
DOCKED: ATOM      4  C   UNL     1     -38.385 -17.187  11.295 -0.22 +0.00    +0.006 A  
DOCKED: ATOM      5  C   UNL     1     -37.461 -16.988  12.435 -0.13 +0.00    +0.169 C  
DOCKED: ATOM      6  C   UNL     1     -39.672 -15.877   9.730 -0.26 -0.00    -0.001 A  
DOCKED: ATOM      7  C   UNL     1     -38.851 -18.373  10.754 -0.31 +0.00    +0.008 A  
DOCKED: ATOM      8  C   UNL     1     -40.148 -17.064   9.170 -0.31 +0.00    +0.010 A  
DOCKED: ATOM      9  C   UNL     1     -39.740 -18.305   9.680 -0.30 +0.00    +0.068 A  
DOCKED: ATOM     10  N   UNL     1     -40.648 -20.489   8.622 -2.54 -0.00    -0.191 NA 
DOCKED: ATOM     11  C   UNL     1     -40.240 -19.510   9.096 -0.31 +0.00    +0.101 C  
DOCKED: ENDROOT
DOCKED: BRANCH   2  12
DOCKED: ATOM     12  C   UNL     1     -39.120 -14.039  12.395 -0.05 +0.00    +0.038 C  
DOCKED: BRANCH  12  13
DOCKED: ATOM     13  C   UNL     1     -40.346 -13.656  11.568 -0.10 +0.00    +0.038 C  
DOCKED: BRANCH  13  14
DOCKED: ATOM     14  C   UNL     1     -40.497 -12.139  11.481 -0.04 +0.00    +0.251 C  
DOCKED: BRANCH  14  15
DOCKED: ATOM     15  N   UNL     1     -39.973 -11.649  10.211 -0.09 +0.00    +0.141 N  
DOCKED: ATOM     16  C   UNL     1     -41.066 -11.274   9.312 -0.12 +0.00    +0.285 C  
DOCKED: ATOM     17  C   UNL     1     -39.080 -10.510  10.427 -0.03 +0.00    +0.285 C  
DOCKED: ENDBRANCH  14  15
DOCKED: ENDBRANCH  13  14
DOCKED: ENDBRANCH  12  13
DOCKED: ENDBRANCH   2  12
DOCKED: BRANCH   2  18
DOCKED: ATOM     18  C   UNL     1     -37.275 -13.971  10.728 -0.13 +0.00    +0.006 A  
DOCKED: ATOM     19  C   UNL     1     -36.072 -13.476  11.230 -0.06 +0.00    +0.001 A  
DOCKED: ATOM     20  C   UNL     1     -35.274 -12.649  10.438 -0.05 +0.00    +0.029 A  
DOCKED: ATOM     21  C   UNL     1     -35.680 -12.319   9.146 -0.06 +0.00    +0.140 A  
DOCKED: ATOM     22  C   UNL     1     -36.883 -12.815   8.644 -0.10 +0.00    +0.029 A  
DOCKED: ATOM     23  F   UNL     1     -34.913 -11.527   8.385 -0.00 -0.00    -0.204 F  
DOCKED: ATOM     24  C   UNL     1     -37.682 -13.641   9.436 -0.13 +0.00    +0.001 A  
DOCKED: ENDBRANCH   2  18
DOCKED: TORSDOF 5
DOCKED: TER
DOCKED: ENDMDL
________________________________________________________________________________


    FINAL DOCKED STATE:
    ________________________


Run:   466 / 512
Time taken for this run:   0.002s

DOCKED: MODEL        466
DOCKED: USER    Run = 466
DOCKED: USER
DOCKED: USER    Estimated Free Energy of Binding    =  -4.66 kcal/mol  [=(1)+(2)+(3)-(4)]
DOCKED: USER
DOCKED: USER    (1) Final Intermolecular Energy     =  -6.15 kcal/mol
DOCKED: USER        vdW + Hbond + desolv Energy     =  -6.15 kcal/mol
DOCKED: USER        Electrostatic Energy            =  +0.00 kcal/mol
DOCKED: USER        Moving Ligand-Fixed Receptor    =  -6.15 kcal/mol
DOCKED: USER        Moving Ligand-Moving Receptor   =  +0.00 kcal/mol
DOCKED: USER    (2) Final Total Internal Energy     =  -1.37 kcal/mol
DOCKED: USER    (3) Torsional Free Energy           =  +1.49 kcal/mol
DOCKED: USER    (4) Unbound System's Energy         =  -1.37 kcal/mol
DOCKED: USER
DOCKED: USER
DOCKED: REMARK  5 active torsions:
DOCKED: REMARK  status: ('A' for Active; 'I' for Inactive)
DOCKED: REMARK    1  A    between atoms: C_2  and  C_19 
DOCKED: REMARK    2  A    between atoms: C_2  and  C_11 
DOCKED: REMARK    3  A    between atoms: C_19  and  C_20 
DOCKED: REMARK    4  A    between atoms: C_20  and  C_21 
DOCKED: REMARK    5  A    between atoms: C_21  and  N_22 
DOCKED: USER                              x       y       z     vdW  Elec       q    Type
DOCKED: USER                           _______ _______ _______ _____ _____    ______ ____
DOCKED: ROOT
DOCKED: ATOM      1  O   UNL     1     -38.953 -13.802  10.399 -0.07 -0.00    -0.346 OA 
DOCKED: ATOM      2  C   UNL     1     -40.267 -14.073  10.983 -0.14 +0.00    +0.130 C  
DOCKED: ATOM      3  C   UNL     1     -40.563 -15.484  10.563 -0.21 +0.00    +0.004 A  
DOCKED: ATOM      4  C   UNL     1     -39.468 -16.011   9.893 -0.28 +0.00    +0.006 A  
DOCKED: ATOM      5  C   UNL     1     -38.383 -15.006   9.834 -0.20 +0.00    +0.169 C  
DOCKED: ATOM      6  C   UNL     1     -41.705 -16.244  10.767 -0.19 -0.00    -0.001 A  
DOCKED: ATOM      7  C   UNL     1     -39.478 -17.306   9.403 -0.34 +0.00    +0.008 A  
DOCKED: ATOM      8  C   UNL     1     -41.732 -17.550  10.276 -0.21 +0.00    +0.010 A  
DOCKED: ATOM      9  C   UNL     1     -40.624 -18.078   9.597 -0.26 +0.00    +0.068 A  
DOCKED: ATOM     10  N   UNL     1     -40.705 -20.508   8.701 -2.60 -0.00    -0.191 NA 
DOCKED: ATOM     11  C   UNL     1     -40.669 -19.418   9.103 -0.36 +0.00    +0.101 C  
DOCKED: ENDROOT
DOCKED: BRANCH   2  12
DOCKED: ATOM     12  C   UNL     1     -40.166 -13.913  12.495 -0.04 +0.00    +0.038 C  
DOCKED: BRANCH  12  13
DOCKED: ATOM     13  C   UNL     1     -39.932 -15.257  13.183 -0.04 +0.00    +0.038 C  
DOCKED: BRANCH  13  14
DOCKED: ATOM     14  C   UNL     1     -38.441 -15.574  13.278 -0.02 +0.00    +0.251 C  
DOCKED: BRANCH  14  15
DOCKED: ATOM     15  N   UNL     1     -38.194 -16.965  12.917 -0.07 +0.00    +0.141 N  
DOCKED: ATOM     16  C   UNL     1     -36.825 -17.136  12.428 -0.11 +0.00    +0.285 C  
DOCKED: ATOM     17  C   UNL     1     -38.438 -17.845  14.061 -0.06 +0.00    +0.285 C  
DOCKED: ENDBRANCH  14  15
DOCKED: ENDBRANCH  13  14
DOCKED: ENDBRANCH  12  13
DOCKED: ENDBRANCH   2  12
DOCKED: BRANCH   2  18
DOCKED: ATOM     18  C   UNL     1     -41.217 -13.081  10.399 -0.20 +0.00    +0.006 A  
DOCKED: ATOM     19  C   UNL     1     -40.762 -12.140   9.477 -0.18 +0.00    +0.001 A  
DOCKED: ATOM     20  C   UNL     1     -41.652 -11.213   8.932 -0.10 +0.00    +0.029 A  
DOCKED: ATOM     21  C   UNL     1     -42.994 -11.229   9.310 -0.10 +0.00    +0.140 A  
DOCKED: ATOM     22  C   UNL     1     -43.448 -12.171  10.232 -0.17 +0.00    +0.029 A  
DOCKED: ATOM     23  F   UNL     1     -43.847 -10.340   8.785 -0.02 -0.00    -0.204 F  
DOCKED: ATOM     24  C   UNL     1     -42.559 -13.099  10.778 -0.18 +0.00    +0.001 A  
DOCKED: ENDBRANCH   2  18
DOCKED: TORSDOF 5
DOCKED: TER
DOCKED: ENDMDL
________________________________________________________________________________


    FINAL DOCKED STATE:
    ________________________


Run:   467 / 512
Time taken for this run:   0.002s

DOCKED: MODEL        467
DOCKED: USER    Run = 467
DOCKED: USER
DOCKED: USER    Estimated Free Energy of Binding    =  -4.69 kcal/mol  [=(1)+(2)+(3)-(4)]
DOCKED: USER
DOCKED: USER    (1) Final Intermolecular Energy     =  -6.19 kcal/mol
DOCKED: USER        vdW + Hbond + desolv Energy     =  -6.19 kcal/mol
DOCKED: USER        Electrostatic Energy            =  +0.00 kcal/mol
DOCKED: USER        Moving Ligand-Fixed Receptor    =  -6.19 kcal/mol
DOCKED: USER        Moving Ligand-Moving Receptor   =  +0.00 kcal/mol
DOCKED: USER    (2) Final Total Internal Energy     =  -1.02 kcal/mol
DOCKED: USER    (3) Torsional Free Energy           =  +1.49 kcal/mol
DOCKED: USER    (4) Unbound System's Energy         =  -1.02 kcal/mol
DOCKED: USER
DOCKED: USER
DOCKED: REMARK  5 active torsions:
DOCKED: REMARK  status: ('A' for Active; 'I' for Inactive)
DOCKED: REMARK    1  A    between atoms: C_2  and  C_19 
DOCKED: REMARK    2  A    between atoms: C_2  and  C_11 
DOCKED: REMARK    3  A    between atoms: C_19  and  C_20 
DOCKED: REMARK    4  A    between atoms: C_20  and  C_21 
DOCKED: REMARK    5  A    between atoms: C_21  and  N_22 
DOCKED: USER                              x       y       z     vdW  Elec       q    Type
DOCKED: USER                           _______ _______ _______ _____ _____    ______ ____
DOCKED: ROOT
DOCKED: ATOM      1  O   UNL     1     -37.537  -9.896   4.699 -0.12 -0.00    -0.346 OA 
DOCKED: ATOM      2  C   UNL     1     -36.235 -10.050   4.050 -0.20 +0.00    +0.130 C  
DOCKED: ATOM      3  C   UNL     1     -36.436  -9.440   2.693 -0.27 +0.00    +0.004 A  
DOCKED: ATOM      4  C   UNL     1     -37.705  -8.886   2.612 -0.09 +0.00    +0.006 A  
DOCKED: ATOM      5  C   UNL     1     -38.418  -9.077   3.895 -0.13 +0.00    +0.169 C  
DOCKED: ATOM      6  C   UNL     1     -35.560  -9.371   1.619 -0.24 -0.00    -0.001 A  
DOCKED: ATOM      7  C   UNL     1     -38.143  -8.252   1.463 -0.13 +0.00    +0.008 A  
DOCKED: ATOM      8  C   UNL     1     -35.988  -8.738   0.451 -0.26 +0.00    +0.010 A  
DOCKED: ATOM      9  C   UNL     1     -37.274  -8.181   0.374 -0.28 +0.00    +0.068 A  
DOCKED: ATOM     10  N   UNL     1     -38.036  -7.009  -1.808 -2.55 -0.00    -0.191 NA 
DOCKED: ATOM     11  C   UNL     1     -37.694  -7.535  -0.830 -0.30 +0.00    +0.101 C  
DOCKED: ENDROOT
DOCKED: BRANCH   2  12
DOCKED: ATOM     12  C   UNL     1     -35.191  -9.316   4.882 -0.18 +0.00    +0.038 C  
DOCKED: BRANCH  12  13
DOCKED: ATOM     13  C   UNL     1     -34.964 -10.006   6.226 -0.12 +0.00    +0.038 C  
DOCKED: BRANCH  13  14
DOCKED: ATOM     14  C   UNL     1     -34.073  -9.161   7.134 -0.07 +0.00    +0.251 C  
DOCKED: BRANCH  14  15
DOCKED: ATOM     15  N   UNL     1     -34.189  -9.608   8.517 -0.03 +0.00    +0.141 N  
DOCKED: ATOM     16  C   UNL     1     -35.166 -10.692   8.629 -0.02 +0.00    +0.285 C  
DOCKED: ATOM     17  C   UNL     1     -32.888 -10.043   9.028 -0.01 +0.00    +0.285 C  
DOCKED: ENDBRANCH  14  15
DOCKED: ENDBRANCH  13  14
DOCKED: ENDBRANCH  12  13
DOCKED: ENDBRANCH   2  12
DOCKED: BRANCH   2  18
DOCKED: ATOM     18  C   UNL     1     -35.947 -11.514   3.993 -0.17 +0.00    +0.006 A  
DOCKED: ATOM     19  C   UNL     1     -34.809 -11.974   3.331 -0.12 +0.00    +0.001 A  
DOCKED: ATOM     20  C   UNL     1     -34.541 -13.343   3.278 -0.16 +0.00    +0.029 A  
DOCKED: ATOM     21  C   UNL     1     -35.410 -14.248   3.887 -0.19 +0.00    +0.140 A  
DOCKED: ATOM     22  C   UNL     1     -36.548 -13.786   4.548 -0.23 +0.00    +0.029 A  
DOCKED: ATOM     23  F   UNL     1     -35.152 -15.561   3.837 -0.11 -0.00    -0.204 F  
DOCKED: ATOM     24  C   UNL     1     -36.817 -12.417   4.601 -0.22 +0.00    +0.001 A  
DOCKED: ENDBRANCH   2  18
DOCKED: TORSDOF 5
DOCKED: TER
DOCKED: ENDMDL
________________________________________________________________________________


    FINAL DOCKED STATE:
    ________________________


Run:   468 / 512
Time taken for this run:   0.002s

DOCKED: MODEL        468
DOCKED: USER    Run = 468
DOCKED: USER
DOCKED: USER    Estimated Free Energy of Binding    =  -5.00 kcal/mol  [=(1)+(2)+(3)-(4)]
DOCKED: USER
DOCKED: USER    (1) Final Intermolecular Energy     =  -6.49 kcal/mol
DOCKED: USER        vdW + Hbond + desolv Energy     =  -6.49 kcal/mol
DOCKED: USER        Electrostatic Energy            =  +0.00 kcal/mol
DOCKED: USER        Moving Ligand-Fixed Receptor    =  -6.49 kcal/mol
DOCKED: USER        Moving Ligand-Moving Receptor   =  +0.00 kcal/mol
DOCKED: USER    (2) Final Total Internal Energy     =  -0.92 kcal/mol
DOCKED: USER    (3) Torsional Free Energy           =  +1.49 kcal/mol
DOCKED: USER    (4) Unbound System's Energy         =  -0.92 kcal/mol
DOCKED: USER
DOCKED: USER
DOCKED: REMARK  5 active torsions:
DOCKED: REMARK  status: ('A' for Active; 'I' for Inactive)
DOCKED: REMARK    1  A    between atoms: C_2  and  C_19 
DOCKED: REMARK    2  A    between atoms: C_2  and  C_11 
DOCKED: REMARK    3  A    between atoms: C_19  and  C_20 
DOCKED: REMARK    4  A    between atoms: C_20  and  C_21 
DOCKED: REMARK    5  A    between atoms: C_21  and  N_22 
DOCKED: USER                              x       y       z     vdW  Elec       q    Type
DOCKED: USER                           _______ _______ _______ _____ _____    ______ ____
DOCKED: ROOT
DOCKED: ATOM      1  O   UNL     1     -37.004 -10.039   4.049 -0.12 -0.00    -0.346 OA 
DOCKED: ATOM      2  C   UNL     1     -35.712  -9.977   3.364 -0.19 +0.00    +0.130 C  
DOCKED: ATOM      3  C   UNL     1     -36.024  -9.281   2.070 -0.27 +0.00    +0.004 A  
DOCKED: ATOM      4  C   UNL     1     -37.353  -8.882   2.063 -0.25 +0.00    +0.006 A  
DOCKED: ATOM      5  C   UNL     1     -38.000  -9.268   3.337 -0.16 +0.00    +0.169 C  
DOCKED: ATOM      6  C   UNL     1     -35.195  -9.013   0.991 -0.22 -0.00    -0.001 A  
DOCKED: ATOM      7  C   UNL     1     -37.898  -8.209   0.983 -0.38 +0.00    +0.008 A  
DOCKED: ATOM      8  C   UNL     1     -35.730  -8.339  -0.108 -0.27 +0.00    +0.010 A  
DOCKED: ATOM      9  C   UNL     1     -37.075  -7.939  -0.111 -0.27 +0.00    +0.068 A  
DOCKED: ATOM     10  N   UNL     1     -38.036  -6.685  -2.165 -2.56 -0.00    -0.191 NA 
DOCKED: ATOM     11  C   UNL     1     -37.605  -7.248  -1.244 -0.30 +0.00    +0.101 C  
DOCKED: ENDROOT
DOCKED: BRANCH   2  12
DOCKED: ATOM     12  C   UNL     1     -34.739  -9.195   4.238 -0.16 +0.00    +0.038 C  
DOCKED: BRANCH  12  13
DOCKED: ATOM     13  C   UNL     1     -33.334  -9.189   3.640 -0.12 +0.00    +0.038 C  
DOCKED: BRANCH  13  14
DOCKED: ATOM     14  C   UNL     1     -32.640  -7.850   3.883 -0.09 +0.00    +0.251 C  
DOCKED: BRANCH  14  15
DOCKED: ATOM     15  N   UNL     1     -31.340  -8.060   4.509 -0.05 +0.00    +0.141 N  
DOCKED: ATOM     16  C   UNL     1     -30.843  -6.815   5.098 -0.05 +0.00    +0.285 C  
DOCKED: ATOM     17  C   UNL     1     -31.422  -9.106   5.530 -0.03 +0.00    +0.285 C  
DOCKED: ENDBRANCH  14  15
DOCKED: ENDBRANCH  13  14
DOCKED: ENDBRANCH  12  13
DOCKED: ENDBRANCH   2  12
DOCKED: BRANCH   2  18
DOCKED: ATOM     18  C   UNL     1     -35.253 -11.384   3.171 -0.15 +0.00    +0.006 A  
DOCKED: ATOM     19  C   UNL     1     -35.114 -11.901   1.884 -0.20 +0.00    +0.001 A  
DOCKED: ATOM     20  C   UNL     1     -34.685 -13.217   1.706 -0.19 +0.00    +0.029 A  
DOCKED: ATOM     21  C   UNL     1     -34.394 -14.012   2.813 -0.16 +0.00    +0.140 A  
DOCKED: ATOM     22  C   UNL     1     -34.532 -13.493   4.101 -0.14 +0.00    +0.029 A  
DOCKED: ATOM     23  F   UNL     1     -33.980 -15.274   2.642 -0.08 -0.00    -0.204 F  
DOCKED: ATOM     24  C   UNL     1     -34.963 -12.178   4.280 -0.11 +0.00    +0.001 A  
DOCKED: ENDBRANCH   2  18
DOCKED: TORSDOF 5
DOCKED: TER
DOCKED: ENDMDL
________________________________________________________________________________


    FINAL DOCKED STATE:
    ________________________


Run:   469 / 512
Time taken for this run:   0.002s

DOCKED: MODEL        469
DOCKED: USER    Run = 469
DOCKED: USER
DOCKED: USER    Estimated Free Energy of Binding    =  -3.74 kcal/mol  [=(1)+(2)+(3)-(4)]
DOCKED: USER
DOCKED: USER    (1) Final Intermolecular Energy     =  -5.23 kcal/mol
DOCKED: USER        vdW + Hbond + desolv Energy     =  -5.23 kcal/mol
DOCKED: USER        Electrostatic Energy            =  +0.00 kcal/mol
DOCKED: USER        Moving Ligand-Fixed Receptor    =  -5.23 kcal/mol
DOCKED: USER        Moving Ligand-Moving Receptor   =  +0.00 kcal/mol
DOCKED: USER    (2) Final Total Internal Energy     =  -1.28 kcal/mol
DOCKED: USER    (3) Torsional Free Energy           =  +1.49 kcal/mol
DOCKED: USER    (4) Unbound System's Energy         =  -1.28 kcal/mol
DOCKED: USER
DOCKED: USER
DOCKED: REMARK  5 active torsions:
DOCKED: REMARK  status: ('A' for Active; 'I' for Inactive)
DOCKED: REMARK    1  A    between atoms: C_2  and  C_19 
DOCKED: REMARK    2  A    between atoms: C_2  and  C_11 
DOCKED: REMARK    3  A    between atoms: C_19  and  C_20 
DOCKED: REMARK    4  A    between atoms: C_20  and  C_21 
DOCKED: REMARK    5  A    between atoms: C_21  and  N_22 
DOCKED: USER                              x       y       z     vdW  Elec       q    Type
DOCKED: USER                           _______ _______ _______ _____ _____    ______ ____
DOCKED: ROOT
DOCKED: ATOM      1  O   UNL     1     -42.052 -13.718  11.581 -0.02 -0.00    -0.346 OA 
DOCKED: ATOM      2  C   UNL     1     -40.627 -13.843  11.272 -0.11 +0.00    +0.130 C  
DOCKED: ATOM      3  C   UNL     1     -40.503 -15.224  10.698 -0.20 +0.00    +0.004 A  
DOCKED: ATOM      4  C   UNL     1     -41.761 -15.798  10.585 -0.21 +0.00    +0.006 A  
DOCKED: ATOM      5  C   UNL     1     -42.791 -14.846  11.057 -0.14 +0.00    +0.169 C  
DOCKED: ATOM      6  C   UNL     1     -39.368 -15.914  10.297 -0.25 -0.00    -0.001 A  
DOCKED: ATOM      7  C   UNL     1     -41.928 -17.074  10.075 -0.23 +0.00    +0.008 A  
DOCKED: ATOM      8  C   UNL     1     -39.519 -17.203   9.785 -0.32 +0.00    +0.010 A  
DOCKED: ATOM      9  C   UNL     1     -40.793 -17.780   9.674 -0.24 +0.00    +0.068 A  
DOCKED: ATOM     10  N   UNL     1     -41.039 -20.174   8.714 -2.56 -0.00    -0.191 NA 
DOCKED: ATOM     11  C   UNL     1     -40.929 -19.100   9.145 -0.35 +0.00    +0.101 C  
DOCKED: ENDROOT
DOCKED: BRANCH   2  12
DOCKED: ATOM     12  C   UNL     1     -40.251 -12.751  10.278 -0.18 +0.00    +0.038 C  
DOCKED: BRANCH  12  13
DOCKED: ATOM     13  C   UNL     1     -40.247 -11.373  10.938 -0.07 +0.00    +0.038 C  
DOCKED: BRANCH  13  14
DOCKED: ATOM     14  C   UNL     1     -41.562 -10.638  10.684 -0.04 +0.00    +0.251 C  
DOCKED: BRANCH  14  15
DOCKED: ATOM     15  N   UNL     1     -42.343 -11.333   9.667 -0.14 +0.00    +0.141 N  
DOCKED: ATOM     16  C   UNL     1     -43.735 -11.479  10.096 -0.08 +0.00    +0.285 C  
DOCKED: ATOM     17  C   UNL     1     -42.277 -10.619   8.391 -0.02 +0.00    +0.285 C  
DOCKED: ENDBRANCH  14  15
DOCKED: ENDBRANCH  13  14
DOCKED: ENDBRANCH  12  13
DOCKED: ENDBRANCH   2  12
DOCKED: BRANCH   2  18
DOCKED: ATOM     18  C   UNL     1     -39.887 -13.678  12.558 -0.03 +0.00    +0.006 A  
DOCKED: ATOM     19  C   UNL     1     -40.542 -13.886  13.771 -0.01 +0.00    +0.001 A  
DOCKED: ATOM     20  C   UNL     1     -39.848 -13.731  14.972 -0.00 +0.00    +0.029 A  
DOCKED: ATOM     21  C   UNL     1     -38.502 -13.370  14.958 -0.00 +0.00    +0.140 A  
DOCKED: ATOM     22  C   UNL     1     -37.847 -13.163  13.744 -0.01 +0.00    +0.029 A  
DOCKED: ATOM     23  F   UNL     1     -37.836 -13.224  16.111 +0.00 -0.00    -0.204 F  
DOCKED: ATOM     24  C   UNL     1     -38.540 -13.317  12.542 -0.03 +0.00    +0.001 A  
DOCKED: ENDBRANCH   2  18
DOCKED: TORSDOF 5
DOCKED: TER
DOCKED: ENDMDL
________________________________________________________________________________


    FINAL DOCKED STATE:
    ________________________


Run:   470 / 512
Time taken for this run:   0.002s

DOCKED: MODEL        470
DOCKED: USER    Run = 470
DOCKED: USER
DOCKED: USER    Estimated Free Energy of Binding    =  -3.88 kcal/mol  [=(1)+(2)+(3)-(4)]
DOCKED: USER
DOCKED: USER    (1) Final Intermolecular Energy     =  -5.37 kcal/mol
DOCKED: USER        vdW + Hbond + desolv Energy     =  -5.37 kcal/mol
DOCKED: USER        Electrostatic Energy            =  +0.00 kcal/mol
DOCKED: USER        Moving Ligand-Fixed Receptor    =  -5.37 kcal/mol
DOCKED: USER        Moving Ligand-Moving Receptor   =  +0.00 kcal/mol
DOCKED: USER    (2) Final Total Internal Energy     =  -1.35 kcal/mol
DOCKED: USER    (3) Torsional Free Energy           =  +1.49 kcal/mol
DOCKED: USER    (4) Unbound System's Energy         =  -1.35 kcal/mol
DOCKED: USER
DOCKED: USER
DOCKED: REMARK  5 active torsions:
DOCKED: REMARK  status: ('A' for Active; 'I' for Inactive)
DOCKED: REMARK    1  A    between atoms: C_2  and  C_19 
DOCKED: REMARK    2  A    between atoms: C_2  and  C_11 
DOCKED: REMARK    3  A    between atoms: C_19  and  C_20 
DOCKED: REMARK    4  A    between atoms: C_20  and  C_21 
DOCKED: REMARK    5  A    between atoms: C_21  and  N_22 
DOCKED: USER                              x       y       z     vdW  Elec       q    Type
DOCKED: USER                           _______ _______ _______ _____ _____    ______ ____
DOCKED: ROOT
DOCKED: ATOM      1  O   UNL     1     -31.542  -5.856   0.046 +0.00 -0.00    -0.346 OA 
DOCKED: ATOM      2  C   UNL     1     -32.253  -6.524   1.136 -0.06 +0.00    +0.130 C  
DOCKED: ATOM      3  C   UNL     1     -33.643  -6.707   0.599 -0.15 +0.00    +0.004 A  
DOCKED: ATOM      4  C   UNL     1     -33.694  -6.282  -0.721 -0.17 +0.00    +0.006 A  
DOCKED: ATOM      5  C   UNL     1     -32.358  -5.808  -1.147 -0.08 +0.00    +0.169 C  
DOCKED: ATOM      6  C   UNL     1     -34.770  -7.220   1.225 -0.19 -0.00    -0.001 A  
DOCKED: ATOM      7  C   UNL     1     -34.865  -6.350  -1.456 -0.25 +0.00    +0.008 A  
DOCKED: ATOM      8  C   UNL     1     -35.960  -7.290   0.499 -0.32 +0.00    +0.010 A  
DOCKED: ATOM      9  C   UNL     1     -36.007  -6.858  -0.835 -0.35 +0.00    +0.068 A  
DOCKED: ATOM     10  N   UNL     1     -38.231  -7.008  -2.156 -2.56 -0.00    -0.191 NA 
DOCKED: ATOM     11  C   UNL     1     -37.234  -6.940  -1.563 -0.39 +0.00    +0.101 C  
DOCKED: ENDROOT
DOCKED: BRANCH   2  12
DOCKED: ATOM     12  C   UNL     1     -31.553  -7.845   1.432 -0.04 +0.00    +0.038 C  
DOCKED: BRANCH  12  13
DOCKED: ATOM     13  C   UNL     1     -32.205  -9.002   0.678 -0.03 +0.00    +0.038 C  
DOCKED: BRANCH  13  14
DOCKED: ATOM     14  C   UNL     1     -31.717  -9.060  -0.769 +0.00 +0.00    +0.251 C  
DOCKED: BRANCH  14  15
DOCKED: ATOM     15  N   UNL     1     -32.466 -10.062  -1.517 -0.03 +0.00    +0.141 N  
DOCKED: ATOM     16  C   UNL     1     -33.906  -9.824  -1.401 -0.10 +0.00    +0.285 C  
DOCKED: ATOM     17  C   UNL     1     -32.063 -10.063  -2.924 -0.01 +0.00    +0.285 C  
DOCKED: ENDBRANCH  14  15
DOCKED: ENDBRANCH  13  14
DOCKED: ENDBRANCH  12  13
DOCKED: ENDBRANCH   2  12
DOCKED: BRANCH   2  18
DOCKED: ATOM     18  C   UNL     1     -32.201  -5.611   2.315 -0.12 +0.00    +0.006 A  
DOCKED: ATOM     19  C   UNL     1     -31.554  -6.017   3.482 -0.09 +0.00    +0.001 A  
DOCKED: ATOM     20  C   UNL     1     -31.507  -5.162   4.584 -0.07 +0.00    +0.029 A  
DOCKED: ATOM     21  C   UNL     1     -32.105  -3.905   4.518 -0.04 +0.00    +0.140 A  
DOCKED: ATOM     22  C   UNL     1     -32.751  -3.500   3.351 -0.13 +0.00    +0.029 A  
DOCKED: ATOM     23  F   UNL     1     -32.057  -3.084   5.576 -0.03 -0.00    -0.204 F  
DOCKED: ATOM     24  C   UNL     1     -32.800  -4.354   2.248 -0.16 +0.00    +0.001 A  
DOCKED: ENDBRANCH   2  18
DOCKED: TORSDOF 5
DOCKED: TER
DOCKED: ENDMDL
________________________________________________________________________________


    FINAL DOCKED STATE:
    ________________________


Run:   471 / 512
Time taken for this run:   0.002s

DOCKED: MODEL        471
DOCKED: USER    Run = 471
DOCKED: USER
DOCKED: USER    Estimated Free Energy of Binding    =  -4.90 kcal/mol  [=(1)+(2)+(3)-(4)]
DOCKED: USER
DOCKED: USER    (1) Final Intermolecular Energy     =  -6.39 kcal/mol
DOCKED: USER        vdW + Hbond + desolv Energy     =  -6.39 kcal/mol
DOCKED: USER        Electrostatic Energy            =  +0.00 kcal/mol
DOCKED: USER        Moving Ligand-Fixed Receptor    =  -6.39 kcal/mol
DOCKED: USER        Moving Ligand-Moving Receptor   =  +0.00 kcal/mol
DOCKED: USER    (2) Final Total Internal Energy     =  -1.07 kcal/mol
DOCKED: USER    (3) Torsional Free Energy           =  +1.49 kcal/mol
DOCKED: USER    (4) Unbound System's Energy         =  -1.07 kcal/mol
DOCKED: USER
DOCKED: USER
DOCKED: REMARK  5 active torsions:
DOCKED: REMARK  status: ('A' for Active; 'I' for Inactive)
DOCKED: REMARK    1  A    between atoms: C_2  and  C_19 
DOCKED: REMARK    2  A    between atoms: C_2  and  C_11 
DOCKED: REMARK    3  A    between atoms: C_19  and  C_20 
DOCKED: REMARK    4  A    between atoms: C_20  and  C_21 
DOCKED: REMARK    5  A    between atoms: C_21  and  N_22 
DOCKED: USER                              x       y       z     vdW  Elec       q    Type
DOCKED: USER                           _______ _______ _______ _____ _____    ______ ____
DOCKED: ROOT
DOCKED: ATOM      1  O   UNL     1     -40.732 -18.796  12.097 -0.07 -0.00    -0.346 OA 
DOCKED: ATOM      2  C   UNL     1     -40.082 -17.586  11.592 -0.13 +0.00    +0.130 C  
DOCKED: ATOM      3  C   UNL     1     -40.172 -17.726  10.100 -0.27 +0.00    +0.004 A  
DOCKED: ATOM      4  C   UNL     1     -40.907 -18.860   9.780 -0.30 +0.00    +0.006 A  
DOCKED: ATOM      5  C   UNL     1     -41.357 -19.532  11.020 -0.15 +0.00    +0.169 C  
DOCKED: ATOM      6  C   UNL     1     -39.656 -16.910   9.104 -0.33 -0.00    -0.001 A  
DOCKED: ATOM      7  C   UNL     1     -41.145 -19.217   8.464 -0.41 +0.00    +0.008 A  
DOCKED: ATOM      8  C   UNL     1     -39.884 -17.259   7.772 +0.03 +0.00    +0.010 A  
DOCKED: ATOM      9  C   UNL     1     -40.626 -18.406   7.454 -0.40 +0.00    +0.068 A  
DOCKED: ATOM     10  N   UNL     1     -41.035 -19.023   4.971 -2.95 -0.00    -0.191 NA 
DOCKED: ATOM     11  C   UNL     1     -40.851 -18.747   6.085 -0.35 +0.00    +0.101 C  
DOCKED: ENDROOT
DOCKED: BRANCH   2  12
DOCKED: ATOM     12  C   UNL     1     -40.839 -16.374  12.121 -0.09 +0.00    +0.038 C  
DOCKED: BRANCH  12  13
DOCKED: ATOM     13  C   UNL     1     -40.347 -15.083  11.471 -0.13 +0.00    +0.038 C  
DOCKED: BRANCH  13  14
DOCKED: ATOM     14  C   UNL     1     -40.862 -13.858  12.224 -0.03 +0.00    +0.251 C  
DOCKED: BRANCH  14  15
DOCKED: ATOM     15  N   UNL     1     -40.014 -13.577  13.376 -0.01 +0.00    +0.141 N  
DOCKED: ATOM     16  C   UNL     1     -40.403 -14.407  14.517 -0.00 +0.00    +0.285 C  
DOCKED: ATOM     17  C   UNL     1     -38.605 -13.797  13.045 -0.01 +0.00    +0.285 C  
DOCKED: ENDBRANCH  14  15
DOCKED: ENDBRANCH  13  14
DOCKED: ENDBRANCH  12  13
DOCKED: ENDBRANCH   2  12
DOCKED: BRANCH   2  18
DOCKED: ATOM     18  C   UNL     1     -38.676 -17.604  12.093 -0.17 +0.00    +0.006 A  
DOCKED: ATOM     19  C   UNL     1     -38.415 -17.364  13.441 -0.10 +0.00    +0.001 A  
DOCKED: ATOM     20  C   UNL     1     -37.100 -17.380  13.909 -0.10 +0.00    +0.029 A  
DOCKED: ATOM     21  C   UNL     1     -36.050 -17.638  13.029 -0.04 +0.00    +0.140 A  
DOCKED: ATOM     22  C   UNL     1     -36.313 -17.879  11.681 -0.11 +0.00    +0.029 A  
DOCKED: ATOM     23  F   UNL     1     -34.789 -17.655  13.478 -0.03 -0.00    -0.204 F  
DOCKED: ATOM     24  C   UNL     1     -37.627 -17.862  11.212 -0.26 +0.00    +0.001 A  
DOCKED: ENDBRANCH   2  18
DOCKED: TORSDOF 5
DOCKED: TER
DOCKED: ENDMDL
________________________________________________________________________________


    FINAL DOCKED STATE:
    ________________________


Run:   472 / 512
Time taken for this run:   0.002s

DOCKED: MODEL        472
DOCKED: USER    Run = 472
DOCKED: USER
DOCKED: USER    Estimated Free Energy of Binding    =  -3.83 kcal/mol  [=(1)+(2)+(3)-(4)]
DOCKED: USER
DOCKED: USER    (1) Final Intermolecular Energy     =  -5.32 kcal/mol
DOCKED: USER        vdW + Hbond + desolv Energy     =  -5.32 kcal/mol
DOCKED: USER        Electrostatic Energy            =  +0.00 kcal/mol
DOCKED: USER        Moving Ligand-Fixed Receptor    =  -5.32 kcal/mol
DOCKED: USER        Moving Ligand-Moving Receptor   =  +0.00 kcal/mol
DOCKED: USER    (2) Final Total Internal Energy     =  -1.43 kcal/mol
DOCKED: USER    (3) Torsional Free Energy           =  +1.49 kcal/mol
DOCKED: USER    (4) Unbound System's Energy         =  -1.43 kcal/mol
DOCKED: USER
DOCKED: USER
DOCKED: REMARK  5 active torsions:
DOCKED: REMARK  status: ('A' for Active; 'I' for Inactive)
DOCKED: REMARK    1  A    between atoms: C_2  and  C_19 
DOCKED: REMARK    2  A    between atoms: C_2  and  C_11 
DOCKED: REMARK    3  A    between atoms: C_19  and  C_20 
DOCKED: REMARK    4  A    between atoms: C_20  and  C_21 
DOCKED: REMARK    5  A    between atoms: C_21  and  N_22 
DOCKED: USER                              x       y       z     vdW  Elec       q    Type
DOCKED: USER                           _______ _______ _______ _____ _____    ______ ____
DOCKED: ROOT
DOCKED: ATOM      1  O   UNL     1     -31.793  -8.565   0.440 +0.01 -0.00    -0.346 OA 
DOCKED: ATOM      2  C   UNL     1     -32.413  -7.614   1.363 -0.05 +0.00    +0.130 C  
DOCKED: ATOM      3  C   UNL     1     -33.745  -7.320   0.737 -0.13 +0.00    +0.004 A  
DOCKED: ATOM      4  C   UNL     1     -33.918  -8.116  -0.386 -0.11 +0.00    +0.006 A  
DOCKED: ATOM      5  C   UNL     1     -32.737  -8.989  -0.571 -0.03 +0.00    +0.169 C  
DOCKED: ATOM      6  C   UNL     1     -34.729  -6.427   1.135 -0.22 -0.00    -0.001 A  
DOCKED: ATOM      7  C   UNL     1     -35.072  -8.046  -1.148 -0.23 +0.00    +0.008 A  
DOCKED: ATOM      8  C   UNL     1     -35.897  -6.342   0.375 -0.31 +0.00    +0.010 A  
DOCKED: ATOM      9  C   UNL     1     -36.067  -7.148  -0.761 -0.35 +0.00    +0.068 A  
DOCKED: ATOM     10  N   UNL     1     -38.249  -6.967  -2.147 -2.54 -0.00    -0.191 NA 
DOCKED: ATOM     11  C   UNL     1     -37.270  -7.048  -1.525 -0.41 +0.00    +0.101 C  
DOCKED: ENDROOT
DOCKED: BRANCH   2  12
DOCKED: ATOM     12  C   UNL     1     -32.533  -8.277   2.731 -0.10 +0.00    +0.038 C  
DOCKED: BRANCH  12  13
DOCKED: ATOM     13  C   UNL     1     -33.527  -9.436   2.702 -0.10 +0.00    +0.038 C  
DOCKED: BRANCH  13  14
DOCKED: ATOM     14  C   UNL     1     -34.883  -9.011   3.263 -0.05 +0.00    +0.251 C  
DOCKED: BRANCH  14  15
DOCKED: ATOM     15  N   UNL     1     -35.912  -9.974   2.889 -0.18 +0.00    +0.141 N  
DOCKED: ATOM     16  C   UNL     1     -37.108  -9.288   2.398 -0.19 +0.00    +0.285 C  
DOCKED: ATOM     17  C   UNL     1     -35.406 -10.900   1.874 -0.15 +0.00    +0.285 C  
DOCKED: ENDBRANCH  14  15
DOCKED: ENDBRANCH  13  14
DOCKED: ENDBRANCH  12  13
DOCKED: ENDBRANCH   2  12
DOCKED: BRANCH   2  18
DOCKED: ATOM     18  C   UNL     1     -31.521  -6.419   1.421 -0.05 +0.00    +0.006 A  
DOCKED: ATOM     19  C   UNL     1     -30.797  -6.035   0.294 -0.03 +0.00    +0.001 A  
DOCKED: ATOM     20  C   UNL     1     -29.963  -4.917   0.349 -0.02 +0.00    +0.029 A  
DOCKED: ATOM     21  C   UNL     1     -29.855  -4.186   1.531 -0.00 +0.00    +0.140 A  
DOCKED: ATOM     22  C   UNL     1     -30.580  -4.570   2.659 -0.03 +0.00    +0.029 A  
DOCKED: ATOM     23  F   UNL     1     -29.056  -3.112   1.584 +0.00 -0.00    -0.204 F  
DOCKED: ATOM     24  C   UNL     1     -31.414  -5.688   2.604 -0.07 +0.00    +0.001 A  
DOCKED: ENDBRANCH   2  18
DOCKED: TORSDOF 5
DOCKED: TER
DOCKED: ENDMDL
________________________________________________________________________________


    FINAL DOCKED STATE:
    ________________________


Run:   473 / 512
Time taken for this run:   0.002s

DOCKED: MODEL        473
DOCKED: USER    Run = 473
DOCKED: USER
DOCKED: USER    Estimated Free Energy of Binding    =  -3.63 kcal/mol  [=(1)+(2)+(3)-(4)]
DOCKED: USER
DOCKED: USER    (1) Final Intermolecular Energy     =  -5.12 kcal/mol
DOCKED: USER        vdW + Hbond + desolv Energy     =  -5.12 kcal/mol
DOCKED: USER        Electrostatic Energy            =  +0.00 kcal/mol
DOCKED: USER        Moving Ligand-Fixed Receptor    =  -5.12 kcal/mol
DOCKED: USER        Moving Ligand-Moving Receptor   =  +0.00 kcal/mol
DOCKED: USER    (2) Final Total Internal Energy     =  -1.13 kcal/mol
DOCKED: USER    (3) Torsional Free Energy           =  +1.49 kcal/mol
DOCKED: USER    (4) Unbound System's Energy         =  -1.13 kcal/mol
DOCKED: USER
DOCKED: USER
DOCKED: REMARK  5 active torsions:
DOCKED: REMARK  status: ('A' for Active; 'I' for Inactive)
DOCKED: REMARK    1  A    between atoms: C_2  and  C_19 
DOCKED: REMARK    2  A    between atoms: C_2  and  C_11 
DOCKED: REMARK    3  A    between atoms: C_19  and  C_20 
DOCKED: REMARK    4  A    between atoms: C_20  and  C_21 
DOCKED: REMARK    5  A    between atoms: C_21  and  N_22 
DOCKED: USER                              x       y       z     vdW  Elec       q    Type
DOCKED: USER                           _______ _______ _______ _____ _____    ______ ____
DOCKED: ROOT
DOCKED: ATOM      1  O   UNL     1     -36.220  -7.761   1.249 -0.07 -0.00    -0.346 OA 
DOCKED: ATOM      2  C   UNL     1     -34.835  -8.055   0.880 -0.18 +0.00    +0.130 C  
DOCKED: ATOM      3  C   UNL     1     -34.761  -7.673  -0.570 -0.20 +0.00    +0.004 A  
DOCKED: ATOM      4  C   UNL     1     -35.965  -7.107  -0.966 -0.38 +0.00    +0.006 A  
DOCKED: ATOM      5  C   UNL     1     -36.901  -7.064   0.180 -0.34 +0.00    +0.169 C  
DOCKED: ATOM      6  C   UNL     1     -33.709  -7.805  -1.465 -0.11 -0.00    -0.001 A  
DOCKED: ATOM      7  C   UNL     1     -36.160  -6.661  -2.262 -0.35 +0.00    +0.008 A  
DOCKED: ATOM      8  C   UNL     1     -33.891  -7.364  -2.776 -0.16 +0.00    +0.010 A  
DOCKED: ATOM      9  C   UNL     1     -35.110  -6.794  -3.173 -0.22 +0.00    +0.068 A  
DOCKED: ATOM     10  N   UNL     1     -35.414  -5.981  -5.614 -1.12 -0.00    -0.191 NA 
DOCKED: ATOM     11  C   UNL     1     -35.278  -6.346  -4.519 -0.07 +0.00    +0.101 C  
DOCKED: ENDROOT
DOCKED: BRANCH   2  12
DOCKED: ATOM     12  C   UNL     1     -33.913  -7.220   1.761 -0.18 +0.00    +0.038 C  
DOCKED: BRANCH  12  13
DOCKED: ATOM     13  C   UNL     1     -33.723  -5.815   1.194 -0.23 +0.00    +0.038 C  
DOCKED: BRANCH  13  14
DOCKED: ATOM     14  C   UNL     1     -34.877  -4.899   1.598 -0.16 +0.00    +0.251 C  
DOCKED: BRANCH  14  15
DOCKED: ATOM     15  N   UNL     1     -34.453  -3.505   1.566 -0.24 +0.00    +0.141 N  
DOCKED: ATOM     16  C   UNL     1     -35.537  -2.626   2.008 -0.21 +0.00    +0.285 C  
DOCKED: ATOM     17  C   UNL     1     -33.268  -3.307   2.402 -0.11 +0.00    +0.285 C  
DOCKED: ENDBRANCH  14  15
DOCKED: ENDBRANCH  13  14
DOCKED: ENDBRANCH  12  13
DOCKED: ENDBRANCH   2  12
DOCKED: BRANCH   2  18
DOCKED: ATOM     18  C   UNL     1     -34.623  -9.514   1.108 -0.16 +0.00    +0.006 A  
DOCKED: ATOM     19  C   UNL     1     -35.364 -10.448   0.384 -0.12 +0.00    +0.001 A  
DOCKED: ATOM     20  C   UNL     1     -35.164 -11.812   0.600 -0.17 +0.00    +0.029 A  
DOCKED: ATOM     21  C   UNL     1     -34.226 -12.240   1.537 -0.12 +0.00    +0.140 A  
DOCKED: ATOM     22  C   UNL     1     -33.485 -11.306   2.261 -0.05 +0.00    +0.029 A  
DOCKED: ATOM     23  F   UNL     1     -34.034 -13.550   1.742 -0.06 -0.00    -0.204 F  
DOCKED: ATOM     24  C   UNL     1     -33.684  -9.941   2.047 -0.08 +0.00    +0.001 A  
DOCKED: ENDBRANCH   2  18
DOCKED: TORSDOF 5
DOCKED: TER
DOCKED: ENDMDL
________________________________________________________________________________


    FINAL DOCKED STATE:
    ________________________


Run:   474 / 512
Time taken for this run:   0.002s

DOCKED: MODEL        474
DOCKED: USER    Run = 474
DOCKED: USER
DOCKED: USER    Estimated Free Energy of Binding    =  -4.31 kcal/mol  [=(1)+(2)+(3)-(4)]
DOCKED: USER
DOCKED: USER    (1) Final Intermolecular Energy     =  -5.80 kcal/mol
DOCKED: USER        vdW + Hbond + desolv Energy     =  -5.80 kcal/mol
DOCKED: USER        Electrostatic Energy            =  +0.00 kcal/mol
DOCKED: USER        Moving Ligand-Fixed Receptor    =  -5.80 kcal/mol
DOCKED: USER        Moving Ligand-Moving Receptor   =  +0.00 kcal/mol
DOCKED: USER    (2) Final Total Internal Energy     =  -1.36 kcal/mol
DOCKED: USER    (3) Torsional Free Energy           =  +1.49 kcal/mol
DOCKED: USER    (4) Unbound System's Energy         =  -1.36 kcal/mol
DOCKED: USER
DOCKED: USER
DOCKED: REMARK  5 active torsions:
DOCKED: REMARK  status: ('A' for Active; 'I' for Inactive)
DOCKED: REMARK    1  A    between atoms: C_2  and  C_19 
DOCKED: REMARK    2  A    between atoms: C_2  and  C_11 
DOCKED: REMARK    3  A    between atoms: C_19  and  C_20 
DOCKED: REMARK    4  A    between atoms: C_20  and  C_21 
DOCKED: REMARK    5  A    between atoms: C_21  and  N_22 
DOCKED: USER                              x       y       z     vdW  Elec       q    Type
DOCKED: USER                           _______ _______ _______ _____ _____    ______ ____
DOCKED: ROOT
DOCKED: ATOM      1  O   UNL     1     -36.677 -15.639  11.640 -0.07 -0.00    -0.346 OA 
DOCKED: ATOM      2  C   UNL     1     -37.866 -14.939  11.151 -0.13 +0.00    +0.130 C  
DOCKED: ATOM      3  C   UNL     1     -38.691 -16.025  10.524 -0.23 +0.00    +0.004 A  
DOCKED: ATOM      4  C   UNL     1     -38.081 -17.254  10.733 -0.25 +0.00    +0.006 A  
DOCKED: ATOM      5  C   UNL     1     -36.836 -17.071  11.513 -0.15 +0.00    +0.169 C  
DOCKED: ATOM      6  C   UNL     1     -39.890 -15.935   9.833 -0.27 -0.00    -0.001 A  
DOCKED: ATOM      7  C   UNL     1     -38.643 -18.427  10.259 -0.34 +0.00    +0.008 A  
DOCKED: ATOM      8  C   UNL     1     -40.467 -17.108   9.345 -0.29 +0.00    +0.010 A  
DOCKED: ATOM      9  C   UNL     1     -39.847 -18.348   9.558 -0.31 +0.00    +0.068 A  
DOCKED: ATOM     10  N   UNL     1     -40.947 -20.508   8.643 -2.52 -0.00    -0.191 NA 
DOCKED: ATOM     11  C   UNL     1     -40.453 -19.539   9.052 -0.32 +0.00    +0.101 C  
DOCKED: ENDROOT
DOCKED: BRANCH   2  12
DOCKED: ATOM     12  C   UNL     1     -38.559 -14.277  12.336 -0.05 +0.00    +0.038 C  
DOCKED: BRANCH  12  13
DOCKED: ATOM     13  C   UNL     1     -39.548 -15.229  13.005 -0.04 +0.00    +0.038 C  
DOCKED: BRANCH  13  14
DOCKED: ATOM     14  C   UNL     1     -38.951 -15.843  14.270 -0.01 +0.00    +0.251 C  
DOCKED: BRANCH  14  15
DOCKED: ATOM     15  N   UNL     1     -39.297 -17.256  14.361 -0.04 +0.00    +0.141 N  
DOCKED: ATOM     16  C   UNL     1     -39.550 -17.638  15.751 -0.01 +0.00    +0.285 C  
DOCKED: ATOM     17  C   UNL     1     -40.467 -17.555  13.532 -0.03 +0.00    +0.285 C  
DOCKED: ENDBRANCH  14  15
DOCKED: ENDBRANCH  13  14
DOCKED: ENDBRANCH  12  13
DOCKED: ENDBRANCH   2  12
DOCKED: BRANCH   2  18
DOCKED: ATOM     18  C   UNL     1     -37.398 -13.921  10.165 -0.16 +0.00    +0.006 A  
DOCKED: ATOM     19  C   UNL     1     -38.188 -12.807   9.885 -0.13 +0.00    +0.001 A  
DOCKED: ATOM     20  C   UNL     1     -37.749 -11.856   8.962 -0.10 +0.00    +0.029 A  
DOCKED: ATOM     21  C   UNL     1     -36.522 -12.021   8.322 -0.08 +0.00    +0.140 A  
DOCKED: ATOM     22  C   UNL     1     -35.732 -13.136   8.602 -0.13 +0.00    +0.029 A  
DOCKED: ATOM     23  F   UNL     1     -36.101 -11.108   7.437 -0.01 -0.00    -0.204 F  
DOCKED: ATOM     24  C   UNL     1     -36.170 -14.087   9.524 -0.14 +0.00    +0.001 A  
DOCKED: ENDBRANCH   2  18
DOCKED: TORSDOF 5
DOCKED: TER
DOCKED: ENDMDL
________________________________________________________________________________


    FINAL DOCKED STATE:
    ________________________


Run:   475 / 512
Time taken for this run:   0.002s

DOCKED: MODEL        475
DOCKED: USER    Run = 475
DOCKED: USER
DOCKED: USER    Estimated Free Energy of Binding    =  -3.92 kcal/mol  [=(1)+(2)+(3)-(4)]
DOCKED: USER
DOCKED: USER    (1) Final Intermolecular Energy     =  -5.41 kcal/mol
DOCKED: USER        vdW + Hbond + desolv Energy     =  -5.41 kcal/mol
DOCKED: USER        Electrostatic Energy            =  +0.00 kcal/mol
DOCKED: USER        Moving Ligand-Fixed Receptor    =  -5.41 kcal/mol
DOCKED: USER        Moving Ligand-Moving Receptor   =  +0.00 kcal/mol
DOCKED: USER    (2) Final Total Internal Energy     =  -1.39 kcal/mol
DOCKED: USER    (3) Torsional Free Energy           =  +1.49 kcal/mol
DOCKED: USER    (4) Unbound System's Energy         =  -1.39 kcal/mol
DOCKED: USER
DOCKED: USER
DOCKED: REMARK  5 active torsions:
DOCKED: REMARK  status: ('A' for Active; 'I' for Inactive)
DOCKED: REMARK    1  A    between atoms: C_2  and  C_19 
DOCKED: REMARK    2  A    between atoms: C_2  and  C_11 
DOCKED: REMARK    3  A    between atoms: C_19  and  C_20 
DOCKED: REMARK    4  A    between atoms: C_20  and  C_21 
DOCKED: REMARK    5  A    between atoms: C_21  and  N_22 
DOCKED: USER                              x       y       z     vdW  Elec       q    Type
DOCKED: USER                           _______ _______ _______ _____ _____    ______ ____
DOCKED: ROOT
DOCKED: ATOM      1  O   UNL     1     -36.367 -10.634   4.240 -0.06 -0.00    -0.346 OA 
DOCKED: ATOM      2  C   UNL     1     -35.189  -9.856   3.854 -0.15 +0.00    +0.130 C  
DOCKED: ATOM      3  C   UNL     1     -35.619  -9.149   2.602 -0.17 +0.00    +0.004 A  
DOCKED: ATOM      4  C   UNL     1     -36.959  -9.411   2.355 -0.29 +0.00    +0.006 A  
DOCKED: ATOM      5  C   UNL     1     -37.504 -10.286   3.416 -0.18 +0.00    +0.169 C  
DOCKED: ATOM      6  C   UNL     1     -34.886  -8.329   1.756 -0.16 -0.00    -0.001 A  
DOCKED: ATOM      7  C   UNL     1     -37.608  -8.870   1.258 -0.24 +0.00    +0.008 A  
DOCKED: ATOM      8  C   UNL     1     -35.526  -7.780   0.643 -0.26 +0.00    +0.010 A  
DOCKED: ATOM      9  C   UNL     1     -36.880  -8.049   0.396 -0.34 +0.00    +0.068 A  
DOCKED: ATOM     10  N   UNL     1     -38.038  -7.010  -1.676 -2.44 -0.00    -0.191 NA 
DOCKED: ATOM     11  C   UNL     1     -37.518  -7.477  -0.747 -0.39 +0.00    +0.101 C  
DOCKED: ENDROOT
DOCKED: BRANCH   2  12
DOCKED: ATOM     12  C   UNL     1     -34.850  -8.899   4.991 -0.12 +0.00    +0.038 C  
DOCKED: BRANCH  12  13
DOCKED: ATOM     13  C   UNL     1     -35.895  -8.962   6.103 -0.19 +0.00    +0.038 C  
DOCKED: BRANCH  13  14
DOCKED: ATOM     14  C   UNL     1     -35.256  -9.347   7.436 -0.08 +0.00    +0.251 C  
DOCKED: BRANCH  14  15
DOCKED: ATOM     15  N   UNL     1     -34.441 -10.546   7.280 -0.03 +0.00    +0.141 N  
DOCKED: ATOM     16  C   UNL     1     -33.154 -10.388   7.960 -0.01 +0.00    +0.285 C  
DOCKED: ATOM     17  C   UNL     1     -35.146 -11.720   7.795 -0.04 +0.00    +0.285 C  
DOCKED: ENDBRANCH  14  15
DOCKED: ENDBRANCH  13  14
DOCKED: ENDBRANCH  12  13
DOCKED: ENDBRANCH   2  12
DOCKED: BRANCH   2  18
DOCKED: ATOM     18  C   UNL     1     -34.081 -10.829   3.621 -0.07 +0.00    +0.006 A  
DOCKED: ATOM     19  C   UNL     1     -32.755 -10.403   3.682 -0.03 +0.00    +0.001 A  
DOCKED: ATOM     20  C   UNL     1     -31.721 -11.313   3.463 -0.01 +0.00    +0.029 A  
DOCKED: ATOM     21  C   UNL     1     -32.013 -12.648   3.186 -0.01 +0.00    +0.140 A  
DOCKED: ATOM     22  C   UNL     1     -33.340 -13.074   3.126 -0.07 +0.00    +0.029 A  
DOCKED: ATOM     23  F   UNL     1     -31.020 -13.522   2.978 +0.00 -0.00    -0.204 F  
DOCKED: ATOM     24  C   UNL     1     -34.375 -12.163   3.344 -0.09 +0.00    +0.001 A  
DOCKED: ENDBRANCH   2  18
DOCKED: TORSDOF 5
DOCKED: TER
DOCKED: ENDMDL
________________________________________________________________________________


    FINAL DOCKED STATE:
    ________________________


Run:   476 / 512
Time taken for this run:   0.002s

DOCKED: MODEL        476
DOCKED: USER    Run = 476
DOCKED: USER
DOCKED: USER    Estimated Free Energy of Binding    =  -4.21 kcal/mol  [=(1)+(2)+(3)-(4)]
DOCKED: USER
DOCKED: USER    (1) Final Intermolecular Energy     =  -5.71 kcal/mol
DOCKED: USER        vdW + Hbond + desolv Energy     =  -5.71 kcal/mol
DOCKED: USER        Electrostatic Energy            =  +0.00 kcal/mol
DOCKED: USER        Moving Ligand-Fixed Receptor    =  -5.71 kcal/mol
DOCKED: USER        Moving Ligand-Moving Receptor   =  +0.00 kcal/mol
DOCKED: USER    (2) Final Total Internal Energy     =  -1.50 kcal/mol
DOCKED: USER    (3) Torsional Free Energy           =  +1.49 kcal/mol
DOCKED: USER    (4) Unbound System's Energy         =  -1.50 kcal/mol
DOCKED: USER
DOCKED: USER
DOCKED: REMARK  5 active torsions:
DOCKED: REMARK  status: ('A' for Active; 'I' for Inactive)
DOCKED: REMARK    1  A    between atoms: C_2  and  C_19 
DOCKED: REMARK    2  A    between atoms: C_2  and  C_11 
DOCKED: REMARK    3  A    between atoms: C_19  and  C_20 
DOCKED: REMARK    4  A    between atoms: C_20  and  C_21 
DOCKED: REMARK    5  A    between atoms: C_21  and  N_22 
DOCKED: USER                              x       y       z     vdW  Elec       q    Type
DOCKED: USER                           _______ _______ _______ _____ _____    ______ ____
DOCKED: ROOT
DOCKED: ATOM      1  O   UNL     1     -38.891 -14.064  11.306 -0.03 -0.00    -0.346 OA 
DOCKED: ATOM      2  C   UNL     1     -40.352 -14.130  11.264 -0.11 +0.00    +0.130 C  
DOCKED: ATOM      3  C   UNL     1     -40.635 -15.489  10.693 -0.20 +0.00    +0.004 A  
DOCKED: ATOM      4  C   UNL     1     -39.445 -16.183  10.528 -0.23 +0.00    +0.006 A  
DOCKED: ATOM      5  C   UNL     1     -38.310 -15.349  10.982 -0.15 +0.00    +0.169 C  
DOCKED: ATOM      6  C   UNL     1     -41.849 -16.070  10.359 -0.22 -0.00    -0.001 A  
DOCKED: ATOM      7  C   UNL     1     -39.426 -17.471  10.021 -0.31 +0.00    +0.008 A  
DOCKED: ATOM      8  C   UNL     1     -41.847 -17.367   9.842 -0.24 +0.00    +0.010 A  
DOCKED: ATOM      9  C   UNL     1     -40.641 -18.064   9.675 -0.25 +0.00    +0.068 A  
DOCKED: ATOM     10  N   UNL     1     -40.672 -20.472   8.719 -2.60 -0.00    -0.191 NA 
DOCKED: ATOM     11  C   UNL     1     -40.658 -19.392   9.147 -0.36 +0.00    +0.101 C  
DOCKED: ENDROOT
DOCKED: BRANCH   2  12
DOCKED: ATOM     12  C   UNL     1     -40.884 -13.959  12.682 -0.04 +0.00    +0.038 C  
DOCKED: BRANCH  12  13
DOCKED: ATOM     13  C   UNL     1     -39.766 -13.593  13.656 -0.01 +0.00    +0.038 C  
DOCKED: BRANCH  13  14
DOCKED: ATOM     14  C   UNL     1     -39.744 -12.090  13.929 -0.00 +0.00    +0.251 C  
DOCKED: BRANCH  14  15
DOCKED: ATOM     15  N   UNL     1     -38.455 -11.524  13.550 -0.00 +0.00    +0.141 N  
DOCKED: ATOM     16  C   UNL     1     -37.418 -12.557  13.550 -0.00 +0.00    +0.285 C  
DOCKED: ATOM     17  C   UNL     1     -38.537 -10.888  12.234 -0.00 +0.00    +0.285 C  
DOCKED: ENDBRANCH  14  15
DOCKED: ENDBRANCH  13  14
DOCKED: ENDBRANCH  12  13
DOCKED: ENDBRANCH   2  12
DOCKED: BRANCH   2  18
DOCKED: ATOM     18  C   UNL     1     -40.813 -13.020  10.378 -0.19 +0.00    +0.006 A  
DOCKED: ATOM     19  C   UNL     1     -39.901 -12.361   9.555 -0.16 +0.00    +0.001 A  
DOCKED: ATOM     20  C   UNL     1     -40.333 -11.324   8.728 -0.13 +0.00    +0.029 A  
DOCKED: ATOM     21  C   UNL     1     -41.676 -10.948   8.725 -0.08 +0.00    +0.140 A  
DOCKED: ATOM     22  C   UNL     1     -42.587 -11.608   9.548 -0.17 +0.00    +0.029 A  
DOCKED: ATOM     23  F   UNL     1     -42.091  -9.953   7.930 -0.03 -0.00    -0.204 F  
DOCKED: ATOM     24  C   UNL     1     -42.156 -12.645  10.377 -0.20 +0.00    +0.001 A  
DOCKED: ENDBRANCH   2  18
DOCKED: TORSDOF 5
DOCKED: TER
DOCKED: ENDMDL
________________________________________________________________________________


    FINAL DOCKED STATE:
    ________________________


Run:   477 / 512
Time taken for this run:   0.002s

DOCKED: MODEL        477
DOCKED: USER    Run = 477
DOCKED: USER
DOCKED: USER    Estimated Free Energy of Binding    =  -4.55 kcal/mol  [=(1)+(2)+(3)-(4)]
DOCKED: USER
DOCKED: USER    (1) Final Intermolecular Energy     =  -6.04 kcal/mol
DOCKED: USER        vdW + Hbond + desolv Energy     =  -6.04 kcal/mol
DOCKED: USER        Electrostatic Energy            =  +0.00 kcal/mol
DOCKED: USER        Moving Ligand-Fixed Receptor    =  -6.04 kcal/mol
DOCKED: USER        Moving Ligand-Moving Receptor   =  +0.00 kcal/mol
DOCKED: USER    (2) Final Total Internal Energy     =  -1.28 kcal/mol
DOCKED: USER    (3) Torsional Free Energy           =  +1.49 kcal/mol
DOCKED: USER    (4) Unbound System's Energy         =  -1.28 kcal/mol
DOCKED: USER
DOCKED: USER
DOCKED: REMARK  5 active torsions:
DOCKED: REMARK  status: ('A' for Active; 'I' for Inactive)
DOCKED: REMARK    1  A    between atoms: C_2  and  C_19 
DOCKED: REMARK    2  A    between atoms: C_2  and  C_11 
DOCKED: REMARK    3  A    between atoms: C_19  and  C_20 
DOCKED: REMARK    4  A    between atoms: C_20  and  C_21 
DOCKED: REMARK    5  A    between atoms: C_21  and  N_22 
DOCKED: USER                              x       y       z     vdW  Elec       q    Type
DOCKED: USER                           _______ _______ _______ _____ _____    ______ ____
DOCKED: ROOT
DOCKED: ATOM      1  O   UNL     1     -33.289 -10.447   1.857 +0.01 -0.00    -0.346 OA 
DOCKED: ATOM      2  C   UNL     1     -34.549 -10.451   2.601 -0.11 +0.00    +0.130 C  
DOCKED: ATOM      3  C   UNL     1     -35.475  -9.635   1.746 -0.23 +0.00    +0.004 A  
DOCKED: ATOM      4  C   UNL     1     -34.835  -9.288   0.565 -0.18 +0.00    +0.006 A  
DOCKED: ATOM      5  C   UNL     1     -33.467  -9.852   0.550 -0.06 +0.00    +0.169 C  
DOCKED: ATOM      6  C   UNL     1     -36.782  -9.240   1.989 -0.31 -0.00    -0.001 A  
DOCKED: ATOM      7  C   UNL     1     -35.473  -8.536  -0.407 -0.24 +0.00    +0.008 A  
DOCKED: ATOM      8  C   UNL     1     -37.438  -8.478   1.021 -0.35 +0.00    +0.010 A  
DOCKED: ATOM      9  C   UNL     1     -36.787  -8.128  -0.171 -0.22 +0.00    +0.068 A  
DOCKED: ATOM     10  N   UNL     1     -38.035  -6.717  -1.949 -2.47 -0.00    -0.191 NA 
DOCKED: ATOM     11  C   UNL     1     -37.475  -7.349  -1.151 -0.37 +0.00    +0.101 C  
DOCKED: ENDROOT
DOCKED: BRANCH   2  12
DOCKED: ATOM     12  C   UNL     1     -35.009 -11.895   2.763 -0.16 +0.00    +0.038 C  
DOCKED: BRANCH  12  13
DOCKED: ATOM     13  C   UNL     1     -33.823 -12.855   2.815 -0.11 +0.00    +0.038 C  
DOCKED: BRANCH  13  14
DOCKED: ATOM     14  C   UNL     1     -34.160 -14.182   2.137 -0.15 +0.00    +0.251 C  
DOCKED: BRANCH  14  15
DOCKED: ATOM     15  N   UNL     1     -33.619 -14.211   0.783 -0.18 +0.00    +0.141 N  
DOCKED: ATOM     16  C   UNL     1     -34.537 -13.563  -0.154 -0.20 +0.00    +0.285 C  
DOCKED: ATOM     17  C   UNL     1     -32.306 -13.564   0.738 -0.03 +0.00    +0.285 C  
DOCKED: ENDBRANCH  14  15
DOCKED: ENDBRANCH  13  14
DOCKED: ENDBRANCH  12  13
DOCKED: ENDBRANCH   2  12
DOCKED: BRANCH   2  18
DOCKED: ATOM     18  C   UNL     1     -34.275  -9.821   3.926 -0.12 +0.00    +0.006 A  
DOCKED: ATOM     19  C   UNL     1     -33.065  -9.164   4.148 -0.10 +0.00    +0.001 A  
DOCKED: ATOM     20  C   UNL     1     -32.810  -8.576   5.388 -0.10 +0.00    +0.029 A  
DOCKED: ATOM     21  C   UNL     1     -33.763  -8.646   6.402 -0.04 +0.00    +0.140 A  
DOCKED: ATOM     22  C   UNL     1     -34.973  -9.303   6.179 -0.13 +0.00    +0.029 A  
DOCKED: ATOM     23  F   UNL     1     -33.519  -8.080   7.591 -0.04 -0.00    -0.204 F  
DOCKED: ATOM     24  C   UNL     1     -35.229  -9.892   4.940 -0.15 +0.00    +0.001 A  
DOCKED: ENDBRANCH   2  18
DOCKED: TORSDOF 5
DOCKED: TER
DOCKED: ENDMDL
________________________________________________________________________________


    FINAL DOCKED STATE:
    ________________________


Run:   478 / 512
Time taken for this run:   0.002s

DOCKED: MODEL        478
DOCKED: USER    Run = 478
DOCKED: USER
DOCKED: USER    Estimated Free Energy of Binding    =  -5.04 kcal/mol  [=(1)+(2)+(3)-(4)]
DOCKED: USER
DOCKED: USER    (1) Final Intermolecular Energy     =  -6.54 kcal/mol
DOCKED: USER        vdW + Hbond + desolv Energy     =  -6.54 kcal/mol
DOCKED: USER        Electrostatic Energy            =  +0.00 kcal/mol
DOCKED: USER        Moving Ligand-Fixed Receptor    =  -6.54 kcal/mol
DOCKED: USER        Moving Ligand-Moving Receptor   =  +0.00 kcal/mol
DOCKED: USER    (2) Final Total Internal Energy     =  -1.24 kcal/mol
DOCKED: USER    (3) Torsional Free Energy           =  +1.49 kcal/mol
DOCKED: USER    (4) Unbound System's Energy         =  -1.24 kcal/mol
DOCKED: USER
DOCKED: USER
DOCKED: REMARK  5 active torsions:
DOCKED: REMARK  status: ('A' for Active; 'I' for Inactive)
DOCKED: REMARK    1  A    between atoms: C_2  and  C_19 
DOCKED: REMARK    2  A    between atoms: C_2  and  C_11 
DOCKED: REMARK    3  A    between atoms: C_19  and  C_20 
DOCKED: REMARK    4  A    between atoms: C_20  and  C_21 
DOCKED: REMARK    5  A    between atoms: C_21  and  N_22 
DOCKED: USER                              x       y       z     vdW  Elec       q    Type
DOCKED: USER                           _______ _______ _______ _____ _____    ______ ____
DOCKED: ROOT
DOCKED: ATOM      1  O   UNL     1     -40.487 -19.052  12.119 -0.10 -0.00    -0.346 OA 
DOCKED: ATOM      2  C   UNL     1     -39.958 -17.757  11.689 -0.13 +0.00    +0.130 C  
DOCKED: ATOM      3  C   UNL     1     -40.088 -17.795  10.193 -0.27 +0.00    +0.004 A  
DOCKED: ATOM      4  C   UNL     1     -40.735 -18.961   9.810 -0.30 +0.00    +0.006 A  
DOCKED: ATOM      5  C   UNL     1     -41.086 -19.758  11.007 -0.10 +0.00    +0.169 C  
DOCKED: ATOM      6  C   UNL     1     -39.676 -16.867   9.249 -0.33 -0.00    -0.001 A  
DOCKED: ATOM      7  C   UNL     1     -40.988 -19.240   8.478 -0.42 +0.00    +0.008 A  
DOCKED: ATOM      8  C   UNL     1     -39.920 -17.136   7.901 +0.05 +0.00    +0.010 A  
DOCKED: ATOM      9  C   UNL     1     -40.573 -18.316   7.518 -0.39 +0.00    +0.068 A  
DOCKED: ATOM     10  N   UNL     1     -41.015 -18.782   5.008 -3.00 -0.00    -0.191 NA 
DOCKED: ATOM     11  C   UNL     1     -40.816 -18.574   6.133 -0.38 +0.00    +0.101 C  
DOCKED: ENDROOT
DOCKED: BRANCH   2  12
DOCKED: ATOM     12  C   UNL     1     -40.795 -16.657  12.329 -0.09 +0.00    +0.038 C  
DOCKED: BRANCH  12  13
DOCKED: ATOM     13  C   UNL     1     -41.987 -17.235  13.090 -0.08 +0.00    +0.038 C  
DOCKED: BRANCH  13  14
DOCKED: ATOM     14  C   UNL     1     -41.782 -17.122  14.599 -0.01 +0.00    +0.251 C  
DOCKED: BRANCH  14  15
DOCKED: ATOM     15  N   UNL     1     -42.159 -18.368  15.257 -0.05 +0.00    +0.141 N  
DOCKED: ATOM     16  C   UNL     1     -42.431 -19.411  14.267 -0.06 +0.00    +0.285 C  
DOCKED: ATOM     17  C   UNL     1     -41.107 -18.803  16.177 -0.03 +0.00    +0.285 C  
DOCKED: ENDBRANCH  14  15
DOCKED: ENDBRANCH  13  14
DOCKED: ENDBRANCH  12  13
DOCKED: ENDBRANCH   2  12
DOCKED: BRANCH   2  18
DOCKED: ATOM     18  C   UNL     1     -38.540 -17.692  12.148 -0.17 +0.00    +0.006 A  
DOCKED: ATOM     19  C   UNL     1     -38.250 -17.650  13.511 -0.12 +0.00    +0.001 A  
DOCKED: ATOM     20  C   UNL     1     -36.923 -17.588  13.939 -0.10 +0.00    +0.029 A  
DOCKED: ATOM     21  C   UNL     1     -35.889 -17.568  13.004 -0.07 +0.00    +0.140 A  
DOCKED: ATOM     22  C   UNL     1     -36.180 -17.610  11.641 -0.12 +0.00    +0.029 A  
DOCKED: ATOM     23  F   UNL     1     -34.616 -17.511  13.416 -0.02 -0.00    -0.204 F  
DOCKED: ATOM     24  C   UNL     1     -37.507 -17.671  11.212 -0.24 +0.00    +0.001 A  
DOCKED: ENDBRANCH   2  18
DOCKED: TORSDOF 5
DOCKED: TER
DOCKED: ENDMDL
________________________________________________________________________________


    FINAL DOCKED STATE:
    ________________________


Run:   479 / 512
Time taken for this run:   0.002s

DOCKED: MODEL        479
DOCKED: USER    Run = 479
DOCKED: USER
DOCKED: USER    Estimated Free Energy of Binding    =  -5.56 kcal/mol  [=(1)+(2)+(3)-(4)]
DOCKED: USER
DOCKED: USER    (1) Final Intermolecular Energy     =  -7.05 kcal/mol
DOCKED: USER        vdW + Hbond + desolv Energy     =  -7.05 kcal/mol
DOCKED: USER        Electrostatic Energy            =  +0.00 kcal/mol
DOCKED: USER        Moving Ligand-Fixed Receptor    =  -7.05 kcal/mol
DOCKED: USER        Moving Ligand-Moving Receptor   =  +0.00 kcal/mol
DOCKED: USER    (2) Final Total Internal Energy     =  -1.19 kcal/mol
DOCKED: USER    (3) Torsional Free Energy           =  +1.49 kcal/mol
DOCKED: USER    (4) Unbound System's Energy         =  -1.19 kcal/mol
DOCKED: USER
DOCKED: USER
DOCKED: REMARK  5 active torsions:
DOCKED: REMARK  status: ('A' for Active; 'I' for Inactive)
DOCKED: REMARK    1  A    between atoms: C_2  and  C_19 
DOCKED: REMARK    2  A    between atoms: C_2  and  C_11 
DOCKED: REMARK    3  A    between atoms: C_19  and  C_20 
DOCKED: REMARK    4  A    between atoms: C_20  and  C_21 
DOCKED: REMARK    5  A    between atoms: C_21  and  N_22 
DOCKED: USER                              x       y       z     vdW  Elec       q    Type
DOCKED: USER                           _______ _______ _______ _____ _____    ______ ____
DOCKED: ROOT
DOCKED: ATOM      1  O   UNL     1     -38.747 -18.341  11.366 -0.09 -0.00    -0.346 OA 
DOCKED: ATOM      2  C   UNL     1     -40.210 -18.313  11.421 -0.17 +0.00    +0.130 C  
DOCKED: ATOM      3  C   UNL     1     -40.626 -18.442   9.984 -0.28 +0.00    +0.004 A  
DOCKED: ATOM      4  C   UNL     1     -39.506 -18.638   9.189 -0.40 +0.00    +0.006 A  
DOCKED: ATOM      5  C   UNL     1     -38.290 -18.664  10.032 -0.24 +0.00    +0.169 C  
DOCKED: ATOM      6  C   UNL     1     -41.896 -18.401   9.427 -0.30 -0.00    -0.001 A  
DOCKED: ATOM      7  C   UNL     1     -39.614 -18.793   7.818 -0.30 +0.00    +0.008 A  
DOCKED: ATOM      8  C   UNL     1     -42.021 -18.552   8.045 -0.30 +0.00    +0.010 A  
DOCKED: ATOM      9  C   UNL     1     -40.886 -18.748   7.245 -0.41 +0.00    +0.068 A  
DOCKED: ATOM     10  N   UNL     1     -41.154 -19.030   4.683 -3.09 -0.00    -0.191 NA 
DOCKED: ATOM     11  C   UNL     1     -41.033 -18.903   5.832 -0.28 +0.00    +0.101 C  
DOCKED: ENDROOT
DOCKED: BRANCH   2  12
DOCKED: ATOM     12  C   UNL     1     -40.682 -19.478  12.282 -0.26 +0.00    +0.038 C  
DOCKED: BRANCH  12  13
DOCKED: ATOM     13  C   UNL     1     -41.236 -18.993  13.620 -0.17 +0.00    +0.038 C  
DOCKED: BRANCH  13  14
DOCKED: ATOM     14  C   UNL     1     -40.455 -19.592  14.788 -0.07 +0.00    +0.251 C  
DOCKED: BRANCH  14  15
DOCKED: ATOM     15  N   UNL     1     -39.025 -19.369  14.611 -0.17 +0.00    +0.141 N  
DOCKED: ATOM     16  C   UNL     1     -38.616 -18.114  15.245 -0.05 +0.00    +0.285 C  
DOCKED: ATOM     17  C   UNL     1     -38.256 -20.488  15.157 -0.13 +0.00    +0.285 C  
DOCKED: ENDBRANCH  14  15
DOCKED: ENDBRANCH  13  14
DOCKED: ENDBRANCH  12  13
DOCKED: ENDBRANCH   2  12
DOCKED: BRANCH   2  18
DOCKED: ATOM     18  C   UNL     1     -40.599 -17.005  12.024 -0.10 +0.00    +0.006 A  
DOCKED: ATOM     19  C   UNL     1     -41.895 -16.519  11.857 -0.10 +0.00    +0.001 A  
DOCKED: ATOM     20  C   UNL     1     -42.258 -15.296  12.422 -0.06 +0.00    +0.029 A  
DOCKED: ATOM     21  C   UNL     1     -41.325 -14.561  13.152 -0.01 +0.00    +0.140 A  
DOCKED: ATOM     22  C   UNL     1     -40.029 -15.048  13.319 -0.02 +0.00    +0.029 A  
DOCKED: ATOM     23  F   UNL     1     -41.674 -13.387  13.695 +0.00 -0.00    -0.204 F  
DOCKED: ATOM     24  C   UNL     1     -39.665 -16.271  12.754 -0.06 +0.00    +0.001 A  
DOCKED: ENDBRANCH   2  18
DOCKED: TORSDOF 5
DOCKED: TER
DOCKED: ENDMDL
________________________________________________________________________________


    FINAL DOCKED STATE:
    ________________________


Run:   480 / 512
Time taken for this run:   0.002s

DOCKED: MODEL        480
DOCKED: USER    Run = 480
DOCKED: USER
DOCKED: USER    Estimated Free Energy of Binding    =  -3.53 kcal/mol  [=(1)+(2)+(3)-(4)]
DOCKED: USER
DOCKED: USER    (1) Final Intermolecular Energy     =  -5.02 kcal/mol
DOCKED: USER        vdW + Hbond + desolv Energy     =  -5.02 kcal/mol
DOCKED: USER        Electrostatic Energy            =  +0.00 kcal/mol
DOCKED: USER        Moving Ligand-Fixed Receptor    =  -5.02 kcal/mol
DOCKED: USER        Moving Ligand-Moving Receptor   =  +0.00 kcal/mol
DOCKED: USER    (2) Final Total Internal Energy     =  -1.22 kcal/mol
DOCKED: USER    (3) Torsional Free Energy           =  +1.49 kcal/mol
DOCKED: USER    (4) Unbound System's Energy         =  -1.22 kcal/mol
DOCKED: USER
DOCKED: USER
DOCKED: REMARK  5 active torsions:
DOCKED: REMARK  status: ('A' for Active; 'I' for Inactive)
DOCKED: REMARK    1  A    between atoms: C_2  and  C_19 
DOCKED: REMARK    2  A    between atoms: C_2  and  C_11 
DOCKED: REMARK    3  A    between atoms: C_19  and  C_20 
DOCKED: REMARK    4  A    between atoms: C_20  and  C_21 
DOCKED: REMARK    5  A    between atoms: C_21  and  N_22 
DOCKED: USER                              x       y       z     vdW  Elec       q    Type
DOCKED: USER                           _______ _______ _______ _____ _____    ______ ____
DOCKED: ROOT
DOCKED: ATOM      1  O   UNL     1     -31.753 -15.268   3.621 +0.01 -0.00    -0.346 OA 
DOCKED: ATOM      2  C   UNL     1     -30.874 -16.381   3.259 -0.04 +0.00    +0.130 C  
DOCKED: ATOM      3  C   UNL     1     -31.329 -17.502   4.147 -0.09 +0.00    +0.004 A  
DOCKED: ATOM      4  C   UNL     1     -32.441 -17.101   4.874 -0.15 +0.00    +0.006 A  
DOCKED: ATOM      5  C   UNL     1     -32.802 -15.712   4.513 -0.10 +0.00    +0.169 C  
DOCKED: ATOM      6  C   UNL     1     -30.807 -18.780   4.293 -0.09 -0.00    -0.001 A  
DOCKED: ATOM      7  C   UNL     1     -33.064 -17.955   5.768 -0.29 +0.00    +0.008 A  
DOCKED: ATOM      8  C   UNL     1     -31.421 -19.651   5.194 -0.20 +0.00    +0.010 A  
DOCKED: ATOM      9  C   UNL     1     -32.544 -19.240   5.927 -0.28 +0.00    +0.068 A  
DOCKED: ATOM     10  N   UNL     1     -33.664 -20.884   7.588 -2.55 -0.00    -0.191 NA 
DOCKED: ATOM     11  C   UNL     1     -33.161 -20.147   6.844 -0.41 +0.00    +0.101 C  
DOCKED: ENDROOT
DOCKED: BRANCH   2  12
DOCKED: ATOM     12  C   UNL     1     -31.064 -16.683   1.777 -0.08 +0.00    +0.038 C  
DOCKED: BRANCH  12  13
DOCKED: ATOM     13  C   UNL     1     -32.396 -16.141   1.264 -0.13 +0.00    +0.038 C  
DOCKED: BRANCH  13  14
DOCKED: ATOM     14  C   UNL     1     -32.192 -14.871   0.441 -0.09 +0.00    +0.251 C  
DOCKED: BRANCH  14  15
DOCKED: ATOM     15  N   UNL     1     -33.376 -14.024   0.512 -0.15 +0.00    +0.141 N  
DOCKED: ATOM     16  C   UNL     1     -34.306 -14.343  -0.572 -0.22 +0.00    +0.285 C  
DOCKED: ATOM     17  C   UNL     1     -34.039 -14.173   1.809 -0.15 +0.00    +0.285 C  
DOCKED: ENDBRANCH  14  15
DOCKED: ENDBRANCH  13  14
DOCKED: ENDBRANCH  12  13
DOCKED: ENDBRANCH   2  12
DOCKED: BRANCH   2  18
DOCKED: ATOM     18  C   UNL     1     -29.476 -15.943   3.545 -0.01 +0.00    +0.006 A  
DOCKED: ATOM     19  C   UNL     1     -29.071 -15.720   4.860 -0.01 +0.00    +0.001 A  
DOCKED: ATOM     20  C   UNL     1     -27.764 -15.310   5.125 -0.00 +0.00    +0.029 A  
DOCKED: ATOM     21  C   UNL     1     -26.864 -15.125   4.076 -0.00 +0.00    +0.140 A  
DOCKED: ATOM     22  C   UNL     1     -27.270 -15.349   2.761 -0.00 +0.00    +0.029 A  
DOCKED: ATOM     23  F   UNL     1     -25.609 -14.734   4.332 +0.00 -0.00    -0.204 F  
DOCKED: ATOM     24  C   UNL     1     -28.578 -15.759   2.494 -0.00 +0.00    +0.001 A  
DOCKED: ENDBRANCH   2  18
DOCKED: TORSDOF 5
DOCKED: TER
DOCKED: ENDMDL
________________________________________________________________________________


    FINAL DOCKED STATE:
    ________________________


Run:   481 / 512
Time taken for this run:   0.002s

DOCKED: MODEL        481
DOCKED: USER    Run = 481
DOCKED: USER
DOCKED: USER    Estimated Free Energy of Binding    =  -3.91 kcal/mol  [=(1)+(2)+(3)-(4)]
DOCKED: USER
DOCKED: USER    (1) Final Intermolecular Energy     =  -5.40 kcal/mol
DOCKED: USER        vdW + Hbond + desolv Energy     =  -5.40 kcal/mol
DOCKED: USER        Electrostatic Energy            =  +0.00 kcal/mol
DOCKED: USER        Moving Ligand-Fixed Receptor    =  -5.40 kcal/mol
DOCKED: USER        Moving Ligand-Moving Receptor   =  +0.00 kcal/mol
DOCKED: USER    (2) Final Total Internal Energy     =  -1.32 kcal/mol
DOCKED: USER    (3) Torsional Free Energy           =  +1.49 kcal/mol
DOCKED: USER    (4) Unbound System's Energy         =  -1.32 kcal/mol
DOCKED: USER
DOCKED: USER
DOCKED: REMARK  5 active torsions:
DOCKED: REMARK  status: ('A' for Active; 'I' for Inactive)
DOCKED: REMARK    1  A    between atoms: C_2  and  C_19 
DOCKED: REMARK    2  A    between atoms: C_2  and  C_11 
DOCKED: REMARK    3  A    between atoms: C_19  and  C_20 
DOCKED: REMARK    4  A    between atoms: C_20  and  C_21 
DOCKED: REMARK    5  A    between atoms: C_21  and  N_22 
DOCKED: USER                              x       y       z     vdW  Elec       q    Type
DOCKED: USER                           _______ _______ _______ _____ _____    ______ ____
DOCKED: ROOT
DOCKED: ATOM      1  O   UNL     1     -32.444  -7.014   2.140 -0.03 -0.00    -0.346 OA 
DOCKED: ATOM      2  C   UNL     1     -32.066  -6.639   0.777 -0.05 +0.00    +0.130 C  
DOCKED: ATOM      3  C   UNL     1     -33.360  -6.685   0.018 -0.12 +0.00    +0.004 A  
DOCKED: ATOM      4  C   UNL     1     -34.404  -6.955   0.892 -0.20 +0.00    +0.006 A  
DOCKED: ATOM      5  C   UNL     1     -33.883  -7.090   2.271 -0.05 +0.00    +0.169 C  
DOCKED: ATOM      6  C   UNL     1     -33.597  -6.493  -1.335 -0.17 -0.00    -0.001 A  
DOCKED: ATOM      7  C   UNL     1     -35.712  -7.045   0.447 -0.32 +0.00    +0.008 A  
DOCKED: ATOM      8  C   UNL     1     -34.910  -6.586  -1.801 -0.28 +0.00    +0.010 A  
DOCKED: ATOM      9  C   UNL     1     -35.962  -6.860  -0.914 -0.35 +0.00    +0.068 A  
DOCKED: ATOM     10  N   UNL     1     -38.387  -7.019  -1.810 -2.55 -0.00    -0.191 NA 
DOCKED: ATOM     11  C   UNL     1     -37.299  -6.949  -1.408 -0.40 +0.00    +0.101 C  
DOCKED: ENDROOT
DOCKED: BRANCH   2  12
DOCKED: ATOM     12  C   UNL     1     -31.449  -5.246   0.813 -0.06 +0.00    +0.038 C  
DOCKED: BRANCH  12  13
DOCKED: ATOM     13  C   UNL     1     -32.523  -4.163   0.887 -0.15 +0.00    +0.038 C  
DOCKED: BRANCH  13  14
DOCKED: ATOM     14  C   UNL     1     -32.987  -3.945   2.326 -0.12 +0.00    +0.251 C  
DOCKED: BRANCH  14  15
DOCKED: ATOM     15  N   UNL     1     -34.067  -2.967   2.368 -0.19 +0.00    +0.141 N  
DOCKED: ATOM     16  C   UNL     1     -33.914  -1.982   1.297 -0.11 +0.00    +0.285 C  
DOCKED: ATOM     17  C   UNL     1     -35.368  -3.630   2.265 -0.22 +0.00    +0.285 C  
DOCKED: ENDBRANCH  14  15
DOCKED: ENDBRANCH  13  14
DOCKED: ENDBRANCH  12  13
DOCKED: ENDBRANCH   2  12
DOCKED: BRANCH   2  18
DOCKED: ATOM     18  C   UNL     1     -31.078  -7.653   0.304 -0.02 +0.00    +0.006 A  
DOCKED: ATOM     19  C   UNL     1     -31.383  -9.011   0.379 -0.01 +0.00    +0.001 A  
DOCKED: ATOM     20  C   UNL     1     -30.458  -9.958  -0.063 -0.00 +0.00    +0.029 A  
DOCKED: ATOM     21  C   UNL     1     -29.231  -9.546  -0.580 -0.00 +0.00    +0.140 A  
DOCKED: ATOM     22  C   UNL     1     -28.927  -8.187  -0.656 -0.00 +0.00    +0.029 A  
DOCKED: ATOM     23  F   UNL     1     -28.345 -10.455  -1.007 +0.00 -0.00    -0.204 F  
DOCKED: ATOM     24  C   UNL     1     -29.851  -7.239  -0.214 -0.01 +0.00    +0.001 A  
DOCKED: ENDBRANCH   2  18
DOCKED: TORSDOF 5
DOCKED: TER
DOCKED: ENDMDL
________________________________________________________________________________


    FINAL DOCKED STATE:
    ________________________


Run:   482 / 512
Time taken for this run:   0.002s

DOCKED: MODEL        482
DOCKED: USER    Run = 482
DOCKED: USER
DOCKED: USER    Estimated Free Energy of Binding    =  -4.24 kcal/mol  [=(1)+(2)+(3)-(4)]
DOCKED: USER
DOCKED: USER    (1) Final Intermolecular Energy     =  -5.73 kcal/mol
DOCKED: USER        vdW + Hbond + desolv Energy     =  -5.73 kcal/mol
DOCKED: USER        Electrostatic Energy            =  +0.00 kcal/mol
DOCKED: USER        Moving Ligand-Fixed Receptor    =  -5.73 kcal/mol
DOCKED: USER        Moving Ligand-Moving Receptor   =  +0.00 kcal/mol
DOCKED: USER    (2) Final Total Internal Energy     =  -1.51 kcal/mol
DOCKED: USER    (3) Torsional Free Energy           =  +1.49 kcal/mol
DOCKED: USER    (4) Unbound System's Energy         =  -1.51 kcal/mol
DOCKED: USER
DOCKED: USER
DOCKED: REMARK  5 active torsions:
DOCKED: REMARK  status: ('A' for Active; 'I' for Inactive)
DOCKED: REMARK    1  A    between atoms: C_2  and  C_19 
DOCKED: REMARK    2  A    between atoms: C_2  and  C_11 
DOCKED: REMARK    3  A    between atoms: C_19  and  C_20 
DOCKED: REMARK    4  A    between atoms: C_20  and  C_21 
DOCKED: REMARK    5  A    between atoms: C_21  and  N_22 
DOCKED: USER                              x       y       z     vdW  Elec       q    Type
DOCKED: USER                           _______ _______ _______ _____ _____    ______ ____
DOCKED: ROOT
DOCKED: ATOM      1  O   UNL     1     -36.581 -15.890  12.054 -0.06 -0.00    -0.346 OA 
DOCKED: ATOM      2  C   UNL     1     -37.479 -15.081  11.229 -0.13 +0.00    +0.130 C  
DOCKED: ATOM      3  C   UNL     1     -38.358 -16.094  10.554 -0.23 +0.00    +0.004 A  
DOCKED: ATOM      4  C   UNL     1     -38.063 -17.362  11.034 -0.25 +0.00    +0.006 A  
DOCKED: ATOM      5  C   UNL     1     -36.994 -17.277  12.054 -0.16 +0.00    +0.169 C  
DOCKED: ATOM      6  C   UNL     1     -39.348 -15.906   9.600 -0.26 -0.00    -0.001 A  
DOCKED: ATOM      7  C   UNL     1     -38.739 -18.480  10.578 -0.33 +0.00    +0.008 A  
DOCKED: ATOM      8  C   UNL     1     -40.036 -17.025   9.127 -0.32 +0.00    +0.010 A  
DOCKED: ATOM      9  C   UNL     1     -39.733 -18.305   9.613 -0.31 +0.00    +0.068 A  
DOCKED: ATOM     10  N   UNL     1     -41.032 -20.360   8.716 -2.55 -0.00    -0.191 NA 
DOCKED: ATOM     11  C   UNL     1     -40.449 -19.439   9.118 -0.34 +0.00    +0.101 C  
DOCKED: ENDROOT
DOCKED: BRANCH   2  12
DOCKED: ATOM     12  C   UNL     1     -38.254 -14.137  12.142 -0.06 +0.00    +0.038 C  
DOCKED: BRANCH  12  13
DOCKED: ATOM     13  C   UNL     1     -37.361 -13.017  12.671 -0.02 +0.00    +0.038 C  
DOCKED: BRANCH  13  14
DOCKED: ATOM     14  C   UNL     1     -36.507 -13.501  13.842 -0.00 +0.00    +0.251 C  
DOCKED: BRANCH  14  15
DOCKED: ATOM     15  N   UNL     1     -35.136 -13.740  13.405 -0.01 +0.00    +0.141 N  
DOCKED: ATOM     16  C   UNL     1     -34.534 -12.507  12.896 -0.00 +0.00    +0.285 C  
DOCKED: ATOM     17  C   UNL     1     -34.333 -14.283  14.502 -0.00 +0.00    +0.285 C  
DOCKED: ENDBRANCH  14  15
DOCKED: ENDBRANCH  13  14
DOCKED: ENDBRANCH  12  13
DOCKED: ENDBRANCH   2  12
DOCKED: BRANCH   2  18
DOCKED: ATOM     18  C   UNL     1     -36.625 -14.321  10.270 -0.15 +0.00    +0.006 A  
DOCKED: ATOM     19  C   UNL     1     -35.250 -14.551  10.228 -0.09 +0.00    +0.001 A  
DOCKED: ATOM     20  C   UNL     1     -34.453 -13.839   9.331 -0.10 +0.00    +0.029 A  
DOCKED: ATOM     21  C   UNL     1     -35.030 -12.901   8.477 -0.08 +0.00    +0.140 A  
DOCKED: ATOM     22  C   UNL     1     -36.405 -12.672   8.520 -0.12 +0.00    +0.029 A  
DOCKED: ATOM     23  F   UNL     1     -34.265 -12.219   7.615 -0.00 -0.00    -0.204 F  
DOCKED: ATOM     24  C   UNL     1     -37.204 -13.382   9.417 -0.15 +0.00    +0.001 A  
DOCKED: ENDBRANCH   2  18
DOCKED: TORSDOF 5
DOCKED: TER
DOCKED: ENDMDL
________________________________________________________________________________


    FINAL DOCKED STATE:
    ________________________


Run:   483 / 512
Time taken for this run:   0.002s

DOCKED: MODEL        483
DOCKED: USER    Run = 483
DOCKED: USER
DOCKED: USER    Estimated Free Energy of Binding    =  -4.36 kcal/mol  [=(1)+(2)+(3)-(4)]
DOCKED: USER
DOCKED: USER    (1) Final Intermolecular Energy     =  -5.85 kcal/mol
DOCKED: USER        vdW + Hbond + desolv Energy     =  -5.85 kcal/mol
DOCKED: USER        Electrostatic Energy            =  +0.00 kcal/mol
DOCKED: USER        Moving Ligand-Fixed Receptor    =  -5.85 kcal/mol
DOCKED: USER        Moving Ligand-Moving Receptor   =  +0.00 kcal/mol
DOCKED: USER    (2) Final Total Internal Energy     =  -1.01 kcal/mol
DOCKED: USER    (3) Torsional Free Energy           =  +1.49 kcal/mol
DOCKED: USER    (4) Unbound System's Energy         =  -1.01 kcal/mol
DOCKED: USER
DOCKED: USER
DOCKED: REMARK  5 active torsions:
DOCKED: REMARK  status: ('A' for Active; 'I' for Inactive)
DOCKED: REMARK    1  A    between atoms: C_2  and  C_19 
DOCKED: REMARK    2  A    between atoms: C_2  and  C_11 
DOCKED: REMARK    3  A    between atoms: C_19  and  C_20 
DOCKED: REMARK    4  A    between atoms: C_20  and  C_21 
DOCKED: REMARK    5  A    between atoms: C_21  and  N_22 
DOCKED: USER                              x       y       z     vdW  Elec       q    Type
DOCKED: USER                           _______ _______ _______ _____ _____    ______ ____
DOCKED: ROOT
DOCKED: ATOM      1  O   UNL     1     -37.569 -15.266  12.435 -0.02 -0.00    -0.346 OA 
DOCKED: ATOM      2  C   UNL     1     -38.149 -14.668  11.232 -0.12 +0.00    +0.130 C  
DOCKED: ATOM      3  C   UNL     1     -38.757 -15.834  10.508 -0.23 +0.00    +0.004 A  
DOCKED: ATOM      4  C   UNL     1     -38.633 -16.980  11.282 -0.20 +0.00    +0.006 A  
DOCKED: ATOM      5  C   UNL     1     -37.956 -16.654  12.557 -0.09 +0.00    +0.169 C  
DOCKED: ATOM      6  C   UNL     1     -39.380 -15.876   9.270 -0.08 -0.00    -0.001 A  
DOCKED: ATOM      7  C   UNL     1     -39.120 -18.200  10.845 -0.28 +0.00    +0.008 A  
DOCKED: ATOM      8  C   UNL     1     -39.873 -17.100   8.814 -0.32 +0.00    +0.010 A  
DOCKED: ATOM      9  C   UNL     1     -39.744 -18.256   9.598 -0.31 +0.00    +0.068 A  
DOCKED: ATOM     10  N   UNL     1     -40.674 -20.511   8.724 -2.61 -0.00    -0.191 NA 
DOCKED: ATOM     11  C   UNL     1     -40.256 -19.500   9.116 -0.31 +0.00    +0.101 C  
DOCKED: ENDROOT
DOCKED: BRANCH   2  12
DOCKED: ATOM     12  C   UNL     1     -39.181 -13.631  11.659 -0.08 +0.00    +0.038 C  
DOCKED: BRANCH  12  13
DOCKED: ATOM     13  C   UNL     1     -39.208 -12.444  10.697 -0.11 +0.00    +0.038 C  
DOCKED: BRANCH  13  14
DOCKED: ATOM     14  C   UNL     1     -40.341 -12.586   9.682 -0.14 +0.00    +0.251 C  
DOCKED: BRANCH  14  15
DOCKED: ATOM     15  N   UNL     1     -41.632 -12.589  10.359 -0.15 +0.00    +0.141 N  
DOCKED: ATOM     16  C   UNL     1     -42.622 -11.836   9.588 -0.10 +0.00    +0.285 C  
DOCKED: ATOM     17  C   UNL     1     -42.095 -13.961  10.578 -0.15 +0.00    +0.285 C  
DOCKED: ENDBRANCH  14  15
DOCKED: ENDBRANCH  13  14
DOCKED: ENDBRANCH  12  13
DOCKED: ENDBRANCH   2  12
DOCKED: BRANCH   2  18
DOCKED: ATOM     18  C   UNL     1     -37.029 -14.034  10.476 -0.14 +0.00    +0.006 A  
DOCKED: ATOM     19  C   UNL     1     -36.021 -13.358  11.162 -0.06 +0.00    +0.001 A  
DOCKED: ATOM     20  C   UNL     1     -34.975 -12.765  10.454 -0.04 +0.00    +0.029 A  
DOCKED: ATOM     21  C   UNL     1     -34.938 -12.850   9.063 -0.07 +0.00    +0.140 A  
DOCKED: ATOM     22  C   UNL     1     -35.947 -13.527   8.378 -0.14 +0.00    +0.029 A  
DOCKED: ATOM     23  F   UNL     1     -33.932 -12.283   8.384 -0.00 -0.00    -0.204 F  
DOCKED: ATOM     24  C   UNL     1     -36.994 -14.120   9.085 -0.11 +0.00    +0.001 A  
DOCKED: ENDBRANCH   2  18
DOCKED: TORSDOF 5
DOCKED: TER
DOCKED: ENDMDL
________________________________________________________________________________


    FINAL DOCKED STATE:
    ________________________


Run:   484 / 512
Time taken for this run:   0.002s

DOCKED: MODEL        484
DOCKED: USER    Run = 484
DOCKED: USER
DOCKED: USER    Estimated Free Energy of Binding    =  -4.16 kcal/mol  [=(1)+(2)+(3)-(4)]
DOCKED: USER
DOCKED: USER    (1) Final Intermolecular Energy     =  -5.65 kcal/mol
DOCKED: USER        vdW + Hbond + desolv Energy     =  -5.65 kcal/mol
DOCKED: USER        Electrostatic Energy            =  +0.00 kcal/mol
DOCKED: USER        Moving Ligand-Fixed Receptor    =  -5.65 kcal/mol
DOCKED: USER        Moving Ligand-Moving Receptor   =  +0.00 kcal/mol
DOCKED: USER    (2) Final Total Internal Energy     =  -1.32 kcal/mol
DOCKED: USER    (3) Torsional Free Energy           =  +1.49 kcal/mol
DOCKED: USER    (4) Unbound System's Energy         =  -1.32 kcal/mol
DOCKED: USER
DOCKED: USER
DOCKED: REMARK  5 active torsions:
DOCKED: REMARK  status: ('A' for Active; 'I' for Inactive)
DOCKED: REMARK    1  A    between atoms: C_2  and  C_19 
DOCKED: REMARK    2  A    between atoms: C_2  and  C_11 
DOCKED: REMARK    3  A    between atoms: C_19  and  C_20 
DOCKED: REMARK    4  A    between atoms: C_20  and  C_21 
DOCKED: REMARK    5  A    between atoms: C_21  and  N_22 
DOCKED: USER                              x       y       z     vdW  Elec       q    Type
DOCKED: USER                           _______ _______ _______ _____ _____    ______ ____
DOCKED: ROOT
DOCKED: ATOM      1  O   UNL     1     -35.823 -16.534  11.967 -0.09 -0.00    -0.346 OA 
DOCKED: ATOM      2  C   UNL     1     -36.920 -15.596  11.725 -0.12 +0.00    +0.130 C  
DOCKED: ATOM      3  C   UNL     1     -37.957 -16.427  11.027 -0.20 +0.00    +0.004 A  
DOCKED: ATOM      4  C   UNL     1     -37.537 -17.749  10.974 -0.22 +0.00    +0.006 A  
DOCKED: ATOM      5  C   UNL     1     -36.220 -17.885  11.634 -0.05 +0.00    +0.169 C  
DOCKED: ATOM      6  C   UNL     1     -39.179 -16.046  10.492 -0.24 -0.00    -0.001 A  
DOCKED: ATOM      7  C   UNL     1     -38.317 -18.729  10.384 -0.35 +0.00    +0.008 A  
DOCKED: ATOM      8  C   UNL     1     -39.975 -17.023   9.891 -0.29 +0.00    +0.010 A  
DOCKED: ATOM      9  C   UNL     1     -39.546 -18.357   9.838 -0.30 +0.00    +0.068 A  
DOCKED: ATOM     10  N   UNL     1     -41.051 -20.145   8.718 -2.55 -0.00    -0.191 NA 
DOCKED: ATOM     11  C   UNL     1     -40.376 -19.343   9.220 -0.35 +0.00    +0.101 C  
DOCKED: ENDROOT
DOCKED: BRANCH   2  12
DOCKED: ATOM     12  C   UNL     1     -37.397 -15.055  13.067 -0.05 +0.00    +0.038 C  
DOCKED: BRANCH  12  13
DOCKED: ATOM     13  C   UNL     1     -38.706 -15.713  13.499 -0.04 +0.00    +0.038 C  
DOCKED: BRANCH  13  14
DOCKED: ATOM     14  C   UNL     1     -38.592 -16.291  14.908 -0.01 +0.00    +0.251 C  
DOCKED: BRANCH  14  15
DOCKED: ATOM     15  N   UNL     1     -38.780 -17.736  14.881 -0.05 +0.00    +0.141 N  
DOCKED: ATOM     16  C   UNL     1     -39.766 -18.109  13.865 -0.06 +0.00    +0.285 C  
DOCKED: ATOM     17  C   UNL     1     -37.509 -18.417  14.628 -0.08 +0.00    +0.285 C  
DOCKED: ENDBRANCH  14  15
DOCKED: ENDBRANCH  13  14
DOCKED: ENDBRANCH  12  13
DOCKED: ENDBRANCH   2  12
DOCKED: BRANCH   2  18
DOCKED: ATOM     18  C   UNL     1     -36.377 -14.502  10.866 -0.12 +0.00    +0.006 A  
DOCKED: ATOM     19  C   UNL     1     -37.236 -13.538  10.339 -0.13 +0.00    +0.001 A  
DOCKED: ATOM     20  C   UNL     1     -36.727 -12.517   9.536 -0.10 +0.00    +0.029 A  
DOCKED: ATOM     21  C   UNL     1     -35.361 -12.460   9.262 -0.06 +0.00    +0.140 A  
DOCKED: ATOM     22  C   UNL     1     -34.503 -13.425   9.789 -0.08 +0.00    +0.029 A  
DOCKED: ATOM     23  F   UNL     1     -34.873 -11.479   8.493 -0.00 -0.00    -0.204 F  
DOCKED: ATOM     24  C   UNL     1     -35.011 -14.447  10.592 -0.11 +0.00    +0.001 A  
DOCKED: ENDBRANCH   2  18
DOCKED: TORSDOF 5
DOCKED: TER
DOCKED: ENDMDL
________________________________________________________________________________


    FINAL DOCKED STATE:
    ________________________


Run:   485 / 512
Time taken for this run:   0.002s

DOCKED: MODEL        485
DOCKED: USER    Run = 485
DOCKED: USER
DOCKED: USER    Estimated Free Energy of Binding    =  -4.03 kcal/mol  [=(1)+(2)+(3)-(4)]
DOCKED: USER
DOCKED: USER    (1) Final Intermolecular Energy     =  -5.52 kcal/mol
DOCKED: USER        vdW + Hbond + desolv Energy     =  -5.52 kcal/mol
DOCKED: USER        Electrostatic Energy            =  +0.00 kcal/mol
DOCKED: USER        Moving Ligand-Fixed Receptor    =  -5.52 kcal/mol
DOCKED: USER        Moving Ligand-Moving Receptor   =  +0.00 kcal/mol
DOCKED: USER    (2) Final Total Internal Energy     =  -1.04 kcal/mol
DOCKED: USER    (3) Torsional Free Energy           =  +1.49 kcal/mol
DOCKED: USER    (4) Unbound System's Energy         =  -1.04 kcal/mol
DOCKED: USER
DOCKED: USER
DOCKED: REMARK  5 active torsions:
DOCKED: REMARK  status: ('A' for Active; 'I' for Inactive)
DOCKED: REMARK    1  A    between atoms: C_2  and  C_19 
DOCKED: REMARK    2  A    between atoms: C_2  and  C_11 
DOCKED: REMARK    3  A    between atoms: C_19  and  C_20 
DOCKED: REMARK    4  A    between atoms: C_20  and  C_21 
DOCKED: REMARK    5  A    between atoms: C_21  and  N_22 
DOCKED: USER                              x       y       z     vdW  Elec       q    Type
DOCKED: USER                           _______ _______ _______ _____ _____    ______ ____
DOCKED: ROOT
DOCKED: ATOM      1  O   UNL     1     -41.793 -13.840  11.060 -0.06 -0.00    -0.346 OA 
DOCKED: ATOM      2  C   UNL     1     -40.389 -13.944  10.661 -0.17 +0.00    +0.130 C  
DOCKED: ATOM      3  C   UNL     1     -40.249 -15.368  10.207 -0.23 +0.00    +0.004 A  
DOCKED: ATOM      4  C   UNL     1     -41.488 -15.992  10.238 -0.22 +0.00    +0.006 A  
DOCKED: ATOM      5  C   UNL     1     -42.521 -15.036  10.696 -0.17 +0.00    +0.169 C  
DOCKED: ATOM      6  C   UNL     1     -39.118 -16.053   9.788 -0.28 -0.00    -0.001 A  
DOCKED: ATOM      7  C   UNL     1     -41.638 -17.315   9.858 -0.24 +0.00    +0.008 A  
DOCKED: ATOM      8  C   UNL     1     -39.252 -17.389   9.406 -0.34 +0.00    +0.010 A  
DOCKED: ATOM      9  C   UNL     1     -40.506 -18.016   9.441 -0.27 +0.00    +0.068 A  
DOCKED: ATOM     10  N   UNL     1     -40.721 -20.496   8.721 -2.60 -0.00    -0.191 NA 
DOCKED: ATOM     11  C   UNL     1     -40.625 -19.384   9.045 -0.38 +0.00    +0.101 C  
DOCKED: ENDROOT
DOCKED: BRANCH   2  12
DOCKED: ATOM     12  C   UNL     1     -40.128 -12.937   9.547 -0.15 +0.00    +0.038 C  
DOCKED: BRANCH  12  13
DOCKED: ATOM     13  C   UNL     1     -39.656 -11.597  10.108 -0.12 +0.00    +0.038 C  
DOCKED: BRANCH  13  14
DOCKED: ATOM     14  C   UNL     1     -40.473 -10.442   9.530 -0.08 +0.00    +0.251 C  
DOCKED: BRANCH  14  15
DOCKED: ATOM     15  N   UNL     1     -40.094  -9.185  10.165 -0.02 +0.00    +0.141 N  
DOCKED: ATOM     16  C   UNL     1     -38.960  -9.385  11.068 -0.00 +0.00    +0.285 C  
DOCKED: ATOM     17  C   UNL     1     -39.768  -8.176   9.156 -0.01 +0.00    +0.285 C  
DOCKED: ENDBRANCH  14  15
DOCKED: ENDBRANCH  13  14
DOCKED: ENDBRANCH  12  13
DOCKED: ENDBRANCH   2  12
DOCKED: BRANCH   2  18
DOCKED: ATOM     18  C   UNL     1     -39.568 -13.636  11.869 -0.06 +0.00    +0.006 A  
DOCKED: ATOM     19  C   UNL     1     -40.173 -13.094  13.002 -0.02 +0.00    +0.001 A  
DOCKED: ATOM     20  C   UNL     1     -39.404 -12.806  14.131 -0.00 +0.00    +0.029 A  
DOCKED: ATOM     21  C   UNL     1     -38.034 -13.060  14.125 -0.00 +0.00    +0.140 A  
DOCKED: ATOM     22  C   UNL     1     -37.430 -13.602  12.991 -0.02 +0.00    +0.029 A  
DOCKED: ATOM     23  F   UNL     1     -37.297 -12.786  15.209 +0.00 -0.00    -0.204 F  
DOCKED: ATOM     24  C   UNL     1     -38.197 -13.890  11.861 -0.06 +0.00    +0.001 A  
DOCKED: ENDBRANCH   2  18
DOCKED: TORSDOF 5
DOCKED: TER
DOCKED: ENDMDL
________________________________________________________________________________


    FINAL DOCKED STATE:
    ________________________


Run:   486 / 512
Time taken for this run:   0.002s

DOCKED: MODEL        486
DOCKED: USER    Run = 486
DOCKED: USER
DOCKED: USER    Estimated Free Energy of Binding    =  -3.03 kcal/mol  [=(1)+(2)+(3)-(4)]
DOCKED: USER
DOCKED: USER    (1) Final Intermolecular Energy     =  -4.52 kcal/mol
DOCKED: USER        vdW + Hbond + desolv Energy     =  -4.52 kcal/mol
DOCKED: USER        Electrostatic Energy            =  +0.00 kcal/mol
DOCKED: USER        Moving Ligand-Fixed Receptor    =  -4.52 kcal/mol
DOCKED: USER        Moving Ligand-Moving Receptor   =  +0.00 kcal/mol
DOCKED: USER    (2) Final Total Internal Energy     =  -1.61 kcal/mol
DOCKED: USER    (3) Torsional Free Energy           =  +1.49 kcal/mol
DOCKED: USER    (4) Unbound System's Energy         =  -1.61 kcal/mol
DOCKED: USER
DOCKED: USER
DOCKED: REMARK  5 active torsions:
DOCKED: REMARK  status: ('A' for Active; 'I' for Inactive)
DOCKED: REMARK    1  A    between atoms: C_2  and  C_19 
DOCKED: REMARK    2  A    between atoms: C_2  and  C_11 
DOCKED: REMARK    3  A    between atoms: C_19  and  C_20 
DOCKED: REMARK    4  A    between atoms: C_20  and  C_21 
DOCKED: REMARK    5  A    between atoms: C_21  and  N_22 
DOCKED: USER                              x       y       z     vdW  Elec       q    Type
DOCKED: USER                           _______ _______ _______ _____ _____    ______ ____
DOCKED: ROOT
DOCKED: ATOM      1  O   UNL     1     -38.730 -15.859  13.937 -0.00 -0.00    -0.346 OA 
DOCKED: ATOM      2  C   UNL     1     -37.754 -15.787  12.849 -0.06 +0.00    +0.130 C  
DOCKED: ATOM      3  C   UNL     1     -38.303 -16.724  11.812 -0.16 +0.00    +0.004 A  
DOCKED: ATOM      4  C   UNL     1     -39.539 -17.203  12.223 -0.11 +0.00    +0.006 A  
DOCKED: ATOM      5  C   UNL     1     -39.894 -16.617  13.535 -0.03 +0.00    +0.169 C  
DOCKED: ATOM      6  C   UNL     1     -37.759 -17.112  10.596 -0.13 -0.00    -0.001 A  
DOCKED: ATOM      7  C   UNL     1     -40.267 -18.085  11.442 -0.17 +0.00    +0.008 A  
DOCKED: ATOM      8  C   UNL     1     -38.478 -18.003   9.799 -0.27 +0.00    +0.010 A  
DOCKED: ATOM      9  C   UNL     1     -39.726 -18.487  10.220 -0.26 +0.00    +0.068 A  
DOCKED: ATOM     10  N   UNL     1     -41.038 -20.137   8.713 -2.56 -0.00    -0.191 NA 
DOCKED: ATOM     11  C   UNL     1     -40.449 -19.397   9.389 -0.30 +0.00    +0.101 C  
DOCKED: ENDROOT
DOCKED: BRANCH   2  12
DOCKED: ATOM     12  C   UNL     1     -37.677 -14.344  12.364 -0.05 +0.00    +0.038 C  
DOCKED: BRANCH  12  13
DOCKED: ATOM     13  C   UNL     1     -38.163 -13.370  13.435 -0.01 +0.00    +0.038 C  
DOCKED: BRANCH  13  14
DOCKED: ATOM     14  C   UNL     1     -37.071 -13.100  14.469 -0.00 +0.00    +0.251 C  
DOCKED: BRANCH  14  15
DOCKED: ATOM     15  N   UNL     1     -37.199 -14.020  15.593 -0.00 +0.00    +0.141 N  
DOCKED: ATOM     16  C   UNL     1     -36.105 -13.825  16.546 +0.00 +0.00    +0.285 C  
DOCKED: ATOM     17  C   UNL     1     -38.490 -13.844  16.259 +0.00 +0.00    +0.285 C  
DOCKED: ENDBRANCH  14  15
DOCKED: ENDBRANCH  13  14
DOCKED: ENDBRANCH  12  13
DOCKED: ENDBRANCH   2  12
DOCKED: BRANCH   2  18
DOCKED: ATOM     18  C   UNL     1     -36.445 -16.239  13.405 -0.07 +0.00    +0.006 A  
DOCKED: ATOM     19  C   UNL     1     -35.255 -15.735  12.883 -0.07 +0.00    +0.001 A  
DOCKED: ATOM     20  C   UNL     1     -34.032 -16.158  13.404 -0.05 +0.00    +0.029 A  
DOCKED: ATOM     21  C   UNL     1     -34.001 -17.084  14.446 -0.04 +0.00    +0.140 A  
DOCKED: ATOM     22  C   UNL     1     -35.192 -17.588  14.968 -0.08 +0.00    +0.029 A  
DOCKED: ATOM     23  F   UNL     1     -32.826 -17.489  14.947 +0.00 -0.00    -0.204 F  
DOCKED: ATOM     24  C   UNL     1     -36.416 -17.165  14.447 -0.08 +0.00    +0.001 A  
DOCKED: ENDBRANCH   2  18
DOCKED: TORSDOF 5
DOCKED: TER
DOCKED: ENDMDL
________________________________________________________________________________


    FINAL DOCKED STATE:
    ________________________


Run:   487 / 512
Time taken for this run:   0.002s

DOCKED: MODEL        487
DOCKED: USER    Run = 487
DOCKED: USER
DOCKED: USER    Estimated Free Energy of Binding    =  -3.48 kcal/mol  [=(1)+(2)+(3)-(4)]
DOCKED: USER
DOCKED: USER    (1) Final Intermolecular Energy     =  -4.98 kcal/mol
DOCKED: USER        vdW + Hbond + desolv Energy     =  -4.98 kcal/mol
DOCKED: USER        Electrostatic Energy            =  +0.00 kcal/mol
DOCKED: USER        Moving Ligand-Fixed Receptor    =  -4.98 kcal/mol
DOCKED: USER        Moving Ligand-Moving Receptor   =  +0.00 kcal/mol
DOCKED: USER    (2) Final Total Internal Energy     =  -1.25 kcal/mol
DOCKED: USER    (3) Torsional Free Energy           =  +1.49 kcal/mol
DOCKED: USER    (4) Unbound System's Energy         =  -1.25 kcal/mol
DOCKED: USER
DOCKED: USER
DOCKED: REMARK  5 active torsions:
DOCKED: REMARK  status: ('A' for Active; 'I' for Inactive)
DOCKED: REMARK    1  A    between atoms: C_2  and  C_19 
DOCKED: REMARK    2  A    between atoms: C_2  and  C_11 
DOCKED: REMARK    3  A    between atoms: C_19  and  C_20 
DOCKED: REMARK    4  A    between atoms: C_20  and  C_21 
DOCKED: REMARK    5  A    between atoms: C_21  and  N_22 
DOCKED: USER                              x       y       z     vdW  Elec       q    Type
DOCKED: USER                           _______ _______ _______ _____ _____    ______ ____
DOCKED: ROOT
DOCKED: ATOM      1  O   UNL     1     -38.516 -15.266  13.044 -0.00 -0.00    -0.346 OA 
DOCKED: ATOM      2  C   UNL     1     -38.266 -14.836  11.668 -0.09 +0.00    +0.130 C  
DOCKED: ATOM      3  C   UNL     1     -38.812 -15.959  10.835 -0.20 +0.00    +0.004 A  
DOCKED: ATOM      4  C   UNL     1     -39.421 -16.897  11.657 -0.13 +0.00    +0.006 A  
DOCKED: ATOM      5  C   UNL     1     -39.332 -16.460  13.069 -0.04 +0.00    +0.169 C  
DOCKED: ATOM      6  C   UNL     1     -38.784 -16.131   9.459 -0.23 -0.00    -0.001 A  
DOCKED: ATOM      7  C   UNL     1     -40.013 -18.035  11.137 -0.19 +0.00    +0.008 A  
DOCKED: ATOM      8  C   UNL     1     -39.373 -17.276   8.919 -0.29 +0.00    +0.010 A  
DOCKED: ATOM      9  C   UNL     1     -39.985 -18.222   9.754 -0.28 +0.00    +0.068 A  
DOCKED: ATOM     10  N   UNL     1     -41.075 -20.333   8.720 -2.53 -0.00    -0.191 NA 
DOCKED: ATOM     11  C   UNL     1     -40.586 -19.387   9.184 -0.36 +0.00    +0.101 C  
DOCKED: ENDROOT
DOCKED: BRANCH   2  12
DOCKED: ATOM     12  C   UNL     1     -38.993 -13.516  11.435 -0.09 +0.00    +0.038 C  
DOCKED: BRANCH  12  13
DOCKED: ATOM     13  C   UNL     1     -38.867 -12.590  12.643 -0.02 +0.00    +0.038 C  
DOCKED: BRANCH  13  14
DOCKED: ATOM     14  C   UNL     1     -40.200 -11.915  12.959 -0.00 +0.00    +0.251 C  
DOCKED: BRANCH  14  15
DOCKED: ATOM     15  N   UNL     1     -41.075 -12.833  13.678 -0.01 +0.00    +0.141 N  
DOCKED: ATOM     16  C   UNL     1     -40.344 -13.511  14.749 +0.00 +0.00    +0.285 C  
DOCKED: ATOM     17  C   UNL     1     -42.232 -12.121  14.225 -0.00 +0.00    +0.285 C  
DOCKED: ENDBRANCH  14  15
DOCKED: ENDBRANCH  13  14
DOCKED: ENDBRANCH  12  13
DOCKED: ENDBRANCH   2  12
DOCKED: BRANCH   2  18
DOCKED: ATOM     18  C   UNL     1     -36.790 -14.670  11.524 -0.10 +0.00    +0.006 A  
DOCKED: ATOM     19  C   UNL     1     -36.278 -13.763  10.597 -0.11 +0.00    +0.001 A  
DOCKED: ATOM     20  C   UNL     1     -34.898 -13.609  10.464 -0.08 +0.00    +0.029 A  
DOCKED: ATOM     21  C   UNL     1     -34.032 -14.361  11.257 -0.05 +0.00    +0.140 A  
DOCKED: ATOM     22  C   UNL     1     -34.545 -15.268  12.184 -0.07 +0.00    +0.029 A  
DOCKED: ATOM     23  F   UNL     1     -32.707 -14.211  11.130 -0.00 -0.00    -0.204 F  
DOCKED: ATOM     24  C   UNL     1     -35.926 -15.423  12.318 -0.09 +0.00    +0.001 A  
DOCKED: ENDBRANCH   2  18
DOCKED: TORSDOF 5
DOCKED: TER
DOCKED: ENDMDL
________________________________________________________________________________


    FINAL DOCKED STATE:
    ________________________


Run:   488 / 512
Time taken for this run:   0.002s

DOCKED: MODEL        488
DOCKED: USER    Run = 488
DOCKED: USER
DOCKED: USER    Estimated Free Energy of Binding    =  -3.96 kcal/mol  [=(1)+(2)+(3)-(4)]
DOCKED: USER
DOCKED: USER    (1) Final Intermolecular Energy     =  -5.45 kcal/mol
DOCKED: USER        vdW + Hbond + desolv Energy     =  -5.45 kcal/mol
DOCKED: USER        Electrostatic Energy            =  +0.00 kcal/mol
DOCKED: USER        Moving Ligand-Fixed Receptor    =  -5.45 kcal/mol
DOCKED: USER        Moving Ligand-Moving Receptor   =  +0.00 kcal/mol
DOCKED: USER    (2) Final Total Internal Energy     =  -1.25 kcal/mol
DOCKED: USER    (3) Torsional Free Energy           =  +1.49 kcal/mol
DOCKED: USER    (4) Unbound System's Energy         =  -1.25 kcal/mol
DOCKED: USER
DOCKED: USER
DOCKED: REMARK  5 active torsions:
DOCKED: REMARK  status: ('A' for Active; 'I' for Inactive)
DOCKED: REMARK    1  A    between atoms: C_2  and  C_19 
DOCKED: REMARK    2  A    between atoms: C_2  and  C_11 
DOCKED: REMARK    3  A    between atoms: C_19  and  C_20 
DOCKED: REMARK    4  A    between atoms: C_20  and  C_21 
DOCKED: REMARK    5  A    between atoms: C_21  and  N_22 
DOCKED: USER                              x       y       z     vdW  Elec       q    Type
DOCKED: USER                           _______ _______ _______ _____ _____    ______ ____
DOCKED: ROOT
DOCKED: ATOM      1  O   UNL     1     -42.880 -14.217  11.280 -0.04 -0.00    -0.346 OA 
DOCKED: ATOM      2  C   UNL     1     -41.557 -14.009  10.692 -0.19 +0.00    +0.130 C  
DOCKED: ATOM      3  C   UNL     1     -41.162 -15.372  10.202 -0.23 +0.00    +0.004 A  
DOCKED: ATOM      4  C   UNL     1     -42.212 -16.259  10.394 -0.21 +0.00    +0.006 A  
DOCKED: ATOM      5  C   UNL     1     -43.362 -15.552  11.002 -0.15 +0.00    +0.169 C  
DOCKED: ATOM      6  C   UNL     1     -39.973 -15.792   9.623 -0.22 -0.00    -0.001 A  
DOCKED: ATOM      7  C   UNL     1     -42.110 -17.588  10.020 -0.24 +0.00    +0.008 A  
DOCKED: ATOM      8  C   UNL     1     -39.853 -17.130   9.245 -0.34 +0.00    +0.010 A  
DOCKED: ATOM      9  C   UNL     1     -40.917 -18.023   9.442 -0.25 +0.00    +0.068 A  
DOCKED: ATOM     10  N   UNL     1     -40.663 -20.500   8.724 -2.61 -0.00    -0.191 NA 
DOCKED: ATOM     11  C   UNL     1     -40.777 -19.389   9.047 -0.37 +0.00    +0.101 C  
DOCKED: ENDROOT
DOCKED: BRANCH   2  12
DOCKED: ATOM     12  C   UNL     1     -41.684 -12.988   9.567 -0.13 +0.00    +0.038 C  
DOCKED: BRANCH  12  13
DOCKED: ATOM     13  C   UNL     1     -41.785 -11.566  10.114 -0.17 +0.00    +0.038 C  
DOCKED: BRANCH  13  14
DOCKED: ATOM     14  C   UNL     1     -43.219 -11.237  10.526 -0.07 +0.00    +0.251 C  
DOCKED: BRANCH  14  15
DOCKED: ATOM     15  N   UNL     1     -43.277  -9.920  11.150 -0.03 +0.00    +0.141 N  
DOCKED: ATOM     16  C   UNL     1     -42.206  -9.767  12.135 -0.00 +0.00    +0.285 C  
DOCKED: ATOM     17  C   UNL     1     -43.190  -8.866  10.138 -0.01 +0.00    +0.285 C  
DOCKED: ENDBRANCH  14  15
DOCKED: ENDBRANCH  13  14
DOCKED: ENDBRANCH  12  13
DOCKED: ENDBRANCH   2  12
DOCKED: BRANCH   2  18
DOCKED: ATOM     18  C   UNL     1     -40.670 -13.502  11.780 -0.07 +0.00    +0.006 A  
DOCKED: ATOM     19  C   UNL     1     -41.206 -13.198  13.030 -0.02 +0.00    +0.001 A  
DOCKED: ATOM     20  C   UNL     1     -40.376 -12.724  14.047 -0.00 +0.00    +0.029 A  
DOCKED: ATOM     21  C   UNL     1     -39.012 -12.556  13.812 -0.00 +0.00    +0.140 A  
DOCKED: ATOM     22  C   UNL     1     -38.476 -12.862  12.561 -0.02 +0.00    +0.029 A  
DOCKED: ATOM     23  F   UNL     1     -38.215 -12.103  14.788 +0.00 -0.00    -0.204 F  
DOCKED: ATOM     24  C   UNL     1     -39.306 -13.335  11.543 -0.07 +0.00    +0.001 A  
DOCKED: ENDBRANCH   2  18
DOCKED: TORSDOF 5
DOCKED: TER
DOCKED: ENDMDL
________________________________________________________________________________


    FINAL DOCKED STATE:
    ________________________


Run:   489 / 512
Time taken for this run:   0.002s

DOCKED: MODEL        489
DOCKED: USER    Run = 489
DOCKED: USER
DOCKED: USER    Estimated Free Energy of Binding    =  -4.09 kcal/mol  [=(1)+(2)+(3)-(4)]
DOCKED: USER
DOCKED: USER    (1) Final Intermolecular Energy     =  -5.58 kcal/mol
DOCKED: USER        vdW + Hbond + desolv Energy     =  -5.58 kcal/mol
DOCKED: USER        Electrostatic Energy            =  +0.00 kcal/mol
DOCKED: USER        Moving Ligand-Fixed Receptor    =  -5.58 kcal/mol
DOCKED: USER        Moving Ligand-Moving Receptor   =  +0.00 kcal/mol
DOCKED: USER    (2) Final Total Internal Energy     =  -1.48 kcal/mol
DOCKED: USER    (3) Torsional Free Energy           =  +1.49 kcal/mol
DOCKED: USER    (4) Unbound System's Energy         =  -1.48 kcal/mol
DOCKED: USER
DOCKED: USER
DOCKED: REMARK  5 active torsions:
DOCKED: REMARK  status: ('A' for Active; 'I' for Inactive)
DOCKED: REMARK    1  A    between atoms: C_2  and  C_19 
DOCKED: REMARK    2  A    between atoms: C_2  and  C_11 
DOCKED: REMARK    3  A    between atoms: C_19  and  C_20 
DOCKED: REMARK    4  A    between atoms: C_20  and  C_21 
DOCKED: REMARK    5  A    between atoms: C_21  and  N_22 
DOCKED: USER                              x       y       z     vdW  Elec       q    Type
DOCKED: USER                           _______ _______ _______ _____ _____    ______ ____
DOCKED: ROOT
DOCKED: ATOM      1  O   UNL     1     -41.600 -13.874  11.211 -0.05 -0.00    -0.346 OA 
DOCKED: ATOM      2  C   UNL     1     -40.276 -13.979  10.597 -0.17 +0.00    +0.130 C  
DOCKED: ATOM      3  C   UNL     1     -40.215 -15.399  10.113 -0.23 +0.00    +0.004 A  
DOCKED: ATOM      4  C   UNL     1     -41.437 -16.019  10.331 -0.22 +0.00    +0.006 A  
DOCKED: ATOM      5  C   UNL     1     -42.381 -15.064  10.953 -0.15 +0.00    +0.169 C  
DOCKED: ATOM      6  C   UNL     1     -39.166 -16.083   9.517 -0.28 -0.00    -0.001 A  
DOCKED: ATOM      7  C   UNL     1     -41.651 -17.338   9.968 -0.23 +0.00    +0.008 A  
DOCKED: ATOM      8  C   UNL     1     -39.365 -17.415   9.148 -0.34 +0.00    +0.010 A  
DOCKED: ATOM      9  C   UNL     1     -40.601 -18.039   9.372 -0.28 +0.00    +0.068 A  
DOCKED: ATOM     10  N   UNL     1     -40.937 -20.510   8.672 -2.54 -0.00    -0.191 NA 
DOCKED: ATOM     11  C   UNL     1     -40.786 -19.402   8.987 -0.37 +0.00    +0.101 C  
DOCKED: ENDROOT
DOCKED: BRANCH   2  12
DOCKED: ATOM     12  C   UNL     1     -40.187 -12.962   9.465 -0.13 +0.00    +0.038 C  
DOCKED: BRANCH  12  13
DOCKED: ATOM     13  C   UNL     1     -40.680 -11.587   9.912 -0.17 +0.00    +0.038 C  
DOCKED: BRANCH  13  14
DOCKED: ATOM     14  C   UNL     1     -42.159 -11.399   9.580 -0.12 +0.00    +0.251 C  
DOCKED: BRANCH  14  15
DOCKED: ATOM     15  N   UNL     1     -42.882 -10.906  10.747 -0.05 +0.00    +0.141 N  
DOCKED: ATOM     16  C   UNL     1     -44.026 -11.768  11.047 -0.04 +0.00    +0.285 C  
DOCKED: ATOM     17  C   UNL     1     -41.992 -10.820  11.906 -0.01 +0.00    +0.285 C  
DOCKED: ENDBRANCH  14  15
DOCKED: ENDBRANCH  13  14
DOCKED: ENDBRANCH  12  13
DOCKED: ENDBRANCH   2  12
DOCKED: BRANCH   2  18
DOCKED: ATOM     18  C   UNL     1     -39.276 -13.685  11.665 -0.07 +0.00    +0.006 A  
DOCKED: ATOM     19  C   UNL     1     -37.939 -13.475  11.328 -0.07 +0.00    +0.001 A  
DOCKED: ATOM     20  C   UNL     1     -37.005 -13.201  12.328 -0.03 +0.00    +0.029 A  
DOCKED: ATOM     21  C   UNL     1     -37.408 -13.137  13.661 -0.00 +0.00    +0.140 A  
DOCKED: ATOM     22  C   UNL     1     -38.745 -13.347  13.996 -0.01 +0.00    +0.029 A  
DOCKED: ATOM     23  F   UNL     1     -36.511 -12.872  14.620 +0.00 -0.00    -0.204 F  
DOCKED: ATOM     24  C   UNL     1     -39.681 -13.622  12.997 -0.02 +0.00    +0.001 A  
DOCKED: ENDBRANCH   2  18
DOCKED: TORSDOF 5
DOCKED: TER
DOCKED: ENDMDL
________________________________________________________________________________


    FINAL DOCKED STATE:
    ________________________


Run:   490 / 512
Time taken for this run:   0.002s

DOCKED: MODEL        490
DOCKED: USER    Run = 490
DOCKED: USER
DOCKED: USER    Estimated Free Energy of Binding    =  -3.71 kcal/mol  [=(1)+(2)+(3)-(4)]
DOCKED: USER
DOCKED: USER    (1) Final Intermolecular Energy     =  -5.20 kcal/mol
DOCKED: USER        vdW + Hbond + desolv Energy     =  -5.20 kcal/mol
DOCKED: USER        Electrostatic Energy            =  +0.00 kcal/mol
DOCKED: USER        Moving Ligand-Fixed Receptor    =  -5.20 kcal/mol
DOCKED: USER        Moving Ligand-Moving Receptor   =  +0.00 kcal/mol
DOCKED: USER    (2) Final Total Internal Energy     =  -1.44 kcal/mol
DOCKED: USER    (3) Torsional Free Energy           =  +1.49 kcal/mol
DOCKED: USER    (4) Unbound System's Energy         =  -1.44 kcal/mol
DOCKED: USER
DOCKED: USER
DOCKED: REMARK  5 active torsions:
DOCKED: REMARK  status: ('A' for Active; 'I' for Inactive)
DOCKED: REMARK    1  A    between atoms: C_2  and  C_19 
DOCKED: REMARK    2  A    between atoms: C_2  and  C_11 
DOCKED: REMARK    3  A    between atoms: C_19  and  C_20 
DOCKED: REMARK    4  A    between atoms: C_20  and  C_21 
DOCKED: REMARK    5  A    between atoms: C_21  and  N_22 
DOCKED: USER                              x       y       z     vdW  Elec       q    Type
DOCKED: USER                           _______ _______ _______ _____ _____    ______ ____
DOCKED: ROOT
DOCKED: ATOM      1  O   UNL     1     -33.461 -13.806   6.271 -0.02 -0.00    -0.346 OA 
DOCKED: ATOM      2  C   UNL     1     -34.305 -14.415   5.242 -0.16 +0.00    +0.130 C  
DOCKED: ATOM      3  C   UNL     1     -34.113 -15.890   5.446 -0.25 +0.00    +0.004 A  
DOCKED: ATOM      4  C   UNL     1     -33.317 -16.108   6.562 -0.17 +0.00    +0.006 A  
DOCKED: ATOM      5  C   UNL     1     -32.944 -14.812   7.173 -0.09 +0.00    +0.169 C  
DOCKED: ATOM      6  C   UNL     1     -34.611 -16.954   4.709 -0.27 -0.00    -0.001 A  
DOCKED: ATOM      7  C   UNL     1     -32.991 -17.388   6.975 -0.18 +0.00    +0.008 A  
DOCKED: ATOM      8  C   UNL     1     -34.288 -18.251   5.111 -0.16 +0.00    +0.010 A  
DOCKED: ATOM      9  C   UNL     1     -33.482 -18.467   6.238 -0.25 +0.00    +0.068 A  
DOCKED: ATOM     10  N   UNL     1     -32.904 -20.887   6.960 -1.82 -0.00    -0.191 NA 
DOCKED: ATOM     11  C   UNL     1     -33.162 -19.801   6.636 -0.41 +0.00    +0.101 C  
DOCKED: ENDROOT
DOCKED: BRANCH   2  12
DOCKED: ATOM     12  C   UNL     1     -35.743 -13.967   5.471 -0.25 +0.00    +0.038 C  
DOCKED: BRANCH  12  13
DOCKED: ATOM     13  C   UNL     1     -35.825 -12.880   6.541 -0.15 +0.00    +0.038 C  
DOCKED: BRANCH  13  14
DOCKED: ATOM     14  C   UNL     1     -35.531 -11.503   5.948 -0.06 +0.00    +0.251 C  
DOCKED: BRANCH  14  15
DOCKED: ATOM     15  N   UNL     1     -36.007 -11.431   4.572 -0.11 +0.00    +0.141 N  
DOCKED: ATOM     16  C   UNL     1     -37.360 -10.877   4.521 -0.17 +0.00    +0.285 C  
DOCKED: ATOM     17  C   UNL     1     -35.098 -10.626   3.754 -0.08 +0.00    +0.285 C  
DOCKED: ENDBRANCH  14  15
DOCKED: ENDBRANCH  13  14
DOCKED: ENDBRANCH  12  13
DOCKED: ENDBRANCH   2  12
DOCKED: BRANCH   2  18
DOCKED: ATOM     18  C   UNL     1     -33.796 -13.939   3.923 -0.12 +0.00    +0.006 A  
DOCKED: ATOM     19  C   UNL     1     -34.638 -13.935   2.812 -0.19 +0.00    +0.001 A  
DOCKED: ATOM     20  C   UNL     1     -34.161 -13.490   1.578 -0.19 +0.00    +0.029 A  
DOCKED: ATOM     21  C   UNL     1     -32.844 -13.049   1.458 -0.05 +0.00    +0.140 A  
DOCKED: ATOM     22  C   UNL     1     -32.002 -13.053   2.570 -0.02 +0.00    +0.029 A  
DOCKED: ATOM     23  F   UNL     1     -32.387 -12.620   0.274 +0.00 -0.00    -0.204 F  
DOCKED: ATOM     24  C   UNL     1     -32.478 -13.498   3.804 -0.03 +0.00    +0.001 A  
DOCKED: ENDBRANCH   2  18
DOCKED: TORSDOF 5
DOCKED: TER
DOCKED: ENDMDL
________________________________________________________________________________


    FINAL DOCKED STATE:
    ________________________


Run:   491 / 512
Time taken for this run:   0.002s

DOCKED: MODEL        491
DOCKED: USER    Run = 491
DOCKED: USER
DOCKED: USER    Estimated Free Energy of Binding    =  -3.41 kcal/mol  [=(1)+(2)+(3)-(4)]
DOCKED: USER
DOCKED: USER    (1) Final Intermolecular Energy     =  -4.90 kcal/mol
DOCKED: USER        vdW + Hbond + desolv Energy     =  -4.90 kcal/mol
DOCKED: USER        Electrostatic Energy            =  +0.00 kcal/mol
DOCKED: USER        Moving Ligand-Fixed Receptor    =  -4.90 kcal/mol
DOCKED: USER        Moving Ligand-Moving Receptor   =  +0.00 kcal/mol
DOCKED: USER    (2) Final Total Internal Energy     =  -1.41 kcal/mol
DOCKED: USER    (3) Torsional Free Energy           =  +1.49 kcal/mol
DOCKED: USER    (4) Unbound System's Energy         =  -1.41 kcal/mol
DOCKED: USER
DOCKED: USER
DOCKED: REMARK  5 active torsions:
DOCKED: REMARK  status: ('A' for Active; 'I' for Inactive)
DOCKED: REMARK    1  A    between atoms: C_2  and  C_19 
DOCKED: REMARK    2  A    between atoms: C_2  and  C_11 
DOCKED: REMARK    3  A    between atoms: C_19  and  C_20 
DOCKED: REMARK    4  A    between atoms: C_20  and  C_21 
DOCKED: REMARK    5  A    between atoms: C_21  and  N_22 
DOCKED: USER                              x       y       z     vdW  Elec       q    Type
DOCKED: USER                           _______ _______ _______ _____ _____    ______ ____
DOCKED: ROOT
DOCKED: ATOM      1  O   UNL     1     -37.510 -16.937  13.865 -0.03 -0.00    -0.346 OA 
DOCKED: ATOM      2  C   UNL     1     -37.200 -16.257  12.606 -0.10 +0.00    +0.130 C  
DOCKED: ATOM      3  C   UNL     1     -38.012 -17.002  11.586 -0.20 +0.00    +0.004 A  
DOCKED: ATOM      4  C   UNL     1     -38.801 -17.951  12.220 -0.17 +0.00    +0.006 A  
DOCKED: ATOM      5  C   UNL     1     -38.580 -17.894  13.682 -0.10 +0.00    +0.169 C  
DOCKED: ATOM      6  C   UNL     1     -38.057 -16.844  10.209 -0.12 -0.00    -0.001 A  
DOCKED: ATOM      7  C   UNL     1     -39.654 -18.774  11.503 -0.24 +0.00    +0.008 A  
DOCKED: ATOM      8  C   UNL     1     -38.908 -17.669   9.472 -0.30 +0.00    +0.010 A  
DOCKED: ATOM      9  C   UNL     1     -39.703 -18.628  10.116 -0.28 +0.00    +0.068 A  
DOCKED: ATOM     10  N   UNL     1     -41.277 -20.140   8.719 -2.39 -0.00    -0.191 NA 
DOCKED: ATOM     11  C   UNL     1     -40.571 -19.462   9.346 -0.25 +0.00    +0.101 C  
DOCKED: ENDROOT
DOCKED: BRANCH   2  12
DOCKED: ATOM     12  C   UNL     1     -37.607 -14.794  12.735 -0.05 +0.00    +0.038 C  
DOCKED: BRANCH  12  13
DOCKED: ATOM     13  C   UNL     1     -38.051 -14.463  14.159 -0.01 +0.00    +0.038 C  
DOCKED: BRANCH  13  14
DOCKED: ATOM     14  C   UNL     1     -37.073 -13.499  14.828 -0.00 +0.00    +0.251 C  
DOCKED: BRANCH  14  15
DOCKED: ATOM     15  N   UNL     1     -35.699 -13.854  14.491 -0.00 +0.00    +0.141 N  
DOCKED: ATOM     16  C   UNL     1     -34.891 -12.651  14.285 -0.00 +0.00    +0.285 C  
DOCKED: ATOM     17  C   UNL     1     -35.110 -14.688  15.540 -0.00 +0.00    +0.285 C  
DOCKED: ENDBRANCH  14  15
DOCKED: ENDBRANCH  13  14
DOCKED: ENDBRANCH  12  13
DOCKED: ENDBRANCH   2  12
DOCKED: BRANCH   2  18
DOCKED: ATOM     18  C   UNL     1     -35.730 -16.390  12.390 -0.13 +0.00    +0.006 A  
DOCKED: ATOM     19  C   UNL     1     -34.984 -15.287  11.979 -0.09 +0.00    +0.001 A  
DOCKED: ATOM     20  C   UNL     1     -33.609 -15.413  11.776 -0.07 +0.00    +0.029 A  
DOCKED: ATOM     21  C   UNL     1     -32.983 -16.641  11.985 -0.07 +0.00    +0.140 A  
DOCKED: ATOM     22  C   UNL     1     -33.730 -17.744  12.396 -0.15 +0.00    +0.029 A  
DOCKED: ATOM     23  F   UNL     1     -31.663 -16.761  11.792 +0.00 -0.00    -0.204 F  
DOCKED: ATOM     24  C   UNL     1     -35.105 -17.619  12.598 -0.14 +0.00    +0.001 A  
DOCKED: ENDBRANCH   2  18
DOCKED: TORSDOF 5
DOCKED: TER
DOCKED: ENDMDL
________________________________________________________________________________


    FINAL DOCKED STATE:
    ________________________


Run:   492 / 512
Time taken for this run:   0.002s

DOCKED: MODEL        492
DOCKED: USER    Run = 492
DOCKED: USER
DOCKED: USER    Estimated Free Energy of Binding    =  -3.57 kcal/mol  [=(1)+(2)+(3)-(4)]
DOCKED: USER
DOCKED: USER    (1) Final Intermolecular Energy     =  -5.06 kcal/mol
DOCKED: USER        vdW + Hbond + desolv Energy     =  -5.06 kcal/mol
DOCKED: USER        Electrostatic Energy            =  +0.00 kcal/mol
DOCKED: USER        Moving Ligand-Fixed Receptor    =  -5.06 kcal/mol
DOCKED: USER        Moving Ligand-Moving Receptor   =  +0.00 kcal/mol
DOCKED: USER    (2) Final Total Internal Energy     =  -1.10 kcal/mol
DOCKED: USER    (3) Torsional Free Energy           =  +1.49 kcal/mol
DOCKED: USER    (4) Unbound System's Energy         =  -1.10 kcal/mol
DOCKED: USER
DOCKED: USER
DOCKED: REMARK  5 active torsions:
DOCKED: REMARK  status: ('A' for Active; 'I' for Inactive)
DOCKED: REMARK    1  A    between atoms: C_2  and  C_19 
DOCKED: REMARK    2  A    between atoms: C_2  and  C_11 
DOCKED: REMARK    3  A    between atoms: C_19  and  C_20 
DOCKED: REMARK    4  A    between atoms: C_20  and  C_21 
DOCKED: REMARK    5  A    between atoms: C_21  and  N_22 
DOCKED: USER                              x       y       z     vdW  Elec       q    Type
DOCKED: USER                           _______ _______ _______ _____ _____    ______ ____
DOCKED: ROOT
DOCKED: ATOM      1  O   UNL     1     -36.506 -17.138  13.327 -0.05 -0.00    -0.346 OA 
DOCKED: ATOM      2  C   UNL     1     -36.748 -16.215  12.217 -0.12 +0.00    +0.130 C  
DOCKED: ATOM      3  C   UNL     1     -37.766 -16.928  11.374 -0.21 +0.00    +0.004 A  
DOCKED: ATOM      4  C   UNL     1     -38.153 -18.103  12.002 -0.22 +0.00    +0.006 A  
DOCKED: ATOM      5  C   UNL     1     -37.440 -18.241  13.292 -0.01 +0.00    +0.169 C  
DOCKED: ATOM      6  C   UNL     1     -38.313 -16.560  10.153 -0.20 -0.00    -0.001 A  
DOCKED: ATOM      7  C   UNL     1     -39.092 -18.948  11.435 -0.28 +0.00    +0.008 A  
DOCKED: ATOM      8  C   UNL     1     -39.258 -17.404   9.566 -0.33 +0.00    +0.010 A  
DOCKED: ATOM      9  C   UNL     1     -39.645 -18.592  10.205 -0.28 +0.00    +0.068 A  
DOCKED: ATOM     10  N   UNL     1     -41.405 -20.133   9.090 -2.36 -0.00    -0.191 NA 
DOCKED: ATOM     11  C   UNL     1     -40.615 -19.442   9.590 -0.19 +0.00    +0.101 C  
DOCKED: ENDROOT
DOCKED: BRANCH   2  12
DOCKED: ATOM     12  C   UNL     1     -37.266 -14.900  12.786 -0.05 +0.00    +0.038 C  
DOCKED: BRANCH  12  13
DOCKED: ATOM     13  C   UNL     1     -38.412 -15.131  13.770 -0.03 +0.00    +0.038 C  
DOCKED: BRANCH  13  14
DOCKED: ATOM     14  C   UNL     1     -39.751 -15.222  13.041 -0.01 +0.00    +0.251 C  
DOCKED: BRANCH  14  15
DOCKED: ATOM     15  N   UNL     1     -40.481 -13.965  13.163 -0.01 +0.00    +0.141 N  
DOCKED: ATOM     16  C   UNL     1     -39.882 -12.936  12.312 -0.02 +0.00    +0.285 C  
DOCKED: ATOM     17  C   UNL     1     -41.891 -14.152  12.818 -0.01 +0.00    +0.285 C  
DOCKED: ENDBRANCH  14  15
DOCKED: ENDBRANCH  13  14
DOCKED: ENDBRANCH  12  13
DOCKED: ENDBRANCH   2  12
DOCKED: BRANCH   2  18
DOCKED: ATOM     18  C   UNL     1     -35.445 -16.023  11.517 -0.11 +0.00    +0.006 A  
DOCKED: ATOM     19  C   UNL     1     -34.444 -16.988  11.629 -0.15 +0.00    +0.001 A  
DOCKED: ATOM     20  C   UNL     1     -33.226 -16.806  10.974 -0.13 +0.00    +0.029 A  
DOCKED: ATOM     21  C   UNL     1     -33.009 -15.662  10.208 -0.08 +0.00    +0.140 A  
DOCKED: ATOM     22  C   UNL     1     -34.011 -14.697  10.096 -0.10 +0.00    +0.029 A  
DOCKED: ATOM     23  F   UNL     1     -31.840 -15.489   9.578 -0.01 -0.00    -0.204 F  
DOCKED: ATOM     24  C   UNL     1     -35.230 -14.878  10.751 -0.10 +0.00    +0.001 A  
DOCKED: ENDBRANCH   2  18
DOCKED: TORSDOF 5
DOCKED: TER
DOCKED: ENDMDL
________________________________________________________________________________


    FINAL DOCKED STATE:
    ________________________


Run:   493 / 512
Time taken for this run:   0.002s

DOCKED: MODEL        493
DOCKED: USER    Run = 493
DOCKED: USER
DOCKED: USER    Estimated Free Energy of Binding    =  -4.12 kcal/mol  [=(1)+(2)+(3)-(4)]
DOCKED: USER
DOCKED: USER    (1) Final Intermolecular Energy     =  -5.61 kcal/mol
DOCKED: USER        vdW + Hbond + desolv Energy     =  -5.61 kcal/mol
DOCKED: USER        Electrostatic Energy            =  +0.00 kcal/mol
DOCKED: USER        Moving Ligand-Fixed Receptor    =  -5.61 kcal/mol
DOCKED: USER        Moving Ligand-Moving Receptor   =  +0.00 kcal/mol
DOCKED: USER    (2) Final Total Internal Energy     =  -1.33 kcal/mol
DOCKED: USER    (3) Torsional Free Energy           =  +1.49 kcal/mol
DOCKED: USER    (4) Unbound System's Energy         =  -1.33 kcal/mol
DOCKED: USER
DOCKED: USER
DOCKED: REMARK  5 active torsions:
DOCKED: REMARK  status: ('A' for Active; 'I' for Inactive)
DOCKED: REMARK    1  A    between atoms: C_2  and  C_19 
DOCKED: REMARK    2  A    between atoms: C_2  and  C_11 
DOCKED: REMARK    3  A    between atoms: C_19  and  C_20 
DOCKED: REMARK    4  A    between atoms: C_20  and  C_21 
DOCKED: REMARK    5  A    between atoms: C_21  and  N_22 
DOCKED: USER                              x       y       z     vdW  Elec       q    Type
DOCKED: USER                           _______ _______ _______ _____ _____    ______ ____
DOCKED: ROOT
DOCKED: ATOM      1  O   UNL     1     -36.142 -15.983  11.612 -0.08 -0.00    -0.346 OA 
DOCKED: ATOM      2  C   UNL     1     -37.320 -15.168  11.314 -0.13 +0.00    +0.130 C  
DOCKED: ATOM      3  C   UNL     1     -38.283 -16.140  10.696 -0.22 +0.00    +0.004 A  
DOCKED: ATOM      4  C   UNL     1     -37.747 -17.419  10.738 -0.18 +0.00    +0.006 A  
DOCKED: ATOM      5  C   UNL     1     -36.418 -17.386  11.388 -0.05 +0.00    +0.169 C  
DOCKED: ATOM      6  C   UNL     1     -39.538 -15.913  10.150 -0.26 -0.00    -0.001 A  
DOCKED: ATOM      7  C   UNL     1     -38.439 -18.508  10.236 -0.35 +0.00    +0.008 A  
DOCKED: ATOM      8  C   UNL     1     -40.247 -16.999   9.636 -0.30 +0.00    +0.010 A  
DOCKED: ATOM      9  C   UNL     1     -39.700 -18.291   9.679 -0.30 +0.00    +0.068 A  
DOCKED: ATOM     10  N   UNL     1     -41.045 -20.287   8.721 -2.55 -0.00    -0.191 NA 
DOCKED: ATOM     11  C   UNL     1     -40.442 -19.391   9.150 -0.36 +0.00    +0.101 C  
DOCKED: ENDROOT
DOCKED: BRANCH   2  12
DOCKED: ATOM     12  C   UNL     1     -37.835 -14.570  12.617 -0.05 +0.00    +0.038 C  
DOCKED: BRANCH  12  13
DOCKED: ATOM     13  C   UNL     1     -37.112 -15.161  13.826 -0.03 +0.00    +0.038 C  
DOCKED: BRANCH  13  14
DOCKED: ATOM     14  C   UNL     1     -37.715 -16.506  14.223 -0.03 +0.00    +0.251 C  
DOCKED: BRANCH  14  15
DOCKED: ATOM     15  N   UNL     1     -39.163 -16.395  14.351 -0.02 +0.00    +0.141 N  
DOCKED: ATOM     16  C   UNL     1     -39.793 -17.713  14.250 -0.03 +0.00    +0.285 C  
DOCKED: ATOM     17  C   UNL     1     -39.522 -15.757  15.618 -0.00 +0.00    +0.285 C  
DOCKED: ENDBRANCH  14  15
DOCKED: ENDBRANCH  13  14
DOCKED: ENDBRANCH  12  13
DOCKED: ENDBRANCH   2  12
DOCKED: BRANCH   2  18
DOCKED: ATOM     18  C   UNL     1     -36.884 -14.100  10.367 -0.14 +0.00    +0.006 A  
DOCKED: ATOM     19  C   UNL     1     -37.747 -13.051  10.054 -0.13 +0.00    +0.001 A  
DOCKED: ATOM     20  C   UNL     1     -37.338 -12.054   9.168 -0.10 +0.00    +0.029 A  
DOCKED: ATOM     21  C   UNL     1     -36.067 -12.107   8.597 -0.07 +0.00    +0.140 A  
DOCKED: ATOM     22  C   UNL     1     -35.204 -13.156   8.911 -0.10 +0.00    +0.029 A  
DOCKED: ATOM     23  F   UNL     1     -35.673 -11.148   7.748 -0.01 -0.00    -0.204 F  
DOCKED: ATOM     24  C   UNL     1     -35.612 -14.155   9.797 -0.12 +0.00    +0.001 A  
DOCKED: ENDBRANCH   2  18
DOCKED: TORSDOF 5
DOCKED: TER
DOCKED: ENDMDL
________________________________________________________________________________


    FINAL DOCKED STATE:
    ________________________


Run:   494 / 512
Time taken for this run:   0.002s

DOCKED: MODEL        494
DOCKED: USER    Run = 494
DOCKED: USER
DOCKED: USER    Estimated Free Energy of Binding    =  -5.72 kcal/mol  [=(1)+(2)+(3)-(4)]
DOCKED: USER
DOCKED: USER    (1) Final Intermolecular Energy     =  -7.21 kcal/mol
DOCKED: USER        vdW + Hbond + desolv Energy     =  -7.21 kcal/mol
DOCKED: USER        Electrostatic Energy            =  +0.00 kcal/mol
DOCKED: USER        Moving Ligand-Fixed Receptor    =  -7.21 kcal/mol
DOCKED: USER        Moving Ligand-Moving Receptor   =  +0.00 kcal/mol
DOCKED: USER    (2) Final Total Internal Energy     =  -1.14 kcal/mol
DOCKED: USER    (3) Torsional Free Energy           =  +1.49 kcal/mol
DOCKED: USER    (4) Unbound System's Energy         =  -1.14 kcal/mol
DOCKED: USER
DOCKED: USER
DOCKED: REMARK  5 active torsions:
DOCKED: REMARK  status: ('A' for Active; 'I' for Inactive)
DOCKED: REMARK    1  A    between atoms: C_2  and  C_19 
DOCKED: REMARK    2  A    between atoms: C_2  and  C_11 
DOCKED: REMARK    3  A    between atoms: C_19  and  C_20 
DOCKED: REMARK    4  A    between atoms: C_20  and  C_21 
DOCKED: REMARK    5  A    between atoms: C_21  and  N_22 
DOCKED: USER                              x       y       z     vdW  Elec       q    Type
DOCKED: USER                           _______ _______ _______ _____ _____    ______ ____
DOCKED: ROOT
DOCKED: ATOM      1  O   UNL     1     -39.005 -16.459  10.887 -0.07 -0.00    -0.346 OA 
DOCKED: ATOM      2  C   UNL     1     -39.752 -17.687  11.159 -0.17 +0.00    +0.130 C  
DOCKED: ATOM      3  C   UNL     1     -40.204 -18.141   9.801 -0.31 +0.00    +0.004 A  
DOCKED: ATOM      4  C   UNL     1     -39.670 -17.308   8.828 -0.35 +0.00    +0.006 A  
DOCKED: ATOM      5  C   UNL     1     -38.829 -16.269   9.464 -0.19 +0.00    +0.169 C  
DOCKED: ATOM      6  C   UNL     1     -41.015 -19.212   9.453 -0.32 -0.00    -0.001 A  
DOCKED: ATOM      7  C   UNL     1     -39.928 -17.512   7.483 -0.19 +0.00    +0.008 A  
DOCKED: ATOM      8  C   UNL     1     -41.288 -19.428   8.102 -0.43 +0.00    +0.010 A  
DOCKED: ATOM      9  C   UNL     1     -40.747 -18.583   7.122 -0.42 +0.00    +0.068 A  
DOCKED: ATOM     10  N   UNL     1     -41.270 -19.015   4.621 -3.21 -0.00    -0.191 NA 
DOCKED: ATOM     11  C   UNL     1     -41.036 -18.821   5.743 -0.28 +0.00    +0.101 C  
DOCKED: ENDROOT
DOCKED: BRANCH   2  12
DOCKED: ATOM     12  C   UNL     1     -38.817 -18.682  11.835 -0.28 +0.00    +0.038 C  
DOCKED: BRANCH  12  13
DOCKED: ATOM     13  C   UNL     1     -37.596 -17.982  12.430 -0.17 +0.00    +0.038 C  
DOCKED: BRANCH  13  14
DOCKED: ATOM     14  C   UNL     1     -37.738 -17.820  13.942 -0.08 +0.00    +0.251 C  
DOCKED: BRANCH  14  15
DOCKED: ATOM     15  N   UNL     1     -37.330 -19.042  14.624 -0.09 +0.00    +0.141 N  
DOCKED: ATOM     16  C   UNL     1     -36.705 -18.731  15.911 -0.08 +0.00    +0.285 C  
DOCKED: ATOM     17  C   UNL     1     -38.476 -19.932  14.818 -0.16 +0.00    +0.285 C  
DOCKED: ENDBRANCH  14  15
DOCKED: ENDBRANCH  13  14
DOCKED: ENDBRANCH  12  13
DOCKED: ENDBRANCH   2  12
DOCKED: BRANCH   2  18
DOCKED: ATOM     18  C   UNL     1     -40.886 -17.318  12.056 -0.10 +0.00    +0.006 A  
DOCKED: ATOM     19  C   UNL     1     -41.251 -18.165  13.102 -0.11 +0.00    +0.001 A  
DOCKED: ATOM     20  C   UNL     1     -42.312 -17.819  13.940 -0.06 +0.00    +0.029 A  
DOCKED: ATOM     21  C   UNL     1     -43.005 -16.628  13.732 -0.01 +0.00    +0.140 A  
DOCKED: ATOM     22  C   UNL     1     -42.639 -15.781  12.685 -0.05 +0.00    +0.029 A  
DOCKED: ATOM     23  F   UNL     1     -44.022 -16.295  14.537 +0.01 -0.00    -0.204 F  
DOCKED: ATOM     24  C   UNL     1     -41.579 -16.127  11.846 -0.09 +0.00    +0.001 A  
DOCKED: ENDBRANCH   2  18
DOCKED: TORSDOF 5
DOCKED: TER
DOCKED: ENDMDL
________________________________________________________________________________


    FINAL DOCKED STATE:
    ________________________


Run:   495 / 512
Time taken for this run:   0.002s

DOCKED: MODEL        495
DOCKED: USER    Run = 495
DOCKED: USER
DOCKED: USER    Estimated Free Energy of Binding    =  -4.21 kcal/mol  [=(1)+(2)+(3)-(4)]
DOCKED: USER
DOCKED: USER    (1) Final Intermolecular Energy     =  -5.70 kcal/mol
DOCKED: USER        vdW + Hbond + desolv Energy     =  -5.70 kcal/mol
DOCKED: USER        Electrostatic Energy            =  +0.00 kcal/mol
DOCKED: USER        Moving Ligand-Fixed Receptor    =  -5.70 kcal/mol
DOCKED: USER        Moving Ligand-Moving Receptor   =  +0.00 kcal/mol
DOCKED: USER    (2) Final Total Internal Energy     =  -1.34 kcal/mol
DOCKED: USER    (3) Torsional Free Energy           =  +1.49 kcal/mol
DOCKED: USER    (4) Unbound System's Energy         =  -1.34 kcal/mol
DOCKED: USER
DOCKED: USER
DOCKED: REMARK  5 active torsions:
DOCKED: REMARK  status: ('A' for Active; 'I' for Inactive)
DOCKED: REMARK    1  A    between atoms: C_2  and  C_19 
DOCKED: REMARK    2  A    between atoms: C_2  and  C_11 
DOCKED: REMARK    3  A    between atoms: C_19  and  C_20 
DOCKED: REMARK    4  A    between atoms: C_20  and  C_21 
DOCKED: REMARK    5  A    between atoms: C_21  and  N_22 
DOCKED: USER                              x       y       z     vdW  Elec       q    Type
DOCKED: USER                           _______ _______ _______ _____ _____    ______ ____
DOCKED: ROOT
DOCKED: ATOM      1  O   UNL     1     -38.497 -14.267  11.001 -0.04 -0.00    -0.346 OA 
DOCKED: ATOM      2  C   UNL     1     -39.871 -14.469  11.462 -0.10 +0.00    +0.130 C  
DOCKED: ATOM      3  C   UNL     1     -40.265 -15.782  10.849 -0.18 +0.00    +0.004 A  
DOCKED: ATOM      4  C   UNL     1     -39.177 -16.335  10.189 -0.27 +0.00    +0.006 A  
DOCKED: ATOM      5  C   UNL     1     -38.001 -15.447  10.327 -0.18 +0.00    +0.169 C  
DOCKED: ATOM      6  C   UNL     1     -41.486 -16.440  10.883 -0.17 -0.00    -0.001 A  
DOCKED: ATOM      7  C   UNL     1     -39.271 -17.555   9.540 -0.34 +0.00    +0.008 A  
DOCKED: ATOM      8  C   UNL     1     -41.599 -17.669  10.230 -0.22 +0.00    +0.010 A  
DOCKED: ATOM      9  C   UNL     1     -40.496 -18.223   9.563 -0.27 +0.00    +0.068 A  
DOCKED: ATOM     10  N   UNL     1     -40.737 -20.508   8.365 -2.39 -0.00    -0.191 NA 
DOCKED: ATOM     11  C   UNL     1     -40.629 -19.483   8.902 -0.38 +0.00    +0.101 C  
DOCKED: ENDROOT
DOCKED: BRANCH   2  12
DOCKED: ATOM     12  C   UNL     1     -39.870 -14.502  12.985 -0.03 +0.00    +0.038 C  
DOCKED: BRANCH  12  13
DOCKED: ATOM     13  C   UNL     1     -39.004 -15.642  13.517 -0.04 +0.00    +0.038 C  
DOCKED: BRANCH  13  14
DOCKED: ATOM     14  C   UNL     1     -39.867 -16.780  14.061 -0.02 +0.00    +0.251 C  
DOCKED: BRANCH  14  15
DOCKED: ATOM     15  N   UNL     1     -39.212 -18.063  13.840 -0.08 +0.00    +0.141 N  
DOCKED: ATOM     16  C   UNL     1     -40.112 -18.990  13.150 -0.11 +0.00    +0.285 C  
DOCKED: ATOM     17  C   UNL     1     -37.978 -17.887  13.072 -0.08 +0.00    +0.285 C  
DOCKED: ENDBRANCH  14  15
DOCKED: ENDBRANCH  13  14
DOCKED: ENDBRANCH  12  13
DOCKED: ENDBRANCH   2  12
DOCKED: BRANCH   2  18
DOCKED: ATOM     18  C   UNL     1     -40.677 -13.323  10.948 -0.14 +0.00    +0.006 A  
DOCKED: ATOM     19  C   UNL     1     -40.250 -12.015  11.174 -0.07 +0.00    +0.001 A  
DOCKED: ATOM     20  C   UNL     1     -41.004 -10.944  10.694 -0.07 +0.00    +0.029 A  
DOCKED: ATOM     21  C   UNL     1     -42.183 -11.182   9.988 -0.11 +0.00    +0.140 A  
DOCKED: ATOM     22  C   UNL     1     -42.609 -12.490   9.762 -0.18 +0.00    +0.029 A  
DOCKED: ATOM     23  F   UNL     1     -42.906 -10.154   9.526 -0.01 -0.00    -0.204 F  
DOCKED: ATOM     24  C   UNL     1     -41.855 -13.563  10.243 -0.23 +0.00    +0.001 A  
DOCKED: ENDBRANCH   2  18
DOCKED: TORSDOF 5
DOCKED: TER
DOCKED: ENDMDL
________________________________________________________________________________


    FINAL DOCKED STATE:
    ________________________


Run:   496 / 512
Time taken for this run:   0.002s

DOCKED: MODEL        496
DOCKED: USER    Run = 496
DOCKED: USER
DOCKED: USER    Estimated Free Energy of Binding    =  -4.02 kcal/mol  [=(1)+(2)+(3)-(4)]
DOCKED: USER
DOCKED: USER    (1) Final Intermolecular Energy     =  -5.51 kcal/mol
DOCKED: USER        vdW + Hbond + desolv Energy     =  -5.51 kcal/mol
DOCKED: USER        Electrostatic Energy            =  +0.00 kcal/mol
DOCKED: USER        Moving Ligand-Fixed Receptor    =  -5.51 kcal/mol
DOCKED: USER        Moving Ligand-Moving Receptor   =  +0.00 kcal/mol
DOCKED: USER    (2) Final Total Internal Energy     =  -1.45 kcal/mol
DOCKED: USER    (3) Torsional Free Energy           =  +1.49 kcal/mol
DOCKED: USER    (4) Unbound System's Energy         =  -1.45 kcal/mol
DOCKED: USER
DOCKED: USER
DOCKED: REMARK  5 active torsions:
DOCKED: REMARK  status: ('A' for Active; 'I' for Inactive)
DOCKED: REMARK    1  A    between atoms: C_2  and  C_19 
DOCKED: REMARK    2  A    between atoms: C_2  and  C_11 
DOCKED: REMARK    3  A    between atoms: C_19  and  C_20 
DOCKED: REMARK    4  A    between atoms: C_20  and  C_21 
DOCKED: REMARK    5  A    between atoms: C_21  and  N_22 
DOCKED: USER                              x       y       z     vdW  Elec       q    Type
DOCKED: USER                           _______ _______ _______ _____ _____    ______ ____
DOCKED: ROOT
DOCKED: ATOM      1  O   UNL     1     -30.389 -15.819   3.603 +0.01 -0.00    -0.346 OA 
DOCKED: ATOM      2  C   UNL     1     -31.824 -15.531   3.626 -0.06 +0.00    +0.130 C  
DOCKED: ATOM      3  C   UNL     1     -32.402 -16.646   4.449 -0.13 +0.00    +0.004 A  
DOCKED: ATOM      4  C   UNL     1     -31.377 -17.439   4.945 -0.08 +0.00    +0.006 A  
DOCKED: ATOM      5  C   UNL     1     -30.069 -16.905   4.504 -0.02 +0.00    +0.169 C  
DOCKED: ATOM      6  C   UNL     1     -33.727 -16.929   4.744 -0.28 -0.00    -0.001 A  
DOCKED: ATOM      7  C   UNL     1     -31.640 -18.538   5.745 -0.16 +0.00    +0.008 A  
DOCKED: ATOM      8  C   UNL     1     -34.009 -18.036   5.545 -0.30 +0.00    +0.010 A  
DOCKED: ATOM      9  C   UNL     1     -32.970 -18.836   6.044 -0.30 +0.00    +0.068 A  
DOCKED: ATOM     10  N   UNL     1     -33.527 -20.882   7.533 -2.65 -0.00    -0.191 NA 
DOCKED: ATOM     11  C   UNL     1     -33.277 -19.965   6.865 -0.34 +0.00    +0.101 C  
DOCKED: ENDROOT
DOCKED: BRANCH   2  12
DOCKED: ATOM     12  C   UNL     1     -32.031 -14.159   4.257 -0.04 +0.00    +0.038 C  
DOCKED: BRANCH  12  13
DOCKED: ATOM     13  C   UNL     1     -32.263 -14.268   5.763 -0.05 +0.00    +0.038 C  
DOCKED: BRANCH  13  14
DOCKED: ATOM     14  C   UNL     1     -30.950 -14.143   6.532 -0.01 +0.00    +0.251 C  
DOCKED: BRANCH  14  15
DOCKED: ATOM     15  N   UNL     1     -30.728 -15.328   7.352 -0.02 +0.00    +0.141 N  
DOCKED: ATOM     16  C   UNL     1     -29.628 -15.106   8.292 -0.00 +0.00    +0.285 C  
DOCKED: ATOM     17  C   UNL     1     -31.948 -15.690   8.075 -0.06 +0.00    +0.285 C  
DOCKED: ENDBRANCH  14  15
DOCKED: ENDBRANCH  13  14
DOCKED: ENDBRANCH  12  13
DOCKED: ENDBRANCH   2  12
DOCKED: BRANCH   2  18
DOCKED: ATOM     18  C   UNL     1     -32.295 -15.548   2.210 -0.12 +0.00    +0.006 A  
DOCKED: ATOM     19  C   UNL     1     -31.627 -16.325   1.264 -0.11 +0.00    +0.001 A  
DOCKED: ATOM     20  C   UNL     1     -32.069 -16.340  -0.060 -0.14 +0.00    +0.029 A  
DOCKED: ATOM     21  C   UNL     1     -33.176 -15.581  -0.435 -0.18 +0.00    +0.140 A  
DOCKED: ATOM     22  C   UNL     1     -33.843 -14.805   0.512 -0.19 +0.00    +0.029 A  
DOCKED: ATOM     23  F   UNL     1     -33.600 -15.597  -1.705 -0.09 -0.00    -0.204 F  
DOCKED: ATOM     24  C   UNL     1     -33.402 -14.788   1.837 -0.18 +0.00    +0.001 A  
DOCKED: ENDBRANCH   2  18
DOCKED: TORSDOF 5
DOCKED: TER
DOCKED: ENDMDL
________________________________________________________________________________


    FINAL DOCKED STATE:
    ________________________


Run:   497 / 512
Time taken for this run:   0.002s

DOCKED: MODEL        497
DOCKED: USER    Run = 497
DOCKED: USER
DOCKED: USER    Estimated Free Energy of Binding    =  -4.40 kcal/mol  [=(1)+(2)+(3)-(4)]
DOCKED: USER
DOCKED: USER    (1) Final Intermolecular Energy     =  -5.89 kcal/mol
DOCKED: USER        vdW + Hbond + desolv Energy     =  -5.89 kcal/mol
DOCKED: USER        Electrostatic Energy            =  +0.00 kcal/mol
DOCKED: USER        Moving Ligand-Fixed Receptor    =  -5.89 kcal/mol
DOCKED: USER        Moving Ligand-Moving Receptor   =  +0.00 kcal/mol
DOCKED: USER    (2) Final Total Internal Energy     =  -1.29 kcal/mol
DOCKED: USER    (3) Torsional Free Energy           =  +1.49 kcal/mol
DOCKED: USER    (4) Unbound System's Energy         =  -1.29 kcal/mol
DOCKED: USER
DOCKED: USER
DOCKED: REMARK  5 active torsions:
DOCKED: REMARK  status: ('A' for Active; 'I' for Inactive)
DOCKED: REMARK    1  A    between atoms: C_2  and  C_19 
DOCKED: REMARK    2  A    between atoms: C_2  and  C_11 
DOCKED: REMARK    3  A    between atoms: C_19  and  C_20 
DOCKED: REMARK    4  A    between atoms: C_20  and  C_21 
DOCKED: REMARK    5  A    between atoms: C_21  and  N_22 
DOCKED: USER                              x       y       z     vdW  Elec       q    Type
DOCKED: USER                           _______ _______ _______ _____ _____    ______ ____
DOCKED: ROOT
DOCKED: ATOM      1  O   UNL     1     -38.870 -18.307  12.344 -0.05 -0.00    -0.346 OA 
DOCKED: ATOM      2  C   UNL     1     -38.721 -17.048  11.613 -0.16 +0.00    +0.130 C  
DOCKED: ATOM      3  C   UNL     1     -39.185 -17.381  10.224 -0.30 +0.00    +0.004 A  
DOCKED: ATOM      4  C   UNL     1     -39.661 -18.684  10.191 -0.32 +0.00    +0.006 A  
DOCKED: ATOM      5  C   UNL     1     -39.559 -19.291  11.537 -0.23 +0.00    +0.169 C  
DOCKED: ATOM      6  C   UNL     1     -39.195 -16.591   9.084 -0.25 -0.00    -0.001 A  
DOCKED: ATOM      7  C   UNL     1     -40.156 -19.241   9.024 -0.41 +0.00    +0.008 A  
DOCKED: ATOM      8  C   UNL     1     -39.687 -17.139   7.899 +0.10 +0.00    +0.010 A  
DOCKED: ATOM      9  C   UNL     1     -40.166 -18.458   7.869 -0.40 +0.00    +0.068 A  
DOCKED: ATOM     10  N   UNL     1     -41.078 -19.443   5.654 -2.00 -0.00    -0.191 NA 
DOCKED: ATOM     11  C   UNL     1     -40.669 -19.001   6.647 -0.51 +0.00    +0.101 C  
DOCKED: ENDROOT
DOCKED: BRANCH   2  12
DOCKED: ATOM     12  C   UNL     1     -39.587 -15.992  12.289 -0.09 +0.00    +0.038 C  
DOCKED: BRANCH  12  13
DOCKED: ATOM     13  C   UNL     1     -40.920 -15.816  11.565 -0.12 +0.00    +0.038 C  
DOCKED: BRANCH  13  14
DOCKED: ATOM     14  C   UNL     1     -42.018 -16.647  12.225 -0.03 +0.00    +0.251 C  
DOCKED: BRANCH  14  15
DOCKED: ATOM     15  N   UNL     1     -43.291 -16.437  11.546 -0.09 +0.00    +0.141 N  
DOCKED: ATOM     16  C   UNL     1     -43.079 -15.838  10.227 -0.12 +0.00    +0.285 C  
DOCKED: ATOM     17  C   UNL     1     -44.022 -17.698  11.419 -0.06 +0.00    +0.285 C  
DOCKED: ENDBRANCH  14  15
DOCKED: ENDBRANCH  13  14
DOCKED: ENDBRANCH  12  13
DOCKED: ENDBRANCH   2  12
DOCKED: BRANCH   2  18
DOCKED: ATOM     18  C   UNL     1     -37.277 -16.678  11.670 -0.18 +0.00    +0.006 A  
DOCKED: ATOM     19  C   UNL     1     -36.896 -15.339  11.592 -0.12 +0.00    +0.001 A  
DOCKED: ATOM     20  C   UNL     1     -35.545 -14.995  11.646 -0.09 +0.00    +0.029 A  
DOCKED: ATOM     21  C   UNL     1     -34.577 -15.989  11.778 -0.09 +0.00    +0.140 A  
DOCKED: ATOM     22  C   UNL     1     -34.958 -17.328  11.857 -0.17 +0.00    +0.029 A  
DOCKED: ATOM     23  F   UNL     1     -33.280 -15.658  11.832 -0.01 -0.00    -0.204 F  
DOCKED: ATOM     24  C   UNL     1     -36.309 -17.674  11.803 -0.17 +0.00    +0.001 A  
DOCKED: ENDBRANCH   2  18
DOCKED: TORSDOF 5
DOCKED: TER
DOCKED: ENDMDL
________________________________________________________________________________


    FINAL DOCKED STATE:
    ________________________


Run:   498 / 512
Time taken for this run:   0.002s

DOCKED: MODEL        498
DOCKED: USER    Run = 498
DOCKED: USER
DOCKED: USER    Estimated Free Energy of Binding    =  -4.25 kcal/mol  [=(1)+(2)+(3)-(4)]
DOCKED: USER
DOCKED: USER    (1) Final Intermolecular Energy     =  -5.74 kcal/mol
DOCKED: USER        vdW + Hbond + desolv Energy     =  -5.74 kcal/mol
DOCKED: USER        Electrostatic Energy            =  +0.00 kcal/mol
DOCKED: USER        Moving Ligand-Fixed Receptor    =  -5.74 kcal/mol
DOCKED: USER        Moving Ligand-Moving Receptor   =  +0.00 kcal/mol
DOCKED: USER    (2) Final Total Internal Energy     =  -1.17 kcal/mol
DOCKED: USER    (3) Torsional Free Energy           =  +1.49 kcal/mol
DOCKED: USER    (4) Unbound System's Energy         =  -1.17 kcal/mol
DOCKED: USER
DOCKED: USER
DOCKED: REMARK  5 active torsions:
DOCKED: REMARK  status: ('A' for Active; 'I' for Inactive)
DOCKED: REMARK    1  A    between atoms: C_2  and  C_19 
DOCKED: REMARK    2  A    between atoms: C_2  and  C_11 
DOCKED: REMARK    3  A    between atoms: C_19  and  C_20 
DOCKED: REMARK    4  A    between atoms: C_20  and  C_21 
DOCKED: REMARK    5  A    between atoms: C_21  and  N_22 
DOCKED: USER                              x       y       z     vdW  Elec       q    Type
DOCKED: USER                           _______ _______ _______ _____ _____    ______ ____
DOCKED: ROOT
DOCKED: ATOM      1  O   UNL     1     -36.734 -15.324  11.619 -0.06 -0.00    -0.346 OA 
DOCKED: ATOM      2  C   UNL     1     -37.971 -14.712  11.130 -0.13 +0.00    +0.130 C  
DOCKED: ATOM      3  C   UNL     1     -38.723 -15.860  10.521 -0.23 +0.00    +0.004 A  
DOCKED: ATOM      4  C   UNL     1     -38.030 -17.042  10.742 -0.23 +0.00    +0.006 A  
DOCKED: ATOM      5  C   UNL     1     -36.796 -16.765  11.510 -0.14 +0.00    +0.169 C  
DOCKED: ATOM      6  C   UNL     1     -39.930 -15.860   9.838 -0.27 -0.00    -0.001 A  
DOCKED: ATOM      7  C   UNL     1     -38.514 -18.257  10.286 -0.33 +0.00    +0.008 A  
DOCKED: ATOM      8  C   UNL     1     -40.429 -17.077   9.368 -0.29 +0.00    +0.010 A  
DOCKED: ATOM      9  C   UNL     1     -39.724 -18.269   9.592 -0.31 +0.00    +0.068 A  
DOCKED: ATOM     10  N   UNL     1     -40.680 -20.510   8.711 -2.61 -0.00    -0.191 NA 
DOCKED: ATOM     11  C   UNL     1     -40.251 -19.505   9.105 -0.31 +0.00    +0.101 C  
DOCKED: ENDROOT
DOCKED: BRANCH   2  12
DOCKED: ATOM     12  C   UNL     1     -38.700 -14.085  12.312 -0.05 +0.00    +0.038 C  
DOCKED: BRANCH  12  13
DOCKED: ATOM     13  C   UNL     1     -38.694 -15.012  13.526 -0.03 +0.00    +0.038 C  
DOCKED: BRANCH  13  14
DOCKED: ATOM     14  C   UNL     1     -37.569 -14.645  14.492 -0.00 +0.00    +0.251 C  
DOCKED: BRANCH  14  15
DOCKED: ATOM     15  N   UNL     1     -37.157 -15.814  15.258 -0.01 +0.00    +0.141 N  
DOCKED: ATOM     16  C   UNL     1     -35.983 -15.508  16.077 -0.00 +0.00    +0.285 C  
DOCKED: ATOM     17  C   UNL     1     -38.254 -16.290  16.103 -0.00 +0.00    +0.285 C  
DOCKED: ENDBRANCH  14  15
DOCKED: ENDBRANCH  13  14
DOCKED: ENDBRANCH  12  13
DOCKED: ENDBRANCH   2  12
DOCKED: BRANCH   2  18
DOCKED: ATOM     18  C   UNL     1     -37.579 -13.678  10.128 -0.15 +0.00    +0.006 A  
DOCKED: ATOM     19  C   UNL     1     -36.421 -13.846   9.370 -0.15 +0.00    +0.001 A  
DOCKED: ATOM     20  C   UNL     1     -36.056 -12.878   8.434 -0.13 +0.00    +0.029 A  
DOCKED: ATOM     21  C   UNL     1     -36.848 -11.745   8.256 -0.07 +0.00    +0.140 A  
DOCKED: ATOM     22  C   UNL     1     -38.007 -11.578   9.015 -0.10 +0.00    +0.029 A  
DOCKED: ATOM     23  F   UNL     1     -36.498 -10.816   7.357 -0.01 -0.00    -0.204 F  
DOCKED: ATOM     24  C   UNL     1     -38.373 -12.545   9.952 -0.12 +0.00    +0.001 A  
DOCKED: ENDBRANCH   2  18
DOCKED: TORSDOF 5
DOCKED: TER
DOCKED: ENDMDL
________________________________________________________________________________


    FINAL DOCKED STATE:
    ________________________


Run:   499 / 512
Time taken for this run:   0.002s

DOCKED: MODEL        499
DOCKED: USER    Run = 499
DOCKED: USER
DOCKED: USER    Estimated Free Energy of Binding    =  -3.95 kcal/mol  [=(1)+(2)+(3)-(4)]
DOCKED: USER
DOCKED: USER    (1) Final Intermolecular Energy     =  -5.44 kcal/mol
DOCKED: USER        vdW + Hbond + desolv Energy     =  -5.44 kcal/mol
DOCKED: USER        Electrostatic Energy            =  +0.00 kcal/mol
DOCKED: USER        Moving Ligand-Fixed Receptor    =  -5.44 kcal/mol
DOCKED: USER        Moving Ligand-Moving Receptor   =  +0.00 kcal/mol
DOCKED: USER    (2) Final Total Internal Energy     =  -1.10 kcal/mol
DOCKED: USER    (3) Torsional Free Energy           =  +1.49 kcal/mol
DOCKED: USER    (4) Unbound System's Energy         =  -1.10 kcal/mol
DOCKED: USER
DOCKED: USER
DOCKED: REMARK  5 active torsions:
DOCKED: REMARK  status: ('A' for Active; 'I' for Inactive)
DOCKED: REMARK    1  A    between atoms: C_2  and  C_19 
DOCKED: REMARK    2  A    between atoms: C_2  and  C_11 
DOCKED: REMARK    3  A    between atoms: C_19  and  C_20 
DOCKED: REMARK    4  A    between atoms: C_20  and  C_21 
DOCKED: REMARK    5  A    between atoms: C_21  and  N_22 
DOCKED: USER                              x       y       z     vdW  Elec       q    Type
DOCKED: USER                           _______ _______ _______ _____ _____    ______ ____
DOCKED: ROOT
DOCKED: ATOM      1  O   UNL     1     -38.527 -15.420  12.916 -0.01 -0.00    -0.346 OA 
DOCKED: ATOM      2  C   UNL     1     -38.560 -14.832  11.576 -0.09 +0.00    +0.130 C  
DOCKED: ATOM      3  C   UNL     1     -38.999 -15.967  10.697 -0.22 +0.00    +0.004 A  
DOCKED: ATOM      4  C   UNL     1     -39.298 -17.074  11.477 -0.16 +0.00    +0.006 A  
DOCKED: ATOM      5  C   UNL     1     -39.093 -16.751  12.907 -0.06 +0.00    +0.169 C  
DOCKED: ATOM      6  C   UNL     1     -39.135 -16.012   9.317 -0.20 -0.00    -0.001 A  
DOCKED: ATOM      7  C   UNL     1     -39.736 -18.259  10.910 -0.24 +0.00    +0.008 A  
DOCKED: ATOM      8  C   UNL     1     -39.571 -17.200   8.729 -0.33 +0.00    +0.010 A  
DOCKED: ATOM      9  C   UNL     1     -39.870 -18.318   9.522 -0.31 +0.00    +0.068 A  
DOCKED: ATOM     10  N   UNL     1     -40.682 -20.508   8.400 -2.41 -0.00    -0.191 NA 
DOCKED: ATOM     11  C   UNL     1     -40.317 -19.526   8.904 -0.37 +0.00    +0.101 C  
DOCKED: ENDROOT
DOCKED: BRANCH   2  12
DOCKED: ATOM     12  C   UNL     1     -39.546 -13.670  11.583 -0.09 +0.00    +0.038 C  
DOCKED: BRANCH  12  13
DOCKED: ATOM     13  C   UNL     1     -40.755 -13.971  12.468 -0.05 +0.00    +0.038 C  
DOCKED: BRANCH  13  14
DOCKED: ATOM     14  C   UNL     1     -41.729 -14.914  11.765 -0.05 +0.00    +0.251 C  
DOCKED: BRANCH  14  15
DOCKED: ATOM     15  N   UNL     1     -42.913 -14.185  11.325 -0.10 +0.00    +0.141 N  
DOCKED: ATOM     16  C   UNL     1     -42.548 -13.135  10.372 -0.14 +0.00    +0.285 C  
DOCKED: ATOM     17  C   UNL     1     -43.888 -15.097  10.726 -0.13 +0.00    +0.285 C  
DOCKED: ENDBRANCH  14  15
DOCKED: ENDBRANCH  13  14
DOCKED: ENDBRANCH  12  13
DOCKED: ENDBRANCH   2  12
DOCKED: BRANCH   2  18
DOCKED: ATOM     18  C   UNL     1     -37.177 -14.362  11.272 -0.11 +0.00    +0.006 A  
DOCKED: ATOM     19  C   UNL     1     -36.952 -13.513  10.189 -0.13 +0.00    +0.001 A  
DOCKED: ATOM     20  C   UNL     1     -35.658 -13.074   9.906 -0.09 +0.00    +0.029 A  
DOCKED: ATOM     21  C   UNL     1     -34.592 -13.485  10.704 -0.05 +0.00    +0.140 A  
DOCKED: ATOM     22  C   UNL     1     -34.817 -14.335  11.787 -0.06 +0.00    +0.029 A  
DOCKED: ATOM     23  F   UNL     1     -33.350 -13.063  10.433 -0.00 -0.00    -0.204 F  
DOCKED: ATOM     24  C   UNL     1     -36.111 -14.774  12.071 -0.08 +0.00    +0.001 A  
DOCKED: ENDBRANCH   2  18
DOCKED: TORSDOF 5
DOCKED: TER
DOCKED: ENDMDL
________________________________________________________________________________


    FINAL DOCKED STATE:
    ________________________


Run:   500 / 512
Time taken for this run:   0.002s

DOCKED: MODEL        500
DOCKED: USER    Run = 500
DOCKED: USER
DOCKED: USER    Estimated Free Energy of Binding    =  -5.04 kcal/mol  [=(1)+(2)+(3)-(4)]
DOCKED: USER
DOCKED: USER    (1) Final Intermolecular Energy     =  -6.54 kcal/mol
DOCKED: USER        vdW + Hbond + desolv Energy     =  -6.54 kcal/mol
DOCKED: USER        Electrostatic Energy            =  +0.00 kcal/mol
DOCKED: USER        Moving Ligand-Fixed Receptor    =  -6.54 kcal/mol
DOCKED: USER        Moving Ligand-Moving Receptor   =  +0.00 kcal/mol
DOCKED: USER    (2) Final Total Internal Energy     =  -1.12 kcal/mol
DOCKED: USER    (3) Torsional Free Energy           =  +1.49 kcal/mol
DOCKED: USER    (4) Unbound System's Energy         =  -1.12 kcal/mol
DOCKED: USER
DOCKED: USER
DOCKED: REMARK  5 active torsions:
DOCKED: REMARK  status: ('A' for Active; 'I' for Inactive)
DOCKED: REMARK    1  A    between atoms: C_2  and  C_19 
DOCKED: REMARK    2  A    between atoms: C_2  and  C_11 
DOCKED: REMARK    3  A    between atoms: C_19  and  C_20 
DOCKED: REMARK    4  A    between atoms: C_20  and  C_21 
DOCKED: REMARK    5  A    between atoms: C_21  and  N_22 
DOCKED: USER                              x       y       z     vdW  Elec       q    Type
DOCKED: USER                           _______ _______ _______ _____ _____    ______ ____
DOCKED: ROOT
DOCKED: ATOM      1  O   UNL     1     -36.969 -10.411   4.308 -0.09 -0.00    -0.346 OA 
DOCKED: ATOM      2  C   UNL     1     -35.673 -10.289   3.639 -0.17 +0.00    +0.130 C  
DOCKED: ATOM      3  C   UNL     1     -35.991  -9.555   2.369 -0.26 +0.00    +0.004 A  
DOCKED: ATOM      4  C   UNL     1     -37.330  -9.191   2.363 -0.26 +0.00    +0.006 A  
DOCKED: ATOM      5  C   UNL     1     -37.979  -9.642   3.615 -0.17 +0.00    +0.169 C  
DOCKED: ATOM      6  C   UNL     1     -35.159  -9.225   1.309 -0.21 -0.00    -0.001 A  
DOCKED: ATOM      7  C   UNL     1     -37.883  -8.494   1.302 -0.35 +0.00    +0.008 A  
DOCKED: ATOM      8  C   UNL     1     -35.702  -8.525   0.230 -0.27 +0.00    +0.010 A  
DOCKED: ATOM      9  C   UNL     1     -37.057  -8.161   0.227 -0.26 +0.00    +0.068 A  
DOCKED: ATOM     10  N   UNL     1     -38.032  -6.859  -1.789 -2.47 -0.00    -0.191 NA 
DOCKED: ATOM     11  C   UNL     1     -37.595  -7.444  -0.885 -0.37 +0.00    +0.101 C  
DOCKED: ENDROOT
DOCKED: BRANCH   2  12
DOCKED: ATOM     12  C   UNL     1     -34.730  -9.514   4.552 -0.16 +0.00    +0.038 C  
DOCKED: BRANCH  12  13
DOCKED: ATOM     13  C   UNL     1     -35.161  -9.617   6.014 -0.15 +0.00    +0.038 C  
DOCKED: BRANCH  13  14
DOCKED: ATOM     14  C   UNL     1     -36.116  -8.485   6.386 -0.10 +0.00    +0.251 C  
DOCKED: BRANCH  14  15
DOCKED: ATOM     15  N   UNL     1     -36.523  -8.603   7.782 -0.11 +0.00    +0.141 N  
DOCKED: ATOM     16  C   UNL     1     -37.091  -7.342   8.262 -0.12 +0.00    +0.285 C  
DOCKED: ATOM     17  C   UNL     1     -37.489  -9.690   7.946 -0.05 +0.00    +0.285 C  
DOCKED: ENDBRANCH  14  15
DOCKED: ENDBRANCH  13  14
DOCKED: ENDBRANCH  12  13
DOCKED: ENDBRANCH   2  12
DOCKED: BRANCH   2  18
DOCKED: ATOM     18  C   UNL     1     -35.173 -11.675   3.400 -0.13 +0.00    +0.006 A  
DOCKED: ATOM     19  C   UNL     1     -35.782 -12.755   4.038 -0.20 +0.00    +0.001 A  
DOCKED: ATOM     20  C   UNL     1     -35.313 -14.050   3.814 -0.22 +0.00    +0.029 A  
DOCKED: ATOM     21  C   UNL     1     -34.237 -14.263   2.953 -0.16 +0.00    +0.140 A  
DOCKED: ATOM     22  C   UNL     1     -33.629 -13.182   2.315 -0.11 +0.00    +0.029 A  
DOCKED: ATOM     23  F   UNL     1     -33.789 -15.506   2.737 -0.06 -0.00    -0.204 F  
DOCKED: ATOM     24  C   UNL     1     -34.097 -11.886   2.539 -0.09 +0.00    +0.001 A  
DOCKED: ENDBRANCH   2  18
DOCKED: TORSDOF 5
DOCKED: TER
DOCKED: ENDMDL
________________________________________________________________________________


    FINAL DOCKED STATE:
    ________________________


Run:   501 / 512
Time taken for this run:   0.002s

DOCKED: MODEL        501
DOCKED: USER    Run = 501
DOCKED: USER
DOCKED: USER    Estimated Free Energy of Binding    =  -5.64 kcal/mol  [=(1)+(2)+(3)-(4)]
DOCKED: USER
DOCKED: USER    (1) Final Intermolecular Energy     =  -7.13 kcal/mol
DOCKED: USER        vdW + Hbond + desolv Energy     =  -7.13 kcal/mol
DOCKED: USER        Electrostatic Energy            =  +0.00 kcal/mol
DOCKED: USER        Moving Ligand-Fixed Receptor    =  -7.13 kcal/mol
DOCKED: USER        Moving Ligand-Moving Receptor   =  +0.00 kcal/mol
DOCKED: USER    (2) Final Total Internal Energy     =  -1.29 kcal/mol
DOCKED: USER    (3) Torsional Free Energy           =  +1.49 kcal/mol
DOCKED: USER    (4) Unbound System's Energy         =  -1.29 kcal/mol
DOCKED: USER
DOCKED: USER
DOCKED: REMARK  5 active torsions:
DOCKED: REMARK  status: ('A' for Active; 'I' for Inactive)
DOCKED: REMARK    1  A    between atoms: C_2  and  C_19 
DOCKED: REMARK    2  A    between atoms: C_2  and  C_11 
DOCKED: REMARK    3  A    between atoms: C_19  and  C_20 
DOCKED: REMARK    4  A    between atoms: C_20  and  C_21 
DOCKED: REMARK    5  A    between atoms: C_21  and  N_22 
DOCKED: USER                              x       y       z     vdW  Elec       q    Type
DOCKED: USER                           _______ _______ _______ _____ _____    ______ ____
DOCKED: ROOT
DOCKED: ATOM      1  O   UNL     1     -37.883 -19.355  11.375 -0.13 -0.00    -0.346 OA 
DOCKED: ATOM      2  C   UNL     1     -38.925 -18.332  11.467 -0.22 +0.00    +0.130 C  
DOCKED: ATOM      3  C   UNL     1     -39.597 -18.381  10.126 -0.32 +0.00    +0.004 A  
DOCKED: ATOM      4  C   UNL     1     -39.061 -19.416   9.372 -0.41 +0.00    +0.006 A  
DOCKED: ATOM      5  C   UNL     1     -38.022 -20.121  10.156 -0.33 +0.00    +0.169 C  
DOCKED: ATOM      6  C   UNL     1     -40.610 -17.582   9.617 -0.30 -0.00    -0.001 A  
DOCKED: ATOM      7  C   UNL     1     -39.512 -19.684   8.091 -0.42 +0.00    +0.008 A  
DOCKED: ATOM      8  C   UNL     1     -41.073 -17.836   8.325 -0.19 +0.00    +0.010 A  
DOCKED: ATOM      9  C   UNL     1     -40.527 -18.883   7.566 -0.44 +0.00    +0.068 A  
DOCKED: ATOM     10  N   UNL     1     -41.413 -19.331   5.173 -2.65 -0.00    -0.191 NA 
DOCKED: ATOM     11  C   UNL     1     -41.015 -19.130   6.246 -0.34 +0.00    +0.101 C  
DOCKED: ENDROOT
DOCKED: BRANCH   2  12
DOCKED: ATOM     12  C   UNL     1     -39.861 -18.697  12.613 -0.21 +0.00    +0.038 C  
DOCKED: BRANCH  12  13
DOCKED: ATOM     13  C   UNL     1     -40.872 -19.760  12.189 -0.27 +0.00    +0.038 C  
DOCKED: BRANCH  13  14
DOCKED: ATOM     14  C   UNL     1     -42.301 -19.229  12.288 -0.10 +0.00    +0.251 C  
DOCKED: BRANCH  14  15
DOCKED: ATOM     15  N   UNL     1     -43.113 -19.751  11.195 -0.15 +0.00    +0.141 N  
DOCKED: ATOM     16  C   UNL     1     -44.028 -20.785  11.680 -0.15 +0.00    +0.285 C  
DOCKED: ATOM     17  C   UNL     1     -43.863 -18.672  10.549 +0.07 +0.00    +0.285 C  
DOCKED: ENDBRANCH  14  15
DOCKED: ENDBRANCH  13  14
DOCKED: ENDBRANCH  12  13
DOCKED: ENDBRANCH   2  12
DOCKED: BRANCH   2  18
DOCKED: ATOM     18  C   UNL     1     -38.239 -17.032  11.726 -0.18 +0.00    +0.006 A  
DOCKED: ATOM     19  C   UNL     1     -37.572 -16.378  10.690 -0.10 +0.00    +0.001 A  
DOCKED: ATOM     20  C   UNL     1     -36.930 -15.163  10.934 -0.14 +0.00    +0.029 A  
DOCKED: ATOM     21  C   UNL     1     -36.956 -14.604  12.211 -0.04 +0.00    +0.140 A  
DOCKED: ATOM     22  C   UNL     1     -37.623 -15.259  13.246 -0.04 +0.00    +0.029 A  
DOCKED: ATOM     23  F   UNL     1     -36.341 -13.437  12.443 -0.00 -0.00    -0.204 F  
DOCKED: ATOM     24  C   UNL     1     -38.265 -16.475  13.003 -0.08 +0.00    +0.001 A  
DOCKED: ENDBRANCH   2  18
DOCKED: TORSDOF 5
DOCKED: TER
DOCKED: ENDMDL
________________________________________________________________________________


    FINAL DOCKED STATE:
    ________________________


Run:   502 / 512
Time taken for this run:   0.002s

DOCKED: MODEL        502
DOCKED: USER    Run = 502
DOCKED: USER
DOCKED: USER    Estimated Free Energy of Binding    =  -6.57 kcal/mol  [=(1)+(2)+(3)-(4)]
DOCKED: USER
DOCKED: USER    (1) Final Intermolecular Energy     =  -8.06 kcal/mol
DOCKED: USER        vdW + Hbond + desolv Energy     =  -8.06 kcal/mol
DOCKED: USER        Electrostatic Energy            =  +0.00 kcal/mol
DOCKED: USER        Moving Ligand-Fixed Receptor    =  -8.06 kcal/mol
DOCKED: USER        Moving Ligand-Moving Receptor   =  +0.00 kcal/mol
DOCKED: USER    (2) Final Total Internal Energy     =  -1.04 kcal/mol
DOCKED: USER    (3) Torsional Free Energy           =  +1.49 kcal/mol
DOCKED: USER    (4) Unbound System's Energy         =  -1.04 kcal/mol
DOCKED: USER
DOCKED: USER
DOCKED: REMARK  5 active torsions:
DOCKED: REMARK  status: ('A' for Active; 'I' for Inactive)
DOCKED: REMARK    1  A    between atoms: C_2  and  C_19 
DOCKED: REMARK    2  A    between atoms: C_2  and  C_11 
DOCKED: REMARK    3  A    between atoms: C_19  and  C_20 
DOCKED: REMARK    4  A    between atoms: C_20  and  C_21 
DOCKED: REMARK    5  A    between atoms: C_21  and  N_22 
DOCKED: USER                              x       y       z     vdW  Elec       q    Type
DOCKED: USER                           _______ _______ _______ _____ _____    ______ ____
DOCKED: ROOT
DOCKED: ATOM      1  O   UNL     1     -38.186 -19.943  10.935 -0.52 -0.00    -0.346 OA 
DOCKED: ATOM      2  C   UNL     1     -39.384 -19.132  11.154 -0.27 +0.00    +0.130 C  
DOCKED: ATOM      3  C   UNL     1     -39.966 -18.973   9.779 -0.35 +0.00    +0.004 A  
DOCKED: ATOM      4  C   UNL     1     -39.229 -19.719   8.871 -0.40 +0.00    +0.006 A  
DOCKED: ATOM      5  C   UNL     1     -38.132 -20.424   9.572 -0.15 +0.00    +0.169 C  
DOCKED: ATOM      6  C   UNL     1     -41.067 -18.236   9.368 -0.31 -0.00    -0.001 A  
DOCKED: ATOM      7  C   UNL     1     -39.561 -19.751   7.527 -0.37 +0.00    +0.008 A  
DOCKED: ATOM      8  C   UNL     1     -41.412 -18.255   8.015 -0.33 +0.00    +0.010 A  
DOCKED: ATOM      9  C   UNL     1     -40.663 -19.009   7.100 -0.46 +0.00    +0.068 A  
DOCKED: ATOM     10  N   UNL     1     -41.334 -19.026   4.597 -3.27 -0.00    -0.191 NA 
DOCKED: ATOM     11  C   UNL     1     -41.033 -19.018   5.720 -0.29 +0.00    +0.101 C  
DOCKED: ENDROOT
DOCKED: BRANCH   2  12
DOCKED: ATOM     12  C   UNL     1     -40.308 -19.882  12.106 -0.27 +0.00    +0.038 C  
DOCKED: BRANCH  12  13
DOCKED: ATOM     13  C   UNL     1     -40.787 -18.981  13.243 -0.19 +0.00    +0.038 C  
DOCKED: BRANCH  13  14
DOCKED: ATOM     14  C   UNL     1     -40.426 -19.573  14.604 -0.06 +0.00    +0.251 C  
DOCKED: BRANCH  14  15
DOCKED: ATOM     15  N   UNL     1     -39.950 -18.528  15.502 -0.06 +0.00    +0.141 N  
DOCKED: ATOM     16  C   UNL     1     -40.698 -18.548  16.760 -0.02 +0.00    +0.285 C  
DOCKED: ATOM     17  C   UNL     1     -38.518 -18.684  15.761 -0.06 +0.00    +0.285 C  
DOCKED: ENDBRANCH  14  15
DOCKED: ENDBRANCH  13  14
DOCKED: ENDBRANCH  12  13
DOCKED: ENDBRANCH   2  12
DOCKED: BRANCH   2  18
DOCKED: ATOM     18  C   UNL     1     -38.933 -17.839  11.748 -0.19 +0.00    +0.006 A  
DOCKED: ATOM     19  C   UNL     1     -37.725 -17.775  12.442 -0.18 +0.00    +0.001 A  
DOCKED: ATOM     20  C   UNL     1     -37.305 -16.566  12.997 -0.10 +0.00    +0.029 A  
DOCKED: ATOM     21  C   UNL     1     -38.092 -15.423  12.856 -0.03 +0.00    +0.140 A  
DOCKED: ATOM     22  C   UNL     1     -39.299 -15.488  12.162 -0.07 +0.00    +0.029 A  
DOCKED: ATOM     23  F   UNL     1     -37.687 -14.262  13.388 +0.00 -0.00    -0.204 F  
DOCKED: ATOM     24  C   UNL     1     -39.721 -16.698  11.607 -0.13 +0.00    +0.001 A  
DOCKED: ENDBRANCH   2  18
DOCKED: TORSDOF 5
DOCKED: TER
DOCKED: ENDMDL
________________________________________________________________________________


    FINAL DOCKED STATE:
    ________________________


Run:   503 / 512
Time taken for this run:   0.002s

DOCKED: MODEL        503
DOCKED: USER    Run = 503
DOCKED: USER
DOCKED: USER    Estimated Free Energy of Binding    =  -4.38 kcal/mol  [=(1)+(2)+(3)-(4)]
DOCKED: USER
DOCKED: USER    (1) Final Intermolecular Energy     =  -5.87 kcal/mol
DOCKED: USER        vdW + Hbond + desolv Energy     =  -5.87 kcal/mol
DOCKED: USER        Electrostatic Energy            =  +0.00 kcal/mol
DOCKED: USER        Moving Ligand-Fixed Receptor    =  -5.87 kcal/mol
DOCKED: USER        Moving Ligand-Moving Receptor   =  +0.00 kcal/mol
DOCKED: USER    (2) Final Total Internal Energy     =  -1.08 kcal/mol
DOCKED: USER    (3) Torsional Free Energy           =  +1.49 kcal/mol
DOCKED: USER    (4) Unbound System's Energy         =  -1.08 kcal/mol
DOCKED: USER
DOCKED: USER
DOCKED: REMARK  5 active torsions:
DOCKED: REMARK  status: ('A' for Active; 'I' for Inactive)
DOCKED: REMARK    1  A    between atoms: C_2  and  C_19 
DOCKED: REMARK    2  A    between atoms: C_2  and  C_11 
DOCKED: REMARK    3  A    between atoms: C_19  and  C_20 
DOCKED: REMARK    4  A    between atoms: C_20  and  C_21 
DOCKED: REMARK    5  A    between atoms: C_21  and  N_22 
DOCKED: USER                              x       y       z     vdW  Elec       q    Type
DOCKED: USER                           _______ _______ _______ _____ _____    ______ ____
DOCKED: ROOT
DOCKED: ATOM      1  O   UNL     1     -38.924 -13.779  10.172 -0.08 -0.00    -0.346 OA 
DOCKED: ATOM      2  C   UNL     1     -40.172 -14.049  10.888 -0.15 +0.00    +0.130 C  
DOCKED: ATOM      3  C   UNL     1     -40.503 -15.464  10.512 -0.21 +0.00    +0.004 A  
DOCKED: ATOM      4  C   UNL     1     -39.480 -15.994   9.739 -0.28 +0.00    +0.006 A  
DOCKED: ATOM      5  C   UNL     1     -38.410 -14.986   9.563 -0.14 +0.00    +0.169 C  
DOCKED: ATOM      6  C   UNL     1     -41.617 -16.225  10.837 -0.18 -0.00    -0.001 A  
DOCKED: ATOM      7  C   UNL     1     -39.535 -17.293   9.263 -0.35 +0.00    +0.008 A  
DOCKED: ATOM      8  C   UNL     1     -41.689 -17.535  10.361 -0.21 +0.00    +0.010 A  
DOCKED: ATOM      9  C   UNL     1     -40.653 -18.066   9.579 -0.26 +0.00    +0.068 A  
DOCKED: ATOM     10  N   UNL     1     -40.816 -20.504   8.716 -2.59 -0.00    -0.191 NA 
DOCKED: ATOM     11  C   UNL     1     -40.743 -19.410   9.102 -0.35 +0.00    +0.101 C  
DOCKED: ENDROOT
DOCKED: BRANCH   2  12
DOCKED: ATOM     12  C   UNL     1     -39.919 -13.875  12.381 -0.05 +0.00    +0.038 C  
DOCKED: BRANCH  12  13
DOCKED: ATOM     13  C   UNL     1     -41.110 -14.356  13.207 -0.03 +0.00    +0.038 C  
DOCKED: BRANCH  13  14
DOCKED: ATOM     14  C   UNL     1     -41.915 -13.176  13.749 -0.00 +0.00    +0.251 C  
DOCKED: BRANCH  14  15
DOCKED: ATOM     15  N   UNL     1     -43.217 -13.626  14.224 -0.01 +0.00    +0.141 N  
DOCKED: ATOM     16  C   UNL     1     -44.032 -14.117  13.111 -0.00 +0.00    +0.285 C  
DOCKED: ATOM     17  C   UNL     1     -43.064 -14.670  15.239 +0.00 +0.00    +0.285 C  
DOCKED: ENDBRANCH  14  15
DOCKED: ENDBRANCH  13  14
DOCKED: ENDBRANCH  12  13
DOCKED: ENDBRANCH   2  12
DOCKED: BRANCH   2  18
DOCKED: ATOM     18  C   UNL     1     -41.179 -13.064  10.395 -0.20 +0.00    +0.006 A  
DOCKED: ATOM     19  C   UNL     1     -42.489 -13.473  10.148 -0.23 +0.00    +0.001 A  
DOCKED: ATOM     20  C   UNL     1     -43.430 -12.551   9.687 -0.15 +0.00    +0.029 A  
DOCKED: ATOM     21  C   UNL     1     -43.060 -11.224   9.474 -0.12 +0.00    +0.140 A  
DOCKED: ATOM     22  C   UNL     1     -41.750 -10.816   9.721 -0.13 +0.00    +0.029 A  
DOCKED: ATOM     23  F   UNL     1     -43.964 -10.339   9.033 -0.02 -0.00    -0.204 F  
DOCKED: ATOM     24  C   UNL     1     -40.807 -11.737  10.182 -0.15 +0.00    +0.001 A  
DOCKED: ENDBRANCH   2  18
DOCKED: TORSDOF 5
DOCKED: TER
DOCKED: ENDMDL
________________________________________________________________________________


    FINAL DOCKED STATE:
    ________________________


Run:   504 / 512
Time taken for this run:   0.002s

DOCKED: MODEL        504
DOCKED: USER    Run = 504
DOCKED: USER
DOCKED: USER    Estimated Free Energy of Binding    =  -4.42 kcal/mol  [=(1)+(2)+(3)-(4)]
DOCKED: USER
DOCKED: USER    (1) Final Intermolecular Energy     =  -5.91 kcal/mol
DOCKED: USER        vdW + Hbond + desolv Energy     =  -5.91 kcal/mol
DOCKED: USER        Electrostatic Energy            =  +0.00 kcal/mol
DOCKED: USER        Moving Ligand-Fixed Receptor    =  -5.91 kcal/mol
DOCKED: USER        Moving Ligand-Moving Receptor   =  +0.00 kcal/mol
DOCKED: USER    (2) Final Total Internal Energy     =  -0.96 kcal/mol
DOCKED: USER    (3) Torsional Free Energy           =  +1.49 kcal/mol
DOCKED: USER    (4) Unbound System's Energy         =  -0.96 kcal/mol
DOCKED: USER
DOCKED: USER
DOCKED: REMARK  5 active torsions:
DOCKED: REMARK  status: ('A' for Active; 'I' for Inactive)
DOCKED: REMARK    1  A    between atoms: C_2  and  C_19 
DOCKED: REMARK    2  A    between atoms: C_2  and  C_11 
DOCKED: REMARK    3  A    between atoms: C_19  and  C_20 
DOCKED: REMARK    4  A    between atoms: C_20  and  C_21 
DOCKED: REMARK    5  A    between atoms: C_21  and  N_22 
DOCKED: USER                              x       y       z     vdW  Elec       q    Type
DOCKED: USER                           _______ _______ _______ _____ _____    ______ ____
DOCKED: ROOT
DOCKED: ATOM      1  O   UNL     1     -30.957 -15.273   3.734 +0.01 -0.00    -0.346 OA 
DOCKED: ATOM      2  C   UNL     1     -32.417 -15.209   3.656 -0.08 +0.00    +0.130 C  
DOCKED: ATOM      3  C   UNL     1     -32.871 -16.425   4.410 -0.16 +0.00    +0.004 A  
DOCKED: ATOM      4  C   UNL     1     -31.773 -17.068   4.964 -0.10 +0.00    +0.006 A  
DOCKED: ATOM      5  C   UNL     1     -30.536 -16.326   4.632 -0.02 +0.00    +0.169 C  
DOCKED: ATOM      6  C   UNL     1     -34.154 -16.918   4.599 -0.27 -0.00    -0.001 A  
DOCKED: ATOM      7  C   UNL     1     -31.917 -18.220   5.718 -0.17 +0.00    +0.008 A  
DOCKED: ATOM      8  C   UNL     1     -34.316 -18.081   5.354 -0.23 +0.00    +0.010 A  
DOCKED: ATOM      9  C   UNL     1     -33.203 -18.728   5.911 -0.30 +0.00    +0.068 A  
DOCKED: ATOM     10  N   UNL     1     -33.538 -20.882   7.311 -2.58 -0.00    -0.191 NA 
DOCKED: ATOM     11  C   UNL     1     -33.387 -19.917   6.682 -0.33 +0.00    +0.101 C  
DOCKED: ENDROOT
DOCKED: BRANCH   2  12
DOCKED: ATOM     12  C   UNL     1     -32.878 -13.906   4.299 -0.06 +0.00    +0.038 C  
DOCKED: BRANCH  12  13
DOCKED: ATOM     13  C   UNL     1     -33.876 -14.164   5.427 -0.13 +0.00    +0.038 C  
DOCKED: BRANCH  13  14
DOCKED: ATOM     14  C   UNL     1     -35.252 -13.595   5.084 -0.14 +0.00    +0.251 C  
DOCKED: BRANCH  14  15
DOCKED: ATOM     15  N   UNL     1     -35.160 -12.160   4.838 -0.07 +0.00    +0.141 N  
DOCKED: ATOM     16  C   UNL     1     -35.665 -11.832   3.504 -0.11 +0.00    +0.285 C  
DOCKED: ATOM     17  C   UNL     1     -35.898 -11.414   5.858 -0.06 +0.00    +0.285 C  
DOCKED: ENDBRANCH  14  15
DOCKED: ENDBRANCH  13  14
DOCKED: ENDBRANCH  12  13
DOCKED: ENDBRANCH   2  12
DOCKED: BRANCH   2  18
DOCKED: ATOM     18  C   UNL     1     -32.779 -15.252   2.209 -0.14 +0.00    +0.006 A  
DOCKED: ATOM     19  C   UNL     1     -33.642 -14.294   1.678 -0.19 +0.00    +0.001 A  
DOCKED: ATOM     20  C   UNL     1     -33.980 -14.336   0.324 -0.23 +0.00    +0.029 A  
DOCKED: ATOM     21  C   UNL     1     -33.455 -15.335  -0.495 -0.20 +0.00    +0.140 A  
DOCKED: ATOM     22  C   UNL     1     -32.593 -16.293   0.038 -0.15 +0.00    +0.029 A  
DOCKED: ATOM     23  F   UNL     1     -33.778 -15.374  -1.794 -0.09 -0.00    -0.204 F  
DOCKED: ATOM     24  C   UNL     1     -32.254 -16.252   1.391 -0.11 +0.00    +0.001 A  
DOCKED: ENDBRANCH   2  18
DOCKED: TORSDOF 5
DOCKED: TER
DOCKED: ENDMDL
________________________________________________________________________________


    FINAL DOCKED STATE:
    ________________________


Run:   505 / 512
Time taken for this run:   0.002s

DOCKED: MODEL        505
DOCKED: USER    Run = 505
DOCKED: USER
DOCKED: USER    Estimated Free Energy of Binding    =  -4.34 kcal/mol  [=(1)+(2)+(3)-(4)]
DOCKED: USER
DOCKED: USER    (1) Final Intermolecular Energy     =  -5.83 kcal/mol
DOCKED: USER        vdW + Hbond + desolv Energy     =  -5.83 kcal/mol
DOCKED: USER        Electrostatic Energy            =  +0.00 kcal/mol
DOCKED: USER        Moving Ligand-Fixed Receptor    =  -5.83 kcal/mol
DOCKED: USER        Moving Ligand-Moving Receptor   =  +0.00 kcal/mol
DOCKED: USER    (2) Final Total Internal Energy     =  -1.37 kcal/mol
DOCKED: USER    (3) Torsional Free Energy           =  +1.49 kcal/mol
DOCKED: USER    (4) Unbound System's Energy         =  -1.37 kcal/mol
DOCKED: USER
DOCKED: USER
DOCKED: REMARK  5 active torsions:
DOCKED: REMARK  status: ('A' for Active; 'I' for Inactive)
DOCKED: REMARK    1  A    between atoms: C_2  and  C_19 
DOCKED: REMARK    2  A    between atoms: C_2  and  C_11 
DOCKED: REMARK    3  A    between atoms: C_19  and  C_20 
DOCKED: REMARK    4  A    between atoms: C_20  and  C_21 
DOCKED: REMARK    5  A    between atoms: C_21  and  N_22 
DOCKED: USER                              x       y       z     vdW  Elec       q    Type
DOCKED: USER                           _______ _______ _______ _____ _____    ______ ____
DOCKED: ROOT
DOCKED: ATOM      1  O   UNL     1     -36.588 -16.034  12.101 -0.06 -0.00    -0.346 OA 
DOCKED: ATOM      2  C   UNL     1     -37.426 -15.229  11.211 -0.13 +0.00    +0.130 C  
DOCKED: ATOM      3  C   UNL     1     -38.281 -16.243  10.508 -0.23 +0.00    +0.004 A  
DOCKED: ATOM      4  C   UNL     1     -38.033 -17.505  11.028 -0.26 +0.00    +0.006 A  
DOCKED: ATOM      5  C   UNL     1     -37.021 -17.414  12.105 -0.16 +0.00    +0.169 C  
DOCKED: ATOM      6  C   UNL     1     -39.213 -16.061   9.496 -0.28 -0.00    -0.001 A  
DOCKED: ATOM      7  C   UNL     1     -38.699 -18.623  10.556 -0.34 +0.00    +0.008 A  
DOCKED: ATOM      8  C   UNL     1     -39.890 -17.179   9.007 -0.34 +0.00    +0.010 A  
DOCKED: ATOM      9  C   UNL     1     -39.635 -18.453   9.535 -0.32 +0.00    +0.068 A  
DOCKED: ATOM     10  N   UNL     1     -40.913 -20.507   8.606 -2.51 -0.00    -0.191 NA 
DOCKED: ATOM     11  C   UNL     1     -40.339 -19.586   9.022 -0.30 +0.00    +0.101 C  
DOCKED: ENDROOT
DOCKED: BRANCH   2  12
DOCKED: ATOM     12  C   UNL     1     -38.236 -14.256  12.060 -0.06 +0.00    +0.038 C  
DOCKED: BRANCH  12  13
DOCKED: ATOM     13  C   UNL     1     -39.695 -14.694  12.170 -0.07 +0.00    +0.038 C  
DOCKED: BRANCH  13  14
DOCKED: ATOM     14  C   UNL     1     -39.928 -15.516  13.436 -0.01 +0.00    +0.251 C  
DOCKED: BRANCH  14  15
DOCKED: ATOM     15  N   UNL     1     -40.552 -16.792  13.104 -0.03 +0.00    +0.141 N  
DOCKED: ATOM     16  C   UNL     1     -41.135 -17.407  14.297 -0.01 +0.00    +0.285 C  
DOCKED: ATOM     17  C   UNL     1     -41.576 -16.613  12.073 -0.02 +0.00    +0.285 C  
DOCKED: ENDBRANCH  14  15
DOCKED: ENDBRANCH  13  14
DOCKED: ENDBRANCH  12  13
DOCKED: ENDBRANCH   2  12
DOCKED: BRANCH   2  18
DOCKED: ATOM     18  C   UNL     1     -36.508 -14.501  10.287 -0.14 +0.00    +0.006 A  
DOCKED: ATOM     19  C   UNL     1     -35.131 -14.710  10.365 -0.07 +0.00    +0.001 A  
DOCKED: ATOM     20  C   UNL     1     -34.274 -14.028   9.501 -0.10 +0.00    +0.029 A  
DOCKED: ATOM     21  C   UNL     1     -34.793 -13.141   8.560 -0.08 +0.00    +0.140 A  
DOCKED: ATOM     22  C   UNL     1     -36.170 -12.933   8.481 -0.13 +0.00    +0.029 A  
DOCKED: ATOM     23  F   UNL     1     -33.970 -12.488   7.729 -0.00 -0.00    -0.204 F  
DOCKED: ATOM     24  C   UNL     1     -37.029 -13.614   9.346 -0.16 +0.00    +0.001 A  
DOCKED: ENDBRANCH   2  18
DOCKED: TORSDOF 5
DOCKED: TER
DOCKED: ENDMDL
________________________________________________________________________________


    FINAL DOCKED STATE:
    ________________________


Run:   506 / 512
Time taken for this run:   0.002s

DOCKED: MODEL        506
DOCKED: USER    Run = 506
DOCKED: USER
DOCKED: USER    Estimated Free Energy of Binding    =  -3.51 kcal/mol  [=(1)+(2)+(3)-(4)]
DOCKED: USER
DOCKED: USER    (1) Final Intermolecular Energy     =  -5.00 kcal/mol
DOCKED: USER        vdW + Hbond + desolv Energy     =  -5.00 kcal/mol
DOCKED: USER        Electrostatic Energy            =  +0.00 kcal/mol
DOCKED: USER        Moving Ligand-Fixed Receptor    =  -5.00 kcal/mol
DOCKED: USER        Moving Ligand-Moving Receptor   =  +0.00 kcal/mol
DOCKED: USER    (2) Final Total Internal Energy     =  -1.31 kcal/mol
DOCKED: USER    (3) Torsional Free Energy           =  +1.49 kcal/mol
DOCKED: USER    (4) Unbound System's Energy         =  -1.31 kcal/mol
DOCKED: USER
DOCKED: USER
DOCKED: REMARK  5 active torsions:
DOCKED: REMARK  status: ('A' for Active; 'I' for Inactive)
DOCKED: REMARK    1  A    between atoms: C_2  and  C_19 
DOCKED: REMARK    2  A    between atoms: C_2  and  C_11 
DOCKED: REMARK    3  A    between atoms: C_19  and  C_20 
DOCKED: REMARK    4  A    between atoms: C_20  and  C_21 
DOCKED: REMARK    5  A    between atoms: C_21  and  N_22 
DOCKED: USER                              x       y       z     vdW  Elec       q    Type
DOCKED: USER                           _______ _______ _______ _____ _____    ______ ____
DOCKED: ROOT
DOCKED: ATOM      1  O   UNL     1     -39.741 -15.085  11.485 -0.02 -0.00    -0.346 OA 
DOCKED: ATOM      2  C   UNL     1     -38.761 -15.788  10.656 -0.20 +0.00    +0.130 C  
DOCKED: ATOM      3  C   UNL     1     -39.573 -16.832   9.947 -0.30 +0.00    +0.004 A  
DOCKED: ATOM      4  C   UNL     1     -40.916 -16.670  10.257 -0.23 +0.00    +0.006 A  
DOCKED: ATOM      5  C   UNL     1     -41.085 -15.517  11.169 -0.12 +0.00    +0.169 C  
DOCKED: ATOM      6  C   UNL     1     -39.158 -17.838   9.087 -0.33 -0.00    -0.001 A  
DOCKED: ATOM      7  C   UNL     1     -41.885 -17.505   9.726 -0.25 +0.00    +0.008 A  
DOCKED: ATOM      8  C   UNL     1     -40.122 -18.691   8.546 -0.43 +0.00    +0.010 A  
DOCKED: ATOM      9  C   UNL     1     -41.479 -18.524   8.864 -0.29 +0.00    +0.068 A  
DOCKED: ATOM     10  N   UNL     1     -43.243 -20.121   7.839 -1.04 -0.00    -0.191 NA 
DOCKED: ATOM     11  C   UNL     1     -42.451 -19.405   8.299 -0.33 +0.00    +0.101 C  
DOCKED: ENDROOT
DOCKED: BRANCH   2  12
DOCKED: ATOM     12  C   UNL     1     -38.125 -14.783   9.704 -0.20 +0.00    +0.038 C  
DOCKED: BRANCH  12  13
DOCKED: ATOM     13  C   UNL     1     -38.420 -13.346  10.131 -0.16 +0.00    +0.038 C  
DOCKED: BRANCH  13  14
DOCKED: ATOM     14  C   UNL     1     -39.722 -12.844   9.510 -0.06 +0.00    +0.251 C  
DOCKED: BRANCH  14  15
DOCKED: ATOM     15  N   UNL     1     -40.361 -11.871  10.388 -0.09 +0.00    +0.141 N  
DOCKED: ATOM     16  C   UNL     1     -41.806 -11.836  10.155 -0.11 +0.00    +0.285 C  
DOCKED: ATOM     17  C   UNL     1     -40.080 -12.180  11.791 -0.02 +0.00    +0.285 C  
DOCKED: ENDBRANCH  14  15
DOCKED: ENDBRANCH  13  14
DOCKED: ENDBRANCH  12  13
DOCKED: ENDBRANCH   2  12
DOCKED: BRANCH   2  18
DOCKED: ATOM     18  C   UNL     1     -37.745 -16.370  11.582 -0.17 +0.00    +0.006 A  
DOCKED: ATOM     19  C   UNL     1     -36.406 -15.998  11.470 -0.13 +0.00    +0.001 A  
DOCKED: ATOM     20  C   UNL     1     -35.458 -16.544  12.335 -0.13 +0.00    +0.029 A  
DOCKED: ATOM     21  C   UNL     1     -35.849 -17.459  13.311 -0.09 +0.00    +0.140 A  
DOCKED: ATOM     22  C   UNL     1     -37.188 -17.831  13.423 -0.11 +0.00    +0.029 A  
DOCKED: ATOM     23  F   UNL     1     -34.938 -17.981  14.143 -0.03 -0.00    -0.204 F  
DOCKED: ATOM     24  C   UNL     1     -38.138 -17.286  12.557 -0.14 +0.00    +0.001 A  
DOCKED: ENDBRANCH   2  18
DOCKED: TORSDOF 5
DOCKED: TER
DOCKED: ENDMDL
________________________________________________________________________________


    FINAL DOCKED STATE:
    ________________________


Run:   507 / 512
Time taken for this run:   0.002s

DOCKED: MODEL        507
DOCKED: USER    Run = 507
DOCKED: USER
DOCKED: USER    Estimated Free Energy of Binding    =  -5.50 kcal/mol  [=(1)+(2)+(3)-(4)]
DOCKED: USER
DOCKED: USER    (1) Final Intermolecular Energy     =  -6.99 kcal/mol
DOCKED: USER        vdW + Hbond + desolv Energy     =  -6.99 kcal/mol
DOCKED: USER        Electrostatic Energy            =  +0.00 kcal/mol
DOCKED: USER        Moving Ligand-Fixed Receptor    =  -6.99 kcal/mol
DOCKED: USER        Moving Ligand-Moving Receptor   =  +0.00 kcal/mol
DOCKED: USER    (2) Final Total Internal Energy     =  -1.37 kcal/mol
DOCKED: USER    (3) Torsional Free Energy           =  +1.49 kcal/mol
DOCKED: USER    (4) Unbound System's Energy         =  -1.37 kcal/mol
DOCKED: USER
DOCKED: USER
DOCKED: REMARK  5 active torsions:
DOCKED: REMARK  status: ('A' for Active; 'I' for Inactive)
DOCKED: REMARK    1  A    between atoms: C_2  and  C_19 
DOCKED: REMARK    2  A    between atoms: C_2  and  C_11 
DOCKED: REMARK    3  A    between atoms: C_19  and  C_20 
DOCKED: REMARK    4  A    between atoms: C_20  and  C_21 
DOCKED: REMARK    5  A    between atoms: C_21  and  N_22 
DOCKED: USER                              x       y       z     vdW  Elec       q    Type
DOCKED: USER                           _______ _______ _______ _____ _____    ______ ____
DOCKED: ROOT
DOCKED: ATOM      1  O   UNL     1     -39.539 -16.242  11.295 -0.03 -0.00    -0.346 OA 
DOCKED: ATOM      2  C   UNL     1     -38.861 -17.538  11.259 -0.20 +0.00    +0.130 C  
DOCKED: ATOM      3  C   UNL     1     -39.293 -18.134   9.950 -0.34 +0.00    +0.004 A  
DOCKED: ATOM      4  C   UNL     1     -40.061 -17.214   9.250 -0.33 +0.00    +0.006 A  
DOCKED: ATOM      5  C   UNL     1     -40.177 -15.960  10.028 -0.22 +0.00    +0.169 C  
DOCKED: ATOM      6  C   UNL     1     -39.020 -19.385   9.418 -0.42 -0.00    -0.001 A  
DOCKED: ATOM      7  C   UNL     1     -40.582 -17.512   8.002 +0.03 +0.00    +0.008 A  
DOCKED: ATOM      8  C   UNL     1     -39.541 -19.702   8.162 -0.44 +0.00    +0.010 A  
DOCKED: ATOM      9  C   UNL     1     -40.318 -18.770   7.458 -0.45 +0.00    +0.068 A  
DOCKED: ATOM     10  N   UNL     1     -41.267 -19.389   5.128 -2.60 -0.00    -0.191 NA 
DOCKED: ATOM     11  C   UNL     1     -40.842 -19.111   6.173 -0.38 +0.00    +0.101 C  
DOCKED: ENDROOT
DOCKED: BRANCH   2  12
DOCKED: ATOM     12  C   UNL     1     -37.358 -17.299  11.335 -0.25 +0.00    +0.038 C  
DOCKED: BRANCH  12  13
DOCKED: ATOM     13  C   UNL     1     -37.043 -15.896  11.848 -0.15 +0.00    +0.038 C  
DOCKED: BRANCH  13  14
DOCKED: ATOM     14  C   UNL     1     -36.635 -14.971  10.702 -0.09 +0.00    +0.251 C  
DOCKED: BRANCH  14  15
DOCKED: ATOM     15  N   UNL     1     -37.221 -13.648  10.885 -0.07 +0.00    +0.141 N  
DOCKED: ATOM     16  C   UNL     1     -37.964 -13.243   9.690 -0.09 +0.00    +0.285 C  
DOCKED: ATOM     17  C   UNL     1     -38.098 -13.630  12.057 -0.02 +0.00    +0.285 C  
DOCKED: ENDBRANCH  14  15
DOCKED: ENDBRANCH  13  14
DOCKED: ENDBRANCH  12  13
DOCKED: ENDBRANCH   2  12
DOCKED: BRANCH   2  18
DOCKED: ATOM     18  C   UNL     1     -39.343 -18.315  12.439 -0.17 +0.00    +0.006 A  
DOCKED: ATOM     19  C   UNL     1     -38.425 -18.870  13.330 -0.16 +0.00    +0.001 A  
DOCKED: ATOM     20  C   UNL     1     -38.877 -19.596  14.432 -0.23 +0.00    +0.029 A  
DOCKED: ATOM     21  C   UNL     1     -40.245 -19.767  14.642 -0.04 +0.00    +0.140 A  
DOCKED: ATOM     22  C   UNL     1     -41.162 -19.212  13.750 -0.14 +0.00    +0.029 A  
DOCKED: ATOM     23  F   UNL     1     -40.678 -20.463  15.701 -0.03 -0.00    -0.204 F  
DOCKED: ATOM     24  C   UNL     1     -40.711 -18.485  12.647 -0.15 +0.00    +0.001 A  
DOCKED: ENDBRANCH   2  18
DOCKED: TORSDOF 5
DOCKED: TER
DOCKED: ENDMDL
________________________________________________________________________________


    FINAL DOCKED STATE:
    ________________________


Run:   508 / 512
Time taken for this run:   0.002s

DOCKED: MODEL        508
DOCKED: USER    Run = 508
DOCKED: USER
DOCKED: USER    Estimated Free Energy of Binding    =  -3.71 kcal/mol  [=(1)+(2)+(3)-(4)]
DOCKED: USER
DOCKED: USER    (1) Final Intermolecular Energy     =  -5.20 kcal/mol
DOCKED: USER        vdW + Hbond + desolv Energy     =  -5.20 kcal/mol
DOCKED: USER        Electrostatic Energy            =  +0.00 kcal/mol
DOCKED: USER        Moving Ligand-Fixed Receptor    =  -5.20 kcal/mol
DOCKED: USER        Moving Ligand-Moving Receptor   =  +0.00 kcal/mol
DOCKED: USER    (2) Final Total Internal Energy     =  -1.30 kcal/mol
DOCKED: USER    (3) Torsional Free Energy           =  +1.49 kcal/mol
DOCKED: USER    (4) Unbound System's Energy         =  -1.30 kcal/mol
DOCKED: USER
DOCKED: USER
DOCKED: REMARK  5 active torsions:
DOCKED: REMARK  status: ('A' for Active; 'I' for Inactive)
DOCKED: REMARK    1  A    between atoms: C_2  and  C_19 
DOCKED: REMARK    2  A    between atoms: C_2  and  C_11 
DOCKED: REMARK    3  A    between atoms: C_19  and  C_20 
DOCKED: REMARK    4  A    between atoms: C_20  and  C_21 
DOCKED: REMARK    5  A    between atoms: C_21  and  N_22 
DOCKED: USER                              x       y       z     vdW  Elec       q    Type
DOCKED: USER                           _______ _______ _______ _____ _____    ______ ____
DOCKED: ROOT
DOCKED: ATOM      1  O   UNL     1     -31.683  -5.429  -0.292 -0.02 -0.00    -0.346 OA 
DOCKED: ATOM      2  C   UNL     1     -32.259  -6.228   0.790 -0.06 +0.00    +0.130 C  
DOCKED: ATOM      3  C   UNL     1     -33.664  -6.495   0.332 -0.16 +0.00    +0.004 A  
DOCKED: ATOM      4  C   UNL     1     -33.841  -5.989  -0.948 -0.10 +0.00    +0.006 A  
DOCKED: ATOM      5  C   UNL     1     -32.583  -5.373  -1.424 -0.09 +0.00    +0.169 C  
DOCKED: ATOM      6  C   UNL     1     -34.698  -7.144   0.990 -0.21 -0.00    -0.001 A  
DOCKED: ATOM      7  C   UNL     1     -35.052  -6.109  -1.609 -0.13 +0.00    +0.008 A  
DOCKED: ATOM      8  C   UNL     1     -35.926  -7.269   0.339 -0.33 +0.00    +0.010 A  
DOCKED: ATOM      9  C   UNL     1     -36.102  -6.755  -0.954 -0.36 +0.00    +0.068 A  
DOCKED: ATOM     10  N   UNL     1     -38.393  -7.009  -2.136 -2.58 -0.00    -0.191 NA 
DOCKED: ATOM     11  C   UNL     1     -37.366  -6.894  -1.606 -0.29 +0.00    +0.101 C  
DOCKED: ENDROOT
DOCKED: BRANCH   2  12
DOCKED: ATOM     12  C   UNL     1     -31.433  -7.500   0.944 -0.03 +0.00    +0.038 C  
DOCKED: BRANCH  12  13
DOCKED: ATOM     13  C   UNL     1     -31.905  -8.589  -0.017 -0.03 +0.00    +0.038 C  
DOCKED: BRANCH  13  14
DOCKED: ATOM     14  C   UNL     1     -31.710  -9.978   0.589 -0.00 +0.00    +0.251 C  
DOCKED: BRANCH  14  15
DOCKED: ATOM     15  N   UNL     1     -32.864 -10.822   0.303 -0.03 +0.00    +0.141 N  
DOCKED: ATOM     16  C   UNL     1     -33.735 -10.921   1.475 -0.05 +0.00    +0.285 C  
DOCKED: ATOM     17  C   UNL     1     -33.612 -10.302  -0.843 -0.08 +0.00    +0.285 C  
DOCKED: ENDBRANCH  14  15
DOCKED: ENDBRANCH  13  14
DOCKED: ENDBRANCH  12  13
DOCKED: ENDBRANCH   2  12
DOCKED: BRANCH   2  18
DOCKED: ATOM     18  C   UNL     1     -32.200  -5.395   2.027 -0.11 +0.00    +0.006 A  
DOCKED: ATOM     19  C   UNL     1     -31.582  -5.892   3.173 -0.09 +0.00    +0.001 A  
DOCKED: ATOM     20  C   UNL     1     -31.527  -5.112   4.329 -0.08 +0.00    +0.029 A  
DOCKED: ATOM     21  C   UNL     1     -32.089  -3.837   4.336 -0.06 +0.00    +0.140 A  
DOCKED: ATOM     22  C   UNL     1     -32.707  -3.339   3.189 -0.13 +0.00    +0.029 A  
DOCKED: ATOM     23  F   UNL     1     -32.035  -3.087   5.445 -0.03 -0.00    -0.204 F  
DOCKED: ATOM     24  C   UNL     1     -32.762  -4.119   2.033 -0.15 +0.00    +0.001 A  
DOCKED: ENDBRANCH   2  18
DOCKED: TORSDOF 5
DOCKED: TER
DOCKED: ENDMDL
________________________________________________________________________________


    FINAL DOCKED STATE:
    ________________________


Run:   509 / 512
Time taken for this run:   0.002s

DOCKED: MODEL        509
DOCKED: USER    Run = 509
DOCKED: USER
DOCKED: USER    Estimated Free Energy of Binding    =  -3.75 kcal/mol  [=(1)+(2)+(3)-(4)]
DOCKED: USER
DOCKED: USER    (1) Final Intermolecular Energy     =  -5.24 kcal/mol
DOCKED: USER        vdW + Hbond + desolv Energy     =  -5.24 kcal/mol
DOCKED: USER        Electrostatic Energy            =  +0.00 kcal/mol
DOCKED: USER        Moving Ligand-Fixed Receptor    =  -5.24 kcal/mol
DOCKED: USER        Moving Ligand-Moving Receptor   =  +0.00 kcal/mol
DOCKED: USER    (2) Final Total Internal Energy     =  -1.33 kcal/mol
DOCKED: USER    (3) Torsional Free Energy           =  +1.49 kcal/mol
DOCKED: USER    (4) Unbound System's Energy         =  -1.33 kcal/mol
DOCKED: USER
DOCKED: USER
DOCKED: REMARK  5 active torsions:
DOCKED: REMARK  status: ('A' for Active; 'I' for Inactive)
DOCKED: REMARK    1  A    between atoms: C_2  and  C_19 
DOCKED: REMARK    2  A    between atoms: C_2  and  C_11 
DOCKED: REMARK    3  A    between atoms: C_19  and  C_20 
DOCKED: REMARK    4  A    between atoms: C_20  and  C_21 
DOCKED: REMARK    5  A    between atoms: C_21  and  N_22 
DOCKED: USER                              x       y       z     vdW  Elec       q    Type
DOCKED: USER                           _______ _______ _______ _____ _____    ______ ____
DOCKED: ROOT
DOCKED: ATOM      1  O   UNL     1     -38.351 -16.181  13.423 -0.01 -0.00    -0.346 OA 
DOCKED: ATOM      2  C   UNL     1     -37.327 -17.079  12.888 -0.12 +0.00    +0.130 C  
DOCKED: ATOM      3  C   UNL     1     -38.057 -17.880  11.849 -0.23 +0.00    +0.004 A  
DOCKED: ATOM      4  C   UNL     1     -39.355 -17.406  11.721 -0.15 +0.00    +0.006 A  
DOCKED: ATOM      5  C   UNL     1     -39.568 -16.268  12.645 -0.05 +0.00    +0.169 C  
DOCKED: ATOM      6  C   UNL     1     -37.606 -18.935  11.069 -0.08 -0.00    -0.001 A  
DOCKED: ATOM      7  C   UNL     1     -40.243 -17.969  10.821 -0.20 +0.00    +0.008 A  
DOCKED: ATOM      8  C   UNL     1     -38.490 -19.516  10.159 -0.41 +0.00    +0.010 A  
DOCKED: ATOM      9  C   UNL     1     -39.802 -19.035  10.036 -0.28 +0.00    +0.068 A  
DOCKED: ATOM     10  N   UNL     1     -41.417 -20.134   8.333 -2.04 -0.00    -0.191 NA 
DOCKED: ATOM     11  C   UNL     1     -40.693 -19.642   9.097 -0.28 +0.00    +0.101 C  
DOCKED: ENDROOT
DOCKED: BRANCH   2  12
DOCKED: ATOM     12  C   UNL     1     -36.201 -16.234  12.304 -0.14 +0.00    +0.038 C  
DOCKED: BRANCH  12  13
DOCKED: ATOM     13  C   UNL     1     -36.623 -15.575  10.992 -0.12 +0.00    +0.038 C  
DOCKED: BRANCH  13  14
DOCKED: ATOM     14  C   UNL     1     -36.757 -14.062  11.155 -0.07 +0.00    +0.251 C  
DOCKED: BRANCH  14  15
DOCKED: ATOM     15  N   UNL     1     -38.088 -13.625  10.752 -0.09 +0.00    +0.141 N  
DOCKED: ATOM     16  C   UNL     1     -38.043 -12.264  10.214 -0.06 +0.00    +0.285 C  
DOCKED: ATOM     17  C   UNL     1     -38.655 -14.543   9.763 -0.10 +0.00    +0.285 C  
DOCKED: ENDBRANCH  14  15
DOCKED: ENDBRANCH  13  14
DOCKED: ENDBRANCH  12  13
DOCKED: ENDBRANCH   2  12
DOCKED: BRANCH   2  18
DOCKED: ATOM     18  C   UNL     1     -36.840 -17.912  14.026 -0.10 +0.00    +0.006 A  
DOCKED: ATOM     19  C   UNL     1     -35.518 -17.799  14.457 -0.10 +0.00    +0.001 A  
DOCKED: ATOM     20  C   UNL     1     -35.064 -18.578  15.521 -0.12 +0.00    +0.029 A  
DOCKED: ATOM     21  C   UNL     1     -35.931 -19.469  16.154 -0.13 +0.00    +0.140 A  
DOCKED: ATOM     22  C   UNL     1     -37.252 -19.581  15.723 -0.18 +0.00    +0.029 A  
DOCKED: ATOM     23  F   UNL     1     -35.495 -20.215  17.177 -0.04 -0.00    -0.204 F  
DOCKED: ATOM     24  C   UNL     1     -37.708 -18.802  14.658 -0.15 +0.00    +0.001 A  
DOCKED: ENDBRANCH   2  18
DOCKED: TORSDOF 5
DOCKED: TER
DOCKED: ENDMDL
________________________________________________________________________________


    FINAL DOCKED STATE:
    ________________________


Run:   510 / 512
Time taken for this run:   0.002s

DOCKED: MODEL        510
DOCKED: USER    Run = 510
DOCKED: USER
DOCKED: USER    Estimated Free Energy of Binding    =  -3.79 kcal/mol  [=(1)+(2)+(3)-(4)]
DOCKED: USER
DOCKED: USER    (1) Final Intermolecular Energy     =  -5.28 kcal/mol
DOCKED: USER        vdW + Hbond + desolv Energy     =  -5.28 kcal/mol
DOCKED: USER        Electrostatic Energy            =  +0.00 kcal/mol
DOCKED: USER        Moving Ligand-Fixed Receptor    =  -5.28 kcal/mol
DOCKED: USER        Moving Ligand-Moving Receptor   =  +0.00 kcal/mol
DOCKED: USER    (2) Final Total Internal Energy     =  -1.36 kcal/mol
DOCKED: USER    (3) Torsional Free Energy           =  +1.49 kcal/mol
DOCKED: USER    (4) Unbound System's Energy         =  -1.36 kcal/mol
DOCKED: USER
DOCKED: USER
DOCKED: REMARK  5 active torsions:
DOCKED: REMARK  status: ('A' for Active; 'I' for Inactive)
DOCKED: REMARK    1  A    between atoms: C_2  and  C_19 
DOCKED: REMARK    2  A    between atoms: C_2  and  C_11 
DOCKED: REMARK    3  A    between atoms: C_19  and  C_20 
DOCKED: REMARK    4  A    between atoms: C_20  and  C_21 
DOCKED: REMARK    5  A    between atoms: C_21  and  N_22 
DOCKED: USER                              x       y       z     vdW  Elec       q    Type
DOCKED: USER                           _______ _______ _______ _____ _____    ______ ____
DOCKED: ROOT
DOCKED: ATOM      1  O   UNL     1     -36.896 -17.073  13.658 -0.04 -0.00    -0.346 OA 
DOCKED: ATOM      2  C   UNL     1     -37.116 -16.088  12.598 -0.09 +0.00    +0.130 C  
DOCKED: ATOM      3  C   UNL     1     -37.970 -16.817  11.601 -0.19 +0.00    +0.004 A  
DOCKED: ATOM      4  C   UNL     1     -38.302 -18.069  12.098 -0.20 +0.00    +0.006 A  
DOCKED: ATOM      5  C   UNL     1     -37.711 -18.249  13.443 -0.09 +0.00    +0.169 C  
DOCKED: ATOM      6  C   UNL     1     -38.426 -16.400  10.359 -0.25 -0.00    -0.001 A  
DOCKED: ATOM      7  C   UNL     1     -39.093 -18.945  11.374 -0.29 +0.00    +0.008 A  
DOCKED: ATOM      8  C   UNL     1     -39.220 -17.274   9.614 -0.33 +0.00    +0.010 A  
DOCKED: ATOM      9  C   UNL     1     -39.552 -18.539  10.120 -0.29 +0.00    +0.068 A  
DOCKED: ATOM     10  N   UNL     1     -41.034 -20.135   8.715 -2.56 -0.00    -0.191 NA 
DOCKED: ATOM     11  C   UNL     1     -40.369 -19.419   9.345 -0.28 +0.00    +0.101 C  
DOCKED: ENDROOT
DOCKED: BRANCH   2  12
DOCKED: ATOM     12  C   UNL     1     -37.813 -14.875  13.202 -0.03 +0.00    +0.038 C  
DOCKED: BRANCH  12  13
DOCKED: ATOM     13  C   UNL     1     -39.332 -15.009  13.123 -0.04 +0.00    +0.038 C  
DOCKED: BRANCH  13  14
DOCKED: ATOM     14  C   UNL     1     -39.890 -15.689  14.372 -0.01 +0.00    +0.251 C  
DOCKED: BRANCH  14  15
DOCKED: ATOM     15  N   UNL     1     -41.290 -16.044  14.175 -0.01 +0.00    +0.141 N  
DOCKED: ATOM     16  C   UNL     1     -41.996 -14.980  13.460 -0.00 +0.00    +0.285 C  
DOCKED: ATOM     17  C   UNL     1     -41.403 -17.308  13.444 -0.01 +0.00    +0.285 C  
DOCKED: ENDBRANCH  14  15
DOCKED: ENDBRANCH  13  14
DOCKED: ENDBRANCH  12  13
DOCKED: ENDBRANCH   2  12
DOCKED: BRANCH   2  18
DOCKED: ATOM     18  C   UNL     1     -35.774 -15.723  12.057 -0.11 +0.00    +0.006 A  
DOCKED: ATOM     19  C   UNL     1     -35.527 -14.420  11.626 -0.08 +0.00    +0.001 A  
DOCKED: ATOM     20  C   UNL     1     -34.271 -14.081  11.120 -0.06 +0.00    +0.029 A  
DOCKED: ATOM     21  C   UNL     1     -33.265 -15.043  11.046 -0.06 +0.00    +0.140 A  
DOCKED: ATOM     22  C   UNL     1     -33.513 -16.346  11.478 -0.11 +0.00    +0.029 A  
DOCKED: ATOM     23  F   UNL     1     -32.060 -14.716  10.563 -0.00 -0.00    -0.204 F  
DOCKED: ATOM     24  C   UNL     1     -34.769 -16.687  11.983 -0.15 +0.00    +0.001 A  
DOCKED: ENDBRANCH   2  18
DOCKED: TORSDOF 5
DOCKED: TER
DOCKED: ENDMDL
________________________________________________________________________________


    FINAL DOCKED STATE:
    ________________________


Run:   511 / 512
Time taken for this run:   0.002s

DOCKED: MODEL        511
DOCKED: USER    Run = 511
DOCKED: USER
DOCKED: USER    Estimated Free Energy of Binding    =  -4.06 kcal/mol  [=(1)+(2)+(3)-(4)]
DOCKED: USER
DOCKED: USER    (1) Final Intermolecular Energy     =  -5.55 kcal/mol
DOCKED: USER        vdW + Hbond + desolv Energy     =  -5.55 kcal/mol
DOCKED: USER        Electrostatic Energy            =  +0.00 kcal/mol
DOCKED: USER        Moving Ligand-Fixed Receptor    =  -5.55 kcal/mol
DOCKED: USER        Moving Ligand-Moving Receptor   =  +0.00 kcal/mol
DOCKED: USER    (2) Final Total Internal Energy     =  -1.49 kcal/mol
DOCKED: USER    (3) Torsional Free Energy           =  +1.49 kcal/mol
DOCKED: USER    (4) Unbound System's Energy         =  -1.49 kcal/mol
DOCKED: USER
DOCKED: USER
DOCKED: REMARK  5 active torsions:
DOCKED: REMARK  status: ('A' for Active; 'I' for Inactive)
DOCKED: REMARK    1  A    between atoms: C_2  and  C_19 
DOCKED: REMARK    2  A    between atoms: C_2  and  C_11 
DOCKED: REMARK    3  A    between atoms: C_19  and  C_20 
DOCKED: REMARK    4  A    between atoms: C_20  and  C_21 
DOCKED: REMARK    5  A    between atoms: C_21  and  N_22 
DOCKED: USER                              x       y       z     vdW  Elec       q    Type
DOCKED: USER                           _______ _______ _______ _____ _____    ______ ____
DOCKED: ROOT
DOCKED: ATOM      1  O   UNL     1     -37.940 -15.223  12.507 -0.01 -0.00    -0.346 OA 
DOCKED: ATOM      2  C   UNL     1     -38.191 -14.709  11.160 -0.12 +0.00    +0.130 C  
DOCKED: ATOM      3  C   UNL     1     -38.782 -15.882  10.432 -0.24 +0.00    +0.004 A  
DOCKED: ATOM      4  C   UNL     1     -38.956 -16.939  11.314 -0.18 +0.00    +0.006 A  
DOCKED: ATOM      5  C   UNL     1     -38.512 -16.542  12.669 -0.07 +0.00    +0.169 C  
DOCKED: ATOM      6  C   UNL     1     -39.147 -15.999   9.099 -0.09 -0.00    -0.001 A  
DOCKED: ATOM      7  C   UNL     1     -39.494 -18.144  10.897 -0.25 +0.00    +0.008 A  
DOCKED: ATOM      8  C   UNL     1     -39.686 -17.210   8.662 -0.32 +0.00    +0.010 A  
DOCKED: ATOM      9  C   UNL     1     -39.859 -18.277   9.556 -0.31 +0.00    +0.068 A  
DOCKED: ATOM     10  N   UNL     1     -40.868 -20.509   8.712 -2.58 -0.00    -0.191 NA 
DOCKED: ATOM     11  C   UNL     1     -40.415 -19.508   9.091 -0.32 +0.00    +0.101 C  
DOCKED: ENDROOT
DOCKED: BRANCH   2  12
DOCKED: ATOM     12  C   UNL     1     -39.151 -13.530  11.265 -0.10 +0.00    +0.038 C  
DOCKED: BRANCH  12  13
DOCKED: ATOM     13  C   UNL     1     -40.070 -13.666  12.477 -0.04 +0.00    +0.038 C  
DOCKED: BRANCH  13  14
DOCKED: ATOM     14  C   UNL     1     -41.527 -13.831  12.047 -0.04 +0.00    +0.251 C  
DOCKED: BRANCH  14  15
DOCKED: ATOM     15  N   UNL     1     -41.765 -15.190  11.574 -0.08 +0.00    +0.141 N  
DOCKED: ATOM     16  C   UNL     1     -42.642 -15.911  12.498 -0.01 +0.00    +0.285 C  
DOCKED: ATOM     17  C   UNL     1     -42.347 -15.174  10.231 -0.13 +0.00    +0.285 C  
DOCKED: ENDBRANCH  14  15
DOCKED: ENDBRANCH  13  14
DOCKED: ENDBRANCH  12  13
DOCKED: ENDBRANCH   2  12
DOCKED: BRANCH   2  18
DOCKED: ATOM     18  C   UNL     1     -36.874 -14.283  10.603 -0.14 +0.00    +0.006 A  
DOCKED: ATOM     19  C   UNL     1     -36.827 -13.424   9.505 -0.15 +0.00    +0.001 A  
DOCKED: ATOM     20  C   UNL     1     -35.594 -13.027   8.985 -0.11 +0.00    +0.029 A  
DOCKED: ATOM     21  C   UNL     1     -34.412 -13.487   9.563 -0.07 +0.00    +0.140 A  
DOCKED: ATOM     22  C   UNL     1     -34.460 -14.345  10.662 -0.09 +0.00    +0.029 A  
DOCKED: ATOM     23  F   UNL     1     -33.229 -13.104   9.065 -0.01 -0.00    -0.204 F  
DOCKED: ATOM     24  C   UNL     1     -35.692 -14.744  11.182 -0.11 +0.00    +0.001 A  
DOCKED: ENDBRANCH   2  18
DOCKED: TORSDOF 5
DOCKED: TER
DOCKED: ENDMDL
________________________________________________________________________________


    FINAL DOCKED STATE:
    ________________________


Run:   512 / 512
Time taken for this run:   0.002s

DOCKED: MODEL        512
DOCKED: USER    Run = 512
DOCKED: USER
DOCKED: USER    Estimated Free Energy of Binding    =  -4.35 kcal/mol  [=(1)+(2)+(3)-(4)]
DOCKED: USER
DOCKED: USER    (1) Final Intermolecular Energy     =  -5.85 kcal/mol
DOCKED: USER        vdW + Hbond + desolv Energy     =  -5.85 kcal/mol
DOCKED: USER        Electrostatic Energy            =  +0.00 kcal/mol
DOCKED: USER        Moving Ligand-Fixed Receptor    =  -5.85 kcal/mol
DOCKED: USER        Moving Ligand-Moving Receptor   =  +0.00 kcal/mol
DOCKED: USER    (2) Final Total Internal Energy     =  -1.08 kcal/mol
DOCKED: USER    (3) Torsional Free Energy           =  +1.49 kcal/mol
DOCKED: USER    (4) Unbound System's Energy         =  -1.08 kcal/mol
DOCKED: USER
DOCKED: USER
DOCKED: REMARK  5 active torsions:
DOCKED: REMARK  status: ('A' for Active; 'I' for Inactive)
DOCKED: REMARK    1  A    between atoms: C_2  and  C_19 
DOCKED: REMARK    2  A    between atoms: C_2  and  C_11 
DOCKED: REMARK    3  A    between atoms: C_19  and  C_20 
DOCKED: REMARK    4  A    between atoms: C_20  and  C_21 
DOCKED: REMARK    5  A    between atoms: C_21  and  N_22 
DOCKED: USER                              x       y       z     vdW  Elec       q    Type
DOCKED: USER                           _______ _______ _______ _____ _____    ______ ____
DOCKED: ROOT
DOCKED: ATOM      1  O   UNL     1     -43.241 -16.861  11.694 -0.01 -0.00    -0.346 OA 
DOCKED: ATOM      2  C   UNL     1     -41.820 -17.178  11.849 -0.09 +0.00    +0.130 C  
DOCKED: ATOM      3  C   UNL     1     -41.424 -17.717  10.505 -0.20 +0.00    +0.004 A  
DOCKED: ATOM      4  C   UNL     1     -42.493 -17.614   9.626 -0.26 +0.00    +0.006 A  
DOCKED: ATOM      5  C   UNL     1     -43.650 -16.997  10.313 -0.20 +0.00    +0.169 C  
DOCKED: ATOM      6  C   UNL     1     -40.210 -18.246  10.090 -0.28 -0.00    -0.001 A  
DOCKED: ATOM      7  C   UNL     1     -42.389 -18.036   8.312 -0.18 +0.00    +0.008 A  
DOCKED: ATOM      8  C   UNL     1     -40.091 -18.680   8.769 -0.42 +0.00    +0.010 A  
DOCKED: ATOM      9  C   UNL     1     -41.175 -18.575   7.884 -0.35 +0.00    +0.068 A  
DOCKED: ATOM     10  N   UNL     1     -40.918 -19.387   5.437 -2.14 -0.00    -0.191 NA 
DOCKED: ATOM     11  C   UNL     1     -41.033 -19.023   6.535 -0.36 +0.00    +0.101 C  
DOCKED: ENDROOT
DOCKED: BRANCH   2  12
DOCKED: ATOM     12  C   UNL     1     -41.078 -15.900  12.219 -0.08 +0.00    +0.038 C  
DOCKED: BRANCH  12  13
DOCKED: ATOM     13  C   UNL     1     -40.742 -15.073  10.979 -0.18 +0.00    +0.038 C  
DOCKED: BRANCH  13  14
DOCKED: ATOM     14  C   UNL     1     -41.762 -13.955  10.772 -0.15 +0.00    +0.251 C  
DOCKED: BRANCH  14  15
DOCKED: ATOM     15  N   UNL     1     -41.094 -12.659  10.735 -0.11 +0.00    +0.141 N  
DOCKED: ATOM     16  C   UNL     1     -41.540 -11.882   9.577 -0.13 +0.00    +0.285 C  
DOCKED: ATOM     17  C   UNL     1     -41.340 -11.915  11.971 -0.02 +0.00    +0.285 C  
DOCKED: ENDBRANCH  14  15
DOCKED: ENDBRANCH  13  14
DOCKED: ENDBRANCH  12  13
DOCKED: ENDBRANCH   2  12
DOCKED: BRANCH   2  18
DOCKED: ATOM     18  C   UNL     1     -41.717 -18.195  12.937 -0.11 +0.00    +0.006 A  
DOCKED: ATOM     19  C   UNL     1     -40.515 -18.360  13.624 -0.12 +0.00    +0.001 A  
DOCKED: ATOM     20  C   UNL     1     -40.419 -19.311  14.640 -0.15 +0.00    +0.029 A  
DOCKED: ATOM     21  C   UNL     1     -41.525 -20.095  14.968 +0.03 +0.00    +0.140 A  
DOCKED: ATOM     22  C   UNL     1     -42.726 -19.929  14.281 -0.15 +0.00    +0.029 A  
DOCKED: ATOM     23  F   UNL     1     -41.433 -21.006  15.945 -0.05 -0.00    -0.204 F  
DOCKED: ATOM     24  C   UNL     1     -42.823 -18.978  13.263 -0.14 +0.00    +0.001 A  
DOCKED: ENDBRANCH   2  18
DOCKED: TORSDOF 5
DOCKED: TER
DOCKED: ENDMDL
________________________________________________________________________________


    CLUSTERING HISTOGRAM
    ____________________


________________________________________________________________________________
     |           |     |           |     |
Clus | Lowest    | Run | Mean      | Num | Histogram
-ter | Binding   |     | Binding   | in  |
Rank | Energy    |     | Energy    | Clus|    5    10   15   20   25   30   35
_____|___________|_____|___________|_____|____:____|____:____|____:____|____:___
   1 |     -6.73 |  96 |     -5.78 |  21 |#####################
   2 |     -6.30 | 140 |     -5.38 |   9 |#########
   3 |     -6.10 | 383 |     -5.32 |  45 |#############################################
   4 |     -5.72 | 494 |     -5.27 |  13 |#############
   5 |     -5.64 |  64 |     -4.97 |  27 |###########################
   6 |     -5.35 |  10 |     -4.80 |  15 |###############
   7 |     -5.04 | 500 |     -4.49 |  25 |#########################
   8 |     -5.00 | 162 |     -4.26 |  17 |#################
   9 |     -4.81 |  93 |     -4.18 |  59 |###########################################################
  10 |     -4.75 | 328 |     -4.36 |   7 |#######
  11 |     -4.67 | 359 |     -4.29 |  51 |###################################################
  12 |     -4.45 | 434 |     -3.93 |  26 |##########################
  13 |     -4.43 | 177 |     -4.39 |   4 |####
  14 |     -4.43 |  22 |     -4.18 |  16 |################
  15 |     -4.42 | 504 |     -3.91 |  25 |#########################
  16 |     -4.30 |  62 |     -4.09 |   6 |######
  17 |     -4.28 | 237 |     -4.04 |  19 |###################
  18 |     -4.19 | 310 |     -3.90 |  11 |###########
  19 |     -4.19 | 420 |     -3.77 |   7 |#######
  20 |     -4.14 | 285 |     -3.72 |  12 |############
  21 |     -4.13 |  53 |     -3.80 |   2 |##
  22 |     -4.12 | 272 |     -3.89 |   5 |#####
  23 |     -4.11 | 351 |     -3.67 |   6 |######
  24 |     -4.11 | 387 |     -3.80 |  12 |############
  25 |     -4.07 | 299 |     -3.92 |  12 |############
  26 |     -3.98 | 133 |     -3.86 |   3 |###
  27 |     -3.98 |  44 |     -3.88 |   5 |#####
  28 |     -3.96 |  11 |     -3.96 |   1 |#
  29 |     -3.95 | 409 |     -3.95 |   1 |#
  30 |     -3.94 |  26 |     -3.84 |   6 |######
  31 |     -3.90 | 425 |     -3.70 |   3 |###
  32 |     -3.88 | 378 |     -3.62 |  12 |############
  33 |     -3.87 | 442 |     -3.87 |   1 |#
  34 |     -3.76 | 145 |     -3.64 |   4 |####
  35 |     -3.75 | 509 |     -3.75 |   1 |#
  36 |     -3.73 | 370 |     -3.70 |   2 |##
  37 |     -3.71 | 419 |     -3.46 |   3 |###
  38 |     -3.70 |  16 |     -3.67 |   3 |###
  39 |     -3.67 |  24 |     -3.67 |   1 |#
  40 |     -3.64 | 335 |     -3.64 |   1 |#
  41 |     -3.63 | 473 |     -3.63 |   1 |#
  42 |     -3.62 | 254 |     -3.62 |   1 |#
  43 |     -3.58 | 152 |     -3.58 |   1 |#
  44 |     -3.56 | 444 |     -3.52 |   2 |##
  45 |     -3.54 | 313 |     -3.31 |   2 |##
  46 |     -3.34 | 116 |     -3.34 |   1 |#
  47 |     -3.33 | 344 |     -3.33 |   1 |#
  48 |     -3.27 | 369 |     -3.27 |   1 |#
  49 |     -3.20 | 220 |     -3.20 |   1 |#
  50 |     -3.12 | 197 |     -3.12 |   1 |#
  51 |     -2.66 | 225 |     -2.66 |   1 |#
_____|___________|_____|___________|_____|______________________________________


    RMSD TABLE
    __________


_______________________________________________________________________
     |      |      |           |         |                 |
Rank | Sub- | Run  | Binding   | Cluster | Reference       | Grep
     | Rank |      | Energy    | RMSD    | RMSD            | Pattern
_____|______|______|___________|_________|_________________|___________
   1      1     96       -6.73      0.00     43.32           RANKING
   1      2    379       -6.71      0.70     43.19           RANKING
   1      3     17       -6.64      1.64     42.73           RANKING
   1      4    325       -6.58      1.20     42.83           RANKING
   1      5    502       -6.57      1.62     43.32           RANKING
   1      6    110       -6.47      1.27     43.57           RANKING
   1      7     63       -6.25      1.26     42.76           RANKING
   1      8    156       -6.16      1.21     42.52           RANKING
   1      9    108       -5.82      1.72     44.37           RANKING
   1     10    131       -5.81      1.37     42.42           RANKING
   1     11    281       -5.73      1.82     42.57           RANKING
   1     12    424       -5.70      1.76     42.19           RANKING
   1     13    463       -5.70      1.79     42.43           RANKING
   1     14    103       -5.65      1.78     42.19           RANKING
   1     15    501       -5.64      0.95     43.11           RANKING
   1     16    233       -5.62      1.06     43.20           RANKING
   1     17    205       -5.14      1.59     43.98           RANKING
   1     18    478       -5.04      1.84     43.40           RANKING
   1     19    277       -4.53      1.82     42.81           RANKING
   1     20    190       -4.49      1.77     43.51           RANKING
   1     21    318       -4.41      1.85     42.65           RANKING
   2      1    140       -6.30      0.00     42.23           RANKING
   2      2    331       -5.86      0.92     42.63           RANKING
   2      3    211       -5.68      1.65     43.40           RANKING
   2      4    144       -5.62      1.71     43.35           RANKING
   2      5     14       -5.40      0.68     42.20           RANKING
   2      6    219       -5.29      1.13     41.89           RANKING
   2      7    372       -5.10      1.83     43.27           RANKING
   2      8    188       -4.91      1.34     41.97           RANKING
   2      9    198       -4.25      1.93     42.59           RANKING
   3      1    383       -6.10      0.00     42.41           RANKING
   3      2    247       -6.00      1.15     42.76           RANKING
   3      3    114       -5.90      0.79     42.60           RANKING
   3      4    445       -5.88      1.12     42.50           RANKING
   3      5    427       -5.87      1.27     42.78           RANKING
   3      6    303       -5.78      1.28     42.72           RANKING
   3      7    368       -5.76      0.77     42.42           RANKING
   3      8    273       -5.76      1.23     42.68           RANKING
   3      9    388       -5.75      1.45     43.25           RANKING
   3     10    326       -5.75      0.95     42.47           RANKING
   3     11    224       -5.73      1.21     42.81           RANKING
   3     12    290       -5.73      1.16     42.93           RANKING
   3     13    422       -5.72      1.16     42.50           RANKING
   3     14     82       -5.72      1.40     42.92           RANKING
   3     15    218       -5.71      1.14     42.64           RANKING
   3     16    141       -5.71      1.42     42.71           RANKING
   3     17     73       -5.69      0.79     42.57           RANKING
   3     18    448       -5.66      1.51     42.88           RANKING
   3     19    119       -5.64      1.70     43.28           RANKING
   3     20    146       -5.57      1.39     42.85           RANKING
   3     21    268       -5.55      1.12     42.71           RANKING
   3     22    206       -5.50      0.89     42.47           RANKING
   3     23    507       -5.50      1.53     42.87           RANKING
   3     24    221       -5.46      1.07     42.50           RANKING
   3     25     32       -5.44      1.27     42.64           RANKING
   3     26     60       -5.39      1.32     42.58           RANKING
   3     27    320       -5.33      1.58     42.86           RANKING
   3     28    279       -5.31      1.26     42.37           RANKING
   3     29    435       -5.29      1.83     43.76           RANKING
   3     30    168       -5.18      1.32     42.73           RANKING
   3     31      8       -5.16      1.19     42.32           RANKING
   3     32    259       -5.08      1.48     42.92           RANKING
   3     33    150       -4.95      1.61     42.88           RANKING
   3     34    357       -4.90      1.91     42.72           RANKING
   3     35     15       -4.90      1.95     42.85           RANKING
   3     36    462       -4.80      0.95     42.71           RANKING
   3     37     28       -4.80      1.39     42.96           RANKING
   3     38    113       -4.52      1.79     42.12           RANKING
   3     39    389       -4.51      1.81     42.81           RANKING
   3     40    248       -4.48      1.60     42.83           RANKING
   3     41    384       -4.45      1.81     43.35           RANKING
   3     42    231       -4.43      1.94     42.55           RANKING
   3     43    207       -4.41      1.24     42.85           RANKING
   3     44    147       -4.40      1.97     42.52           RANKING
   3     45    189       -4.09      1.56     42.63           RANKING
   4      1    494       -5.72      0.00     43.80           RANKING
   4      2     36       -5.62      1.31     44.35           RANKING
   4      3    122       -5.58      0.97     44.02           RANKING
   4      4     47       -5.56      1.30     44.19           RANKING
   4      5    217       -5.56      0.97     44.22           RANKING
   4      6    479       -5.56      1.65     43.90           RANKING
   4      7    228       -5.46      0.91     44.17           RANKING
   4      8    355       -5.46      0.93     44.02           RANKING
   4      9    391       -5.39      1.31     43.95           RANKING
   4     10    334       -5.18      1.91     43.58           RANKING
   4     11    180       -5.05      1.09     43.60           RANKING
   4     12    381       -4.91      1.23     43.68           RANKING
   4     13    167       -3.49      1.75     44.22           RANKING
   5      1     64       -5.64      0.00     43.99           RANKING
   5      2    101       -5.64      0.60     44.30           RANKING
   5      3    287       -5.51      1.42     43.39           RANKING
   5      4     67       -5.50      1.05     43.84           RANKING
   5      5    249       -5.44      0.96     43.50           RANKING
   5      6     78       -5.34      1.00     43.93           RANKING
   5      7    350       -5.30      0.88     43.96           RANKING
   5      8     72       -5.23      0.88     43.64           RANKING
   5      9     54       -5.23      1.73     42.89           RANKING
   5     10     13       -5.13      0.92     43.85           RANKING
   5     11    243       -5.11      0.99     43.60           RANKING
   5     12     79       -5.09      1.76     42.99           RANKING
   5     13     98       -5.03      1.05     43.93           RANKING
   5     14    136       -5.01      1.67     43.32           RANKING
   5     15    317       -4.97      1.80     43.25           RANKING
   5     16     37       -4.92      1.19     43.77           RANKING
   5     17    257       -4.90      1.01     43.74           RANKING
   5     18     66       -4.75      1.75     43.22           RANKING
   5     19    375       -4.67      1.38     43.72           RANKING
   5     20    242       -4.61      1.85     43.88           RANKING
   5     21    356       -4.58      1.12     43.87           RANKING
   5     22    178       -4.57      1.26     43.77           RANKING
   5     23    266       -4.55      1.51     43.75           RANKING
   5     24    411       -4.49      1.87     42.97           RANKING
   5     25     87       -4.48      1.83     43.99           RANKING
   5     26    512       -4.35      1.47     44.77           RANKING
   5     27     88       -4.02      1.78     43.92           RANKING
   6      1     10       -5.35      0.00     43.21           RANKING
   6      2      1       -5.33      1.47     42.58           RANKING
   6      3     23       -5.13      1.86     41.79           RANKING
   6      4    338       -4.95      1.70     42.65           RANKING
   6      5    358       -4.90      1.79     42.30           RANKING
   6      6    471       -4.90      1.54     42.76           RANKING
   6      7    323       -4.84      0.66     42.95           RANKING
   6      8    454       -4.80      1.62     43.48           RANKING
   6      9    127       -4.63      1.98     43.39           RANKING
   6     10     29       -4.62      1.79     42.93           RANKING
   6     11     51       -4.62      1.22     42.79           RANKING
   6     12      6       -4.52      1.77     44.04           RANKING
   6     13    199       -4.51      1.04     42.51           RANKING
   6     14    105       -4.46      0.81     43.06           RANKING
   6     15    497       -4.40      1.49     42.27           RANKING
   7      1    500       -5.04      0.00     35.80           RANKING
   7      2    468       -5.00      1.94     34.85           RANKING
   7      3    461       -4.98      0.84     36.35           RANKING
   7      4    300       -4.86      1.87     35.32           RANKING
   7      5     76       -4.83      1.05     35.19           RANKING
   7      6    407       -4.82      1.78     35.20           RANKING
   7      7    238       -4.82      0.55     35.70           RANKING
   7      8    467       -4.69      1.35     35.94           RANKING
   7      9    282       -4.62      1.05     36.40           RANKING
   7     10    423       -4.60      1.98     35.19           RANKING
   7     11    296       -4.52      1.15     36.23           RANKING
   7     12     84       -4.49      1.83     35.18           RANKING
   7     13     68       -4.47      1.33     35.07           RANKING
   7     14    412       -4.47      1.18     35.66           RANKING
   7     15    244       -4.44      1.80     35.57           RANKING
   7     16     33       -4.40      0.98     36.08           RANKING
   7     17    464       -4.39      1.92     35.43           RANKING
   7     18    339       -4.35      1.16     35.14           RANKING
   7     19     99       -4.33      1.44     34.92           RANKING
   7     20    284       -4.20      1.67     34.24           RANKING
   7     21     31       -4.17      1.52     36.08           RANKING
   7     22    395       -4.02      1.27     34.71           RANKING
   7     23    132       -4.00      1.72     34.93           RANKING
   7     24    475       -3.92      1.62     34.76           RANKING
   7     25    343       -3.89      1.60     34.77           RANKING
   8      1    162       -5.00      0.00     35.40           RANKING
   8      2    181       -4.96      0.48     35.67           RANKING
   8      3     74       -4.86      1.01     35.01           RANKING
   8      4    405       -4.82      0.90     35.62           RANKING
   8      5     52       -4.63      1.21     35.05           RANKING
   8      6    477       -4.55      1.96     34.34           RANKING
   8      7    402       -4.52      0.89     35.76           RANKING
   8      8    353       -4.08      1.90     34.64           RANKING
   8      9    204       -4.01      1.79     35.77           RANKING
   8     10    174       -3.97      1.83     34.39           RANKING
   8     11     90       -3.92      1.44     35.87           RANKING
   8     12    418       -3.91      1.56     35.77           RANKING
   8     13    330       -3.90      1.51     35.09           RANKING
   8     14    107       -3.88      1.63     35.76           RANKING
   8     15    367       -3.83      0.98     35.93           RANKING
   8     16    416       -3.80      1.99     35.44           RANKING
   8     17    223       -3.71      1.62     35.49           RANKING
   9      1     93       -4.81      0.00     40.72           RANKING
   9      2    270       -4.79      0.35     40.68           RANKING
   9      3    137       -4.53      0.76     40.43           RANKING
   9      4    305       -4.50      0.50     40.79           RANKING
   9      5    428       -4.47      0.99     40.55           RANKING
   9      6    164       -4.42      1.03     40.47           RANKING
   9      7      2       -4.40      1.77     40.73           RANKING
   9      8    341       -4.39      1.93     40.83           RANKING
   9      9     89       -4.38      0.95     41.09           RANKING
   9     10    360       -4.37      2.00     41.16           RANKING
   9     11    293       -4.36      1.21     41.33           RANKING
   9     12     95       -4.36      1.74     41.10           RANKING
   9     13    483       -4.36      1.04     40.86           RANKING
   9     14    505       -4.34      1.27     40.96           RANKING
   9     15    332       -4.32      1.97     40.97           RANKING
   9     16    474       -4.31      1.94     41.20           RANKING
   9     17    160       -4.31      1.64     40.62           RANKING
   9     18     81       -4.30      1.13     40.74           RANKING
   9     19    214       -4.30      1.31     40.79           RANKING
   9     20     57       -4.29      1.81     40.92           RANKING
   9     21    308       -4.27      1.00     41.09           RANKING
   9     22    117       -4.27      1.25     40.73           RANKING
   9     23    255       -4.27      1.48     41.38           RANKING
   9     24     55       -4.25      2.00     41.31           RANKING
   9     25    482       -4.24      1.99     40.00           RANKING
   9     26     48       -4.23      1.74     41.08           RANKING
   9     27    319       -4.23      1.94     41.33           RANKING
   9     28    187       -4.23      1.85     39.97           RANKING
   9     29    125       -4.22      1.05     41.11           RANKING
   9     30    398       -4.21      1.94     40.93           RANKING
   9     31    397       -4.21      1.24     40.41           RANKING
   9     32    138       -4.20      1.77     40.80           RANKING
   9     33    377       -4.19      1.88     39.74           RANKING
   9     34    390       -4.19      1.92     40.51           RANKING
   9     35    289       -4.18      1.95     41.33           RANKING
   9     36      5       -4.17      1.28     40.75           RANKING
   9     37    283       -4.16      1.66     41.13           RANKING
   9     38    484       -4.16      1.95     40.80           RANKING
   9     39    465       -4.15      1.32     40.79           RANKING
   9     40    253       -4.13      1.67     40.60           RANKING
   9     41    493       -4.12      1.82     40.84           RANKING
   9     42    316       -4.11      1.62     41.70           RANKING
   9     43    192       -4.10      1.49     41.52           RANKING
   9     44    311       -4.10      1.64     40.95           RANKING
   9     45    430       -4.08      1.97     40.35           RANKING
   9     46    208       -4.06      1.75     41.34           RANKING
   9     47    511       -4.06      1.07     41.20           RANKING
   9     48     86       -4.02      1.51     41.34           RANKING
   9     49    349       -4.00      1.43     41.13           RANKING
   9     50    451       -3.98      1.74     41.18           RANKING
   9     51    499       -3.95      1.41     41.52           RANKING
   9     52    203       -3.91      1.96     41.21           RANKING
   9     53    382       -3.89      1.55     41.15           RANKING
   9     54    337       -3.85      1.80     40.81           RANKING
   9     55    112       -3.80      1.16     41.20           RANKING
   9     56     77       -3.59      1.80     41.70           RANKING
   9     57    492       -3.57      1.74     40.88           RANKING
   9     58    487       -3.48      1.91     41.25           RANKING
   9     59    212       -3.48      1.79     41.74           RANKING
  10      1    328       -4.75      0.00     34.85           RANKING
  10      2    322       -4.60      0.58     34.69           RANKING
  10      3     34       -4.56      1.72     34.33           RANKING
  10      4    109       -4.32      1.91     34.00           RANKING
  10      5    345       -4.21      1.73     33.90           RANKING
  10      6    365       -4.05      1.17     35.47           RANKING
  10      7    126       -4.01      1.92     34.35           RANKING
  11      1    359       -4.67      0.00     42.70           RANKING
  11      2    271       -4.67      0.41     42.81           RANKING
  11      3    466       -4.66      0.65     42.79           RANKING
  11      4    120       -4.64      0.63     42.30           RANKING
  11      5    100       -4.61      0.72     42.57           RANKING
  11      6    215       -4.61      0.77     42.22           RANKING
  11      7    202       -4.59      0.52     42.78           RANKING
  11      8    429       -4.57      1.95     42.48           RANKING
  11      9    210       -4.55      0.90     42.20           RANKING
  11     10    111       -4.54      0.85     42.51           RANKING
  11     11    106       -4.52      0.72     43.13           RANKING
  11     12    159       -4.51      0.87     42.98           RANKING
  11     13    154       -4.49      1.98     42.77           RANKING
  11     14    433       -4.49      0.66     42.41           RANKING
  11     15    410       -4.47      0.83     42.21           RANKING
  11     16     41       -4.44      0.66     43.13           RANKING
  11     17     42       -4.43      1.96     42.36           RANKING
  11     18    130       -4.43      0.83     43.41           RANKING
  11     19    118       -4.39      1.00     42.93           RANKING
  11     20    294       -4.39      1.06     41.96           RANKING
  11     21    503       -4.38      1.76     43.41           RANKING
  11     22    143       -4.37      1.85     42.37           RANKING
  11     23    196       -4.35      1.68     42.54           RANKING
  11     24    251       -4.35      1.76     41.74           RANKING
  11     25     35       -4.34      1.37     41.68           RANKING
  11     26    417       -4.31      0.58     42.67           RANKING
  11     27    399       -4.31      1.29     41.91           RANKING
  11     28    250       -4.29      0.85     42.63           RANKING
  11     29    173       -4.27      1.90     42.19           RANKING
  11     30    426       -4.27      1.38     41.95           RANKING
  11     31    404       -4.23      1.82     41.74           RANKING
  11     32    476       -4.21      1.66     42.37           RANKING
  11     33    436       -4.21      1.30     43.61           RANKING
  11     34    128       -4.21      1.42     41.73           RANKING
  11     35    297       -4.21      1.45     42.23           RANKING
  11     36    495       -4.21      0.74     42.84           RANKING
  11     37    352       -4.21      1.53     41.76           RANKING
  11     38     21       -4.21      1.16     43.52           RANKING
  11     39    184       -4.20      1.31     43.12           RANKING
  11     40    438       -4.19      1.25     42.58           RANKING
  11     41    362       -4.19      0.99     42.71           RANKING
  11     42     80       -4.15      2.00     41.63           RANKING
  11     43    346       -4.14      1.57     41.65           RANKING
  11     44     97       -4.13      1.92     41.68           RANKING
  11     45    439       -4.07      1.90     42.46           RANKING
  11     46    458       -4.05      1.30     42.05           RANKING
  11     47    307       -3.87      1.40     42.27           RANKING
  11     48    256       -3.82      1.09     42.59           RANKING
  11     49     91       -3.58      1.37     43.00           RANKING
  11     50    245       -3.56      1.56     42.93           RANKING
  11     51    449       -3.46      1.88     43.35           RANKING
  12      1    434       -4.45      0.00     42.01           RANKING
  12      2    265       -4.22      0.91     42.17           RANKING
  12      3    304       -4.22      1.38     43.30           RANKING
  12      4    403       -4.19      1.29     42.84           RANKING
  12      5    235       -4.18      1.13     42.31           RANKING
  12      6    186       -4.17      0.71     42.24           RANKING
  12      7    314       -4.17      0.77     42.05           RANKING
  12      8    139       -4.12      0.71     41.81           RANKING
  12      9    489       -4.09      1.43     42.45           RANKING
  12     10    361       -4.07      1.35     42.34           RANKING
  12     11    129       -4.06      1.38     42.24           RANKING
  12     12     61       -4.03      1.37     42.45           RANKING
  12     13    485       -4.03      1.11     42.06           RANKING
  12     14     27       -4.03      1.39     43.27           RANKING
  12     15    488       -3.96      1.84     43.19           RANKING
  12     16    437       -3.95      1.36     42.71           RANKING
  12     17    276       -3.87      1.67     41.43           RANKING
  12     18     75       -3.85      1.87     42.39           RANKING
  12     19    347       -3.76      1.62     43.23           RANKING
  12     20    469       -3.74      1.28     42.83           RANKING
  12     21    169       -3.72      1.91     41.59           RANKING
  12     22     40       -3.65      1.37     43.13           RANKING
  12     23    274       -3.57      2.00     42.52           RANKING
  12     24    333       -3.52      1.13     42.11           RANKING
  12     25    258       -3.38      1.95     42.59           RANKING
  12     26    216       -3.25      1.81     40.94           RANKING
  13      1    177       -4.43      0.00     43.48           RANKING
  13      2    151       -4.42      0.53     43.48           RANKING
  13      3    246       -4.38      0.55     43.57           RANKING
  13      4    312       -4.34      1.51     42.70           RANKING
  14      1     22       -4.43      0.00     41.86           RANKING
  14      2    275       -4.39      0.69     41.89           RANKING
  14      3     65       -4.37      0.54     41.67           RANKING
  14      4    182       -4.32      0.77     41.99           RANKING
  14      5    447       -4.31      0.66     41.82           RANKING
  14      6    452       -4.28      1.87     43.22           RANKING
  14      7    264       -4.22      1.26     42.50           RANKING
  14      8    263       -4.19      1.55     41.15           RANKING
  14      9     56       -4.14      1.96     40.91           RANKING
  14     10    288       -4.14      1.60     40.99           RANKING
  14     11    102       -4.08      1.55     41.28           RANKING
  14     12    302       -4.06      1.95     41.35           RANKING
  14     13    252       -4.04      0.79     41.63           RANKING
  14     14    232       -4.01      1.47     41.56           RANKING
  14     15    364       -3.95      1.90     43.37           RANKING
  14     16    309       -3.94      1.21     42.30           RANKING
  15      1    504       -4.42      0.00     35.35           RANKING
  15      2      3       -4.41      1.31     35.35           RANKING
  15      3    456       -4.11      1.47     35.05           RANKING
  15      4     49       -4.08      1.69     34.79           RANKING
  15      5    209       -4.07      1.82     35.42           RANKING
  15      6      9       -4.06      1.55     34.97           RANKING
  15      7    234       -4.06      1.90     34.76           RANKING
  15      8     39       -4.05      1.85     34.70           RANKING
  15      9    315       -4.03      1.87     34.68           RANKING
  15     10    240       -4.02      1.77     34.64           RANKING
  15     11    496       -4.02      1.84     34.75           RANKING
  15     12    171       -3.99      1.80     35.45           RANKING
  15     13    393       -3.98      1.09     34.88           RANKING
  15     14    460       -3.98      1.74     35.70           RANKING
  15     15    213       -3.85      1.90     34.93           RANKING
  15     16    292       -3.80      1.38     35.44           RANKING
  15     17    153       -3.80      1.82     35.25           RANKING
  15     18    155       -3.77      1.88     35.38           RANKING
  15     19    490       -3.71      1.78     35.63           RANKING
  15     20    280       -3.69      1.43     35.32           RANKING
  15     21    226       -3.69      1.58     35.33           RANKING
  15     22    329       -3.67      1.59     34.91           RANKING
  15     23     69       -3.66      1.72     35.27           RANKING
  15     24    158       -3.64      1.11     35.16           RANKING
  15     25    267       -3.30      1.99     35.19           RANKING
  16      1     62       -4.30      0.00     34.31           RANKING
  16      2     59       -4.19      1.62     33.14           RANKING
  16      3    342       -4.07      1.57     33.13           RANKING
  16      4     50       -4.02      1.72     33.61           RANKING
  16      5    260       -3.99      1.42     33.23           RANKING
  16      6     58       -3.96      1.61     33.12           RANKING
  17      1    237       -4.28      0.00     39.96           RANKING
  17      2    498       -4.25      1.37     40.83           RANKING
  17      3    301       -4.25      0.94     39.66           RANKING
  17      4    348       -4.24      0.77     39.89           RANKING
  17      5    241       -4.23      0.56     39.94           RANKING
  17      6    134       -4.21      0.91     40.32           RANKING
  17      7    363       -4.21      0.64     39.93           RANKING
  17      8     85       -4.17      1.43     40.69           RANKING
  17      9     92       -4.13      0.94     40.20           RANKING
  17     10    386       -4.12      1.23     40.15           RANKING
  17     11    183       -4.11      1.10     40.32           RANKING
  17     12    321       -4.11      0.83     40.16           RANKING
  17     13    400       -4.09      0.91     40.45           RANKING
  17     14      4       -3.86      0.93     40.24           RANKING
  17     15     43       -3.75      1.80     40.31           RANKING
  17     16    457       -3.72      1.63     40.49           RANKING
  17     17    104       -3.69      1.56     40.89           RANKING
  17     18    327       -3.68      1.88     40.53           RANKING
  17     19    396       -3.63      1.97     40.44           RANKING
  18      1    310       -4.19      0.00     34.72           RANKING
  18      2    222       -4.11      0.49     34.53           RANKING
  18      3    157       -4.09      0.85     34.43           RANKING
  18      4    453       -4.09      1.11     34.59           RANKING
  18      5    262       -4.02      0.96     34.40           RANKING
  18      6    172       -4.02      0.66     34.57           RANKING
  18      7    261       -3.95      1.34     34.31           RANKING
  18      8    121       -3.93      1.49     34.34           RANKING
  18      9    286       -3.72      1.72     34.30           RANKING
  18     10    401       -3.69      1.94     34.38           RANKING
  18     11    459       -3.04      1.49     34.31           RANKING
  19      1    420       -4.19      0.00     34.30           RANKING
  19      2    421       -4.07      0.75     34.18           RANKING
  19      3    161       -3.83      1.19     34.14           RANKING
  19      4    123       -3.68      1.46     34.30           RANKING
  19      5    366       -3.58      1.14     33.87           RANKING
  19      6    480       -3.53      1.57     33.71           RANKING
  19      7      7       -3.51      1.56     33.94           RANKING
  20      1    285       -4.14      0.00     31.90           RANKING
  20      2    371       -4.09      0.83     31.57           RANKING
  20      3    481       -3.91      1.26     31.81           RANKING
  20      4     46       -3.88      1.24     31.49           RANKING
  20      5    455       -3.78      0.85     31.57           RANKING
  20      6    165       -3.78      1.49     31.54           RANKING
  20      7    142       -3.77      1.44     31.61           RANKING
  20      8     30       -3.72      1.55     31.43           RANKING
  20      9    446       -3.50      1.01     31.43           RANKING
  20     10     45       -3.38      1.64     31.37           RANKING
  20     11    163       -3.36      1.86     31.15           RANKING
  20     12    413       -3.29      1.71     31.33           RANKING
  21      1     53       -4.13      0.00     44.67           RANKING
  21      2    227       -3.47      0.97     44.41           RANKING
  22      1    272       -4.12      0.00     33.99           RANKING
  22      2    175       -3.98      0.62     33.87           RANKING
  22      3    194       -3.84      1.40     33.49           RANKING
  22      4     70       -3.83      1.85     33.02           RANKING
  22      5    191       -3.71      1.33     33.28           RANKING
  23      1    351       -4.11      0.00     33.24           RANKING
  23      2     38       -3.80      1.75     32.66           RANKING
  23      3     19       -3.62      1.64     32.44           RANKING
  23      4    340       -3.61      1.93     33.31           RANKING
  23      5    376       -3.53      1.99     32.40           RANKING
  23      6    185       -3.34      1.20     32.84           RANKING
  24      1    387       -4.11      0.00     40.96           RANKING
  24      2    380       -4.05      0.85     41.23           RANKING
  24      3    306       -3.90      1.44     40.95           RANKING
  24      4    374       -3.85      1.41     40.79           RANKING
  24      5    115       -3.85      1.36     40.61           RANKING
  24      6    443       -3.84      1.67     41.10           RANKING
  24      7    298       -3.77      1.81     41.00           RANKING
  24      8    373       -3.76      1.69     40.77           RANKING
  24      9    440       -3.73      1.94     41.60           RANKING
  24     10    394       -3.71      1.82     41.12           RANKING
  24     11    278       -3.56      1.95     41.18           RANKING
  24     12     25       -3.44      1.75     41.65           RANKING
  25      1    299       -4.07      0.00     34.37           RANKING
  25      2    408       -4.00      1.95     34.66           RANKING
  25      3    432       -3.99      1.88     34.79           RANKING
  25      4    200       -3.96      1.93     34.46           RANKING
  25      5    135       -3.96      1.84     34.55           RANKING
  25      6    193       -3.95      1.67     34.58           RANKING
  25      7    230       -3.94      1.50     34.17           RANKING
  25      8     83       -3.94      1.68     34.36           RANKING
  25      9    415       -3.94      1.33     34.20           RANKING
  25     10    324       -3.89      1.07     34.23           RANKING
  25     11     71       -3.75      1.56     34.20           RANKING
  25     12    295       -3.65      1.68     34.08           RANKING
  26      1    133       -3.98      0.00     42.09           RANKING
  26      2    336       -3.89      1.57     42.33           RANKING
  26      3    385       -3.70      1.20     42.23           RANKING
  27      1     44       -3.98      0.00     34.54           RANKING
  27      2     12       -3.90      1.35     34.62           RANKING
  27      3    236       -3.89      1.76     34.57           RANKING
  27      4    179       -3.86      1.88     34.48           RANKING
  27      5    431       -3.77      1.56     34.53           RANKING
  28      1     11       -3.96      0.00     41.34           RANKING
  29      1    409       -3.95      0.00     41.01           RANKING
  30      1     26       -3.94      0.00     32.80           RANKING
  30      2    470       -3.88      1.70     31.94           RANKING
  30      3     94       -3.87      1.78     33.46           RANKING
  30      4    472       -3.83      1.69     32.21           RANKING
  30      5    148       -3.82      1.65     31.87           RANKING
  30      6    508       -3.71      1.51     32.02           RANKING
  31      1    425       -3.90      0.00     36.26           RANKING
  31      2    392       -3.63      1.29     36.07           RANKING
  31      3    170       -3.56      1.88     35.76           RANKING
  32      1    378       -3.88      0.00     41.39           RANKING
  32      2     18       -3.86      1.16     41.34           RANKING
  32      3    510       -3.79      1.84     41.26           RANKING
  32      4    269       -3.76      1.71     42.10           RANKING
  32      5    239       -3.71      0.80     41.70           RANKING
  32      6    414       -3.61      1.56     41.54           RANKING
  32      7    149       -3.60      1.10     41.54           RANKING
  32      8    291       -3.52      1.51     41.46           RANKING
  32      9    506       -3.51      1.98     42.21           RANKING
  32     10    354       -3.42      1.77     42.17           RANKING
  32     11    491       -3.41      1.80     40.70           RANKING
  32     12     20       -3.29      1.64     41.16           RANKING
  33      1    442       -3.87      0.00     34.75           RANKING
  34      1    145       -3.76      0.00     31.74           RANKING
  34      2    176       -3.70      1.62     31.63           RANKING
  34      3    201       -3.55      1.49     31.62           RANKING
  34      4    450       -3.54      1.17     31.50           RANKING
  35      1    509       -3.75      0.00     41.97           RANKING
  36      1    370       -3.73      0.00     35.85           RANKING
  36      2    406       -3.67      0.75     35.95           RANKING
  37      1    419       -3.71      0.00     41.16           RANKING
  37      2    124       -3.64      0.67     40.87           RANKING
  37      3    486       -3.03      1.93     41.43           RANKING
  38      1     16       -3.70      0.00     32.17           RANKING
  38      2    166       -3.68      1.50     32.14           RANKING
  38      3    229       -3.64      1.46     32.06           RANKING
  39      1     24       -3.67      0.00     41.81           RANKING
  40      1    335       -3.64      0.00     32.15           RANKING
  41      1    473       -3.63      0.00     33.79           RANKING
  42      1    254       -3.62      0.00     31.13           RANKING
  43      1    152       -3.58      0.00     34.60           RANKING
  44      1    444       -3.56      0.00     32.56           RANKING
  44      2    441       -3.47      1.54     32.25           RANKING
  45      1    313       -3.54      0.00     31.45           RANKING
  45      2    195       -3.09      1.80     31.51           RANKING
  46      1    116       -3.34      0.00     35.16           RANKING
  47      1    344       -3.33      0.00     36.83           RANKING
  48      1    369       -3.27      0.00     33.92           RANKING
  49      1    220       -3.20      0.00     43.22           RANKING
  50      1    197       -3.12      0.00     33.99           RANKING
  51      1    225       -2.66      0.00     33.33           RANKING

Run time 0.971 sec
Idle time 0.605 sec
