AutoDock-GPU version: pre-gridboxing-2025-09-02-2-g7a158b4220ccb7fae2f1ef28c415f546fce74080-dirty

**********************************************************
**    AutoDock-GPU AUTODOCKTOOLS-COMPATIBLE DLG FILE    **
**********************************************************


    DOCKING PARAMETERS
    ________________________


Ligand file:                               /home/taka/development/ultidock-gmx/docking/LIGANDS_DIR/escitalopram-e.pdbqt
Grid fld file:                             5i6x-edited.maps.fld

Random seed:                               1757959495, 58947
Number of runs:                            512
Number of energy evaluations:              139774
Number of generations:                     42000
Size of population:                        150
Rate of crossover:                         80.000000%
Tournament selection probability limit:    60.000000%
Rate of mutation:                          2.000000%
Maximal allowed delta movement:            +/- 6.000000A
Maximal allowed delta angle:               +/- 90.000000

Rate of local search:                      50.000000%
Maximal number of local search iterations: 300
Rho lower bound:                           0.010000
Spread of local search delta movement:     2.000000A
Spread of local search delta angle:        74.999999
Limit of consecutive successes/failures:   4

Handle symmetry during clustering:         YES
RMSD tolerance:                            2.000000A

Program call in command line was:          /home/taka/development/ultidock-gmx/docking/AUTODOCK_GPU_DIR/bin/autodock_gpu_cuda_64wi --lfile /home/taka/development/ultidock-gmx/docking/LIGANDS_DIR/escitalopram-e.pdbqt --ffile 5i6x-edited.maps.fld --nrun 512 --nev 5000000 --gbest 5 --xmloutput 1 --resnam /home/taka/development/ultidock-gmx/docking/DOCKING_DIR/S5__escitalopram-e_cc35e77c --devnum 1 --lsrat 50.0 --lsmet sw --initswgens 200 --stopstd 0.02 


    GRID PARAMETERS
    ________________________


Receptor name:                             /home/taka/development/ultidock-gmx/docking/MACRO_MOL_DIR/5i6x-edited
Number of grid points (x, y, z):           97, 97, 97
Grid center (x, y, z):                     -24.535000, 2.365000, 10.969000A
Grid size (x, y, z):                       36.000000, 36.000000, 36.000000A
Grid spacing:                              0.375000A


    LIGAND PARAMETERS
    ________________________


Ligand name:                               /home/taka/development/ultidock-gmx/docking/LIGANDS_DIR/escitalopram-e
Number of atoms:                           24
Number of rotatable bonds:                 5
Number of atom types:                      6


    DUMMY DATA (only for ADT-compatibility)
    ________________________


DPF> outlev 1
DPF> ga_run 512
DPF> fld 5i6x-edited.maps.fld
DPF> move /home/taka/development/ultidock-gmx/docking/LIGANDS_DIR/escitalopram-e.pdbqt


    COUNTER STATES
    ________________________


Number of energy evaluations performed:    153152
Number of generations used:                8


    INPUT LIGAND PDBQT FILE:
    ________________________


INPUT-LIGAND-PDBQT: REMARK  5 active torsions:
INPUT-LIGAND-PDBQT: REMARK  status: ('A' for Active; 'I' for Inactive)
INPUT-LIGAND-PDBQT: REMARK    1  A    between atoms: C_2  and  C_19 
INPUT-LIGAND-PDBQT: REMARK    2  A    between atoms: C_2  and  C_11 
INPUT-LIGAND-PDBQT: REMARK    3  A    between atoms: C_19  and  C_20 
INPUT-LIGAND-PDBQT: REMARK    4  A    between atoms: C_20  and  C_21 
INPUT-LIGAND-PDBQT: REMARK    5  A    between atoms: C_21  and  N_22 
INPUT-LIGAND-PDBQT: ROOT
INPUT-LIGAND-PDBQT: ATOM      1  O   UNL     1      -0.114  -0.606   1.632  0.00  0.00    -0.346 OA
INPUT-LIGAND-PDBQT: ATOM      2  C   UNL     1      -0.069  -0.235   0.217  0.00  0.00     0.130 C 
INPUT-LIGAND-PDBQT: ATOM      3  C   UNL     1       1.387  -0.336  -0.135  0.00  0.00     0.004 A 
INPUT-LIGAND-PDBQT: ATOM      4  C   UNL     1       2.097  -0.828   0.951  0.00  0.00     0.006 A 
INPUT-LIGAND-PDBQT: ATOM      5  C   UNL     1       1.173  -1.095   2.076  0.00  0.00     0.169 C 
INPUT-LIGAND-PDBQT: ATOM      6  C   UNL     1       2.030  -0.028  -1.325  0.00  0.00    -0.001 A 
INPUT-LIGAND-PDBQT: ATOM      7  C   UNL     1       3.466  -1.024   0.888  0.00  0.00     0.008 A 
INPUT-LIGAND-PDBQT: ATOM      8  C   UNL     1       3.411  -0.216  -1.403  0.00  0.00     0.010 A 
INPUT-LIGAND-PDBQT: ATOM      9  C   UNL     1       4.125  -0.712  -0.302  0.00  0.00     0.068 A 
INPUT-LIGAND-PDBQT: ATOM     10  N   UNL     1       6.687  -1.054  -0.482  0.00  0.00    -0.191 NA
INPUT-LIGAND-PDBQT: ATOM     11  C   UNL     1       5.538  -0.900  -0.401  0.00  0.00     0.101 C 
INPUT-LIGAND-PDBQT: ENDROOT
INPUT-LIGAND-PDBQT: BRANCH   2  12
INPUT-LIGAND-PDBQT: ATOM     12  C   UNL     1      -0.938  -1.212  -0.566  0.00  0.00     0.038 C 
INPUT-LIGAND-PDBQT: BRANCH  12  13
INPUT-LIGAND-PDBQT: ATOM     13  C   UNL     1      -2.364  -1.250  -0.020  0.00  0.00     0.038 C 
INPUT-LIGAND-PDBQT: BRANCH  13  14
INPUT-LIGAND-PDBQT: ATOM     14  C   UNL     1      -3.238  -2.204  -0.832  0.00  0.00     0.251 C 
INPUT-LIGAND-PDBQT: BRANCH  14  15
INPUT-LIGAND-PDBQT: ATOM     15  N   UNL     1      -4.589  -2.244  -0.285  0.00  0.00     0.141 N 
INPUT-LIGAND-PDBQT: ATOM     16  C   UNL     1      -5.439  -3.137  -1.074  0.00  0.00     0.285 C 
INPUT-LIGAND-PDBQT: ATOM     17  C   UNL     1      -4.566  -2.671   1.115  0.00  0.00     0.285 C 
INPUT-LIGAND-PDBQT: ENDBRANCH  14  15
INPUT-LIGAND-PDBQT: ENDBRANCH  13  14
INPUT-LIGAND-PDBQT: ENDBRANCH  12  13
INPUT-LIGAND-PDBQT: ENDBRANCH   2  12
INPUT-LIGAND-PDBQT: BRANCH   2  18
INPUT-LIGAND-PDBQT: ATOM     18  C   UNL     1      -0.597   1.157   0.114  0.00  0.00     0.006 A 
INPUT-LIGAND-PDBQT: ATOM     19  C   UNL     1      -1.137   1.610  -1.089  0.00  0.00     0.001 A 
INPUT-LIGAND-PDBQT: ATOM     20  C   UNL     1      -1.630   2.912  -1.184  0.00  0.00     0.029 A 
INPUT-LIGAND-PDBQT: ATOM     21  C   UNL     1      -1.583   3.758  -0.077  0.00  0.00     0.140 A 
INPUT-LIGAND-PDBQT: ATOM     22  C   UNL     1      -1.043   3.304   1.126  0.00  0.00     0.029 A 
INPUT-LIGAND-PDBQT: ATOM     23  F   UNL     1      -2.058   5.007  -0.168  0.00  0.00    -0.204 F 
INPUT-LIGAND-PDBQT: ATOM     24  C   UNL     1      -0.549   2.002   1.222  0.00  0.00     0.001 A 
INPUT-LIGAND-PDBQT: ENDBRANCH   2  18
INPUT-LIGAND-PDBQT: TORSDOF 5


    FINAL DOCKED STATE:
    ________________________


Run:   1 / 512
Time taken for this run:   0.002s

DOCKED: MODEL        1
DOCKED: USER    Run = 1
DOCKED: USER
DOCKED: USER    Estimated Free Energy of Binding    =  -4.32 kcal/mol  [=(1)+(2)+(3)-(4)]
DOCKED: USER
DOCKED: USER    (1) Final Intermolecular Energy     =  -5.81 kcal/mol
DOCKED: USER        vdW + Hbond + desolv Energy     =  -5.81 kcal/mol
DOCKED: USER        Electrostatic Energy            =  +0.00 kcal/mol
DOCKED: USER        Moving Ligand-Fixed Receptor    =  -5.81 kcal/mol
DOCKED: USER        Moving Ligand-Moving Receptor   =  +0.00 kcal/mol
DOCKED: USER    (2) Final Total Internal Energy     =  -1.46 kcal/mol
DOCKED: USER    (3) Torsional Free Energy           =  +1.49 kcal/mol
DOCKED: USER    (4) Unbound System's Energy         =  -1.46 kcal/mol
DOCKED: USER
DOCKED: USER
DOCKED: REMARK  5 active torsions:
DOCKED: REMARK  status: ('A' for Active; 'I' for Inactive)
DOCKED: REMARK    1  A    between atoms: C_2  and  C_19 
DOCKED: REMARK    2  A    between atoms: C_2  and  C_11 
DOCKED: REMARK    3  A    between atoms: C_19  and  C_20 
DOCKED: REMARK    4  A    between atoms: C_20  and  C_21 
DOCKED: REMARK    5  A    between atoms: C_21  and  N_22 
DOCKED: USER                              x       y       z     vdW  Elec       q    Type
DOCKED: USER                           _______ _______ _______ _____ _____    ______ ____
DOCKED: ROOT
DOCKED: ATOM      1  O   UNL     1     -36.769  -8.235  13.244 -0.05 -0.00    -0.346 OA 
DOCKED: ATOM      2  C   UNL     1     -38.211  -8.171  13.487 -0.14 +0.00    +0.130 C  
DOCKED: ATOM      3  C   UNL     1     -38.710  -9.516  13.043 -0.22 +0.00    +0.004 A  
DOCKED: ATOM      4  C   UNL     1     -37.635 -10.317  12.682 -0.27 +0.00    +0.006 A  
DOCKED: ATOM      5  C   UNL     1     -36.369  -9.574  12.871 -0.18 +0.00    +0.169 C  
DOCKED: ATOM      6  C   UNL     1     -40.009  -9.996  12.975 -0.22 -0.00    -0.001 A  
DOCKED: ATOM      7  C   UNL     1     -37.821 -11.615  12.239 -0.33 +0.00    +0.008 A  
DOCKED: ATOM      8  C   UNL     1     -40.214 -11.302  12.526 -0.22 +0.00    +0.010 A  
DOCKED: ATOM      9  C   UNL     1     -39.125 -12.107  12.160 -0.26 +0.00    +0.068 A  
DOCKED: ATOM     10  N   UNL     1     -39.539 -14.529  11.336 -2.55 -0.00    -0.191 NA 
DOCKED: ATOM     11  C   UNL     1     -39.353 -13.442  11.705 -0.36 +0.00    +0.101 C  
DOCKED: ENDROOT
DOCKED: BRANCH   2  12
DOCKED: ATOM     12  C   UNL     1     -38.439  -7.915  14.972 -0.05 +0.00    +0.038 C  
DOCKED: BRANCH  12  13
DOCKED: ATOM     13  C   UNL     1     -37.379  -6.975  15.544 -0.02 +0.00    +0.038 C  
DOCKED: BRANCH  13  14
DOCKED: ATOM     14  C   UNL     1     -37.869  -5.528  15.543 -0.00 +0.00    +0.251 C  
DOCKED: BRANCH  14  15
DOCKED: ATOM     15  N   UNL     1     -36.784  -4.625  15.179 -0.00 +0.00    +0.141 N  
DOCKED: ATOM     16  C   UNL     1     -35.698  -5.359  14.527 -0.00 +0.00    +0.285 C  
DOCKED: ATOM     17  C   UNL     1     -37.272  -3.558  14.303 -0.00 +0.00    +0.285 C  
DOCKED: ENDBRANCH  14  15
DOCKED: ENDBRANCH  13  14
DOCKED: ENDBRANCH  12  13
DOCKED: ENDBRANCH   2  12
DOCKED: BRANCH   2  18
DOCKED: ATOM     18  C   UNL     1     -38.744  -7.051  12.659 -0.18 +0.00    +0.006 A  
DOCKED: ATOM     19  C   UNL     1     -37.882  -6.309  11.852 -0.12 +0.00    +0.001 A  
DOCKED: ATOM     20  C   UNL     1     -38.383  -5.261  11.078 -0.15 +0.00    +0.029 A  
DOCKED: ATOM     21  C   UNL     1     -39.743  -4.957  11.112 -0.11 +0.00    +0.140 A  
DOCKED: ATOM     22  C   UNL     1     -40.604  -5.699  11.919 -0.15 +0.00    +0.029 A  
DOCKED: ATOM     23  F   UNL     1     -40.223  -3.952  10.368 -0.02 -0.00    -0.204 F  
DOCKED: ATOM     24  C   UNL     1     -40.105  -6.747  12.694 -0.20 +0.00    +0.001 A  
DOCKED: ENDBRANCH   2  18
DOCKED: TORSDOF 5
DOCKED: TER
DOCKED: ENDMDL
________________________________________________________________________________


    FINAL DOCKED STATE:
    ________________________


Run:   2 / 512
Time taken for this run:   0.002s

DOCKED: MODEL        2
DOCKED: USER    Run = 2
DOCKED: USER
DOCKED: USER    Estimated Free Energy of Binding    =  -5.38 kcal/mol  [=(1)+(2)+(3)-(4)]
DOCKED: USER
DOCKED: USER    (1) Final Intermolecular Energy     =  -6.87 kcal/mol
DOCKED: USER        vdW + Hbond + desolv Energy     =  -6.87 kcal/mol
DOCKED: USER        Electrostatic Energy            =  +0.00 kcal/mol
DOCKED: USER        Moving Ligand-Fixed Receptor    =  -6.87 kcal/mol
DOCKED: USER        Moving Ligand-Moving Receptor   =  +0.00 kcal/mol
DOCKED: USER    (2) Final Total Internal Energy     =  -1.36 kcal/mol
DOCKED: USER    (3) Torsional Free Energy           =  +1.49 kcal/mol
DOCKED: USER    (4) Unbound System's Energy         =  -1.36 kcal/mol
DOCKED: USER
DOCKED: USER
DOCKED: REMARK  5 active torsions:
DOCKED: REMARK  status: ('A' for Active; 'I' for Inactive)
DOCKED: REMARK    1  A    between atoms: C_2  and  C_19 
DOCKED: REMARK    2  A    between atoms: C_2  and  C_11 
DOCKED: REMARK    3  A    between atoms: C_19  and  C_20 
DOCKED: REMARK    4  A    between atoms: C_20  and  C_21 
DOCKED: REMARK    5  A    between atoms: C_21  and  N_22 
DOCKED: USER                              x       y       z     vdW  Elec       q    Type
DOCKED: USER                           _______ _______ _______ _____ _____    ______ ____
DOCKED: ROOT
DOCKED: ATOM      1  O   UNL     1     -37.200 -12.145  14.268 -0.06 -0.00    -0.346 OA 
DOCKED: ATOM      2  C   UNL     1     -38.524 -12.763  14.344 -0.17 +0.00    +0.130 C  
DOCKED: ATOM      3  C   UNL     1     -38.945 -12.888  12.908 -0.26 +0.00    +0.004 A  
DOCKED: ATOM      4  C   UNL     1     -37.908 -12.481  12.080 -0.36 +0.00    +0.006 A  
DOCKED: ATOM      5  C   UNL     1     -36.742 -12.076  12.897 -0.20 +0.00    +0.169 C  
DOCKED: ATOM      6  C   UNL     1     -40.145 -13.337  12.377 -0.27 -0.00    -0.001 A  
DOCKED: ATOM      7  C   UNL     1     -38.035 -12.504  10.702 -0.22 +0.00    +0.008 A  
DOCKED: ATOM      8  C   UNL     1     -40.290 -13.362  10.988 -0.38 +0.00    +0.010 A  
DOCKED: ATOM      9  C   UNL     1     -39.240 -12.948  10.155 -0.40 +0.00    +0.068 A  
DOCKED: ATOM     10  N   UNL     1     -39.541 -13.011   7.583 -3.18 -0.00    -0.191 NA 
DOCKED: ATOM     11  C   UNL     1     -39.406 -12.982   8.737 -0.32 +0.00    +0.101 C  
DOCKED: ENDROOT
DOCKED: BRANCH   2  12
DOCKED: ATOM     12  C   UNL     1     -38.389 -14.111  15.042 -0.30 +0.00    +0.038 C  
DOCKED: BRANCH  12  13
DOCKED: ATOM     13  C   UNL     1     -38.182 -13.940  16.546 -0.21 +0.00    +0.038 C  
DOCKED: BRANCH  13  14
DOCKED: ATOM     14  C   UNL     1     -36.766 -13.455  16.853 -0.11 +0.00    +0.251 C  
DOCKED: BRANCH  14  15
DOCKED: ATOM     15  N   UNL     1     -36.811 -12.197  17.590 -0.06 +0.00    +0.141 N  
DOCKED: ATOM     16  C   UNL     1     -36.169 -12.342  18.898 -0.03 +0.00    +0.285 C  
DOCKED: ATOM     17  C   UNL     1     -36.168 -11.128  16.825 -0.03 +0.00    +0.285 C  
DOCKED: ENDBRANCH  14  15
DOCKED: ENDBRANCH  13  14
DOCKED: ENDBRANCH  12  13
DOCKED: ENDBRANCH   2  12
DOCKED: BRANCH   2  18
DOCKED: ATOM     18  C   UNL     1     -39.394 -11.836  15.126 -0.09 +0.00    +0.006 A  
DOCKED: ATOM     19  C   UNL     1     -38.930 -10.566  15.466 -0.05 +0.00    +0.001 A  
DOCKED: ATOM     20  C   UNL     1     -39.744  -9.700  16.198 -0.02 +0.00    +0.029 A  
DOCKED: ATOM     21  C   UNL     1     -41.019 -10.105  16.587 -0.01 +0.00    +0.140 A  
DOCKED: ATOM     22  C   UNL     1     -41.483 -11.376  16.247 -0.04 +0.00    +0.029 A  
DOCKED: ATOM     23  F   UNL     1     -41.801  -9.274  17.288 +0.01 -0.00    -0.204 F  
DOCKED: ATOM     24  C   UNL     1     -40.669 -12.243  15.515 -0.09 +0.00    +0.001 A  
DOCKED: ENDBRANCH   2  18
DOCKED: TORSDOF 5
DOCKED: TER
DOCKED: ENDMDL
________________________________________________________________________________


    FINAL DOCKED STATE:
    ________________________


Run:   3 / 512
Time taken for this run:   0.002s

DOCKED: MODEL        3
DOCKED: USER    Run = 3
DOCKED: USER
DOCKED: USER    Estimated Free Energy of Binding    =  -3.82 kcal/mol  [=(1)+(2)+(3)-(4)]
DOCKED: USER
DOCKED: USER    (1) Final Intermolecular Energy     =  -5.31 kcal/mol
DOCKED: USER        vdW + Hbond + desolv Energy     =  -5.31 kcal/mol
DOCKED: USER        Electrostatic Energy            =  +0.00 kcal/mol
DOCKED: USER        Moving Ligand-Fixed Receptor    =  -5.31 kcal/mol
DOCKED: USER        Moving Ligand-Moving Receptor   =  +0.00 kcal/mol
DOCKED: USER    (2) Final Total Internal Energy     =  -1.23 kcal/mol
DOCKED: USER    (3) Torsional Free Energy           =  +1.49 kcal/mol
DOCKED: USER    (4) Unbound System's Energy         =  -1.23 kcal/mol
DOCKED: USER
DOCKED: USER
DOCKED: REMARK  5 active torsions:
DOCKED: REMARK  status: ('A' for Active; 'I' for Inactive)
DOCKED: REMARK    1  A    between atoms: C_2  and  C_19 
DOCKED: REMARK    2  A    between atoms: C_2  and  C_11 
DOCKED: REMARK    3  A    between atoms: C_19  and  C_20 
DOCKED: REMARK    4  A    between atoms: C_20  and  C_21 
DOCKED: REMARK    5  A    between atoms: C_21  and  N_22 
DOCKED: USER                              x       y       z     vdW  Elec       q    Type
DOCKED: USER                           _______ _______ _______ _____ _____    ______ ____
DOCKED: ROOT
DOCKED: ATOM      1  O   UNL     1     -35.295 -11.417  16.083 -0.05 -0.00    -0.346 OA 
DOCKED: ATOM      2  C   UNL     1     -35.488 -10.473  14.981 -0.11 +0.00    +0.130 C  
DOCKED: ATOM      3  C   UNL     1     -36.386 -11.210  14.030 -0.20 +0.00    +0.004 A  
DOCKED: ATOM      4  C   UNL     1     -36.764 -12.423  14.590 -0.22 +0.00    +0.006 A  
DOCKED: ATOM      5  C   UNL     1     -36.161 -12.565  15.934 -0.08 +0.00    +0.169 C  
DOCKED: ATOM      6  C   UNL     1     -36.843 -10.833  12.776 -0.21 -0.00    -0.001 A  
DOCKED: ATOM      7  C   UNL     1     -37.601 -13.297  13.918 -0.29 +0.00    +0.008 A  
DOCKED: ATOM      8  C   UNL     1     -37.684 -11.705  12.084 -0.34 +0.00    +0.010 A  
DOCKED: ATOM      9  C   UNL     1     -38.062 -12.930  12.652 -0.30 +0.00    +0.068 A  
DOCKED: ATOM     10  N   UNL     1     -39.630 -14.524  11.343 -2.50 -0.00    -0.191 NA 
DOCKED: ATOM     11  C   UNL     1     -38.926 -13.810  11.930 -0.28 +0.00    +0.101 C  
DOCKED: ENDROOT
DOCKED: BRANCH   2  12
DOCKED: ATOM     12  C   UNL     1     -36.124  -9.205  15.537 -0.04 +0.00    +0.038 C  
DOCKED: BRANCH  12  13
DOCKED: ATOM     13  C   UNL     1     -37.635  -9.365  15.699 -0.04 +0.00    +0.038 C  
DOCKED: BRANCH  13  14
DOCKED: ATOM     14  C   UNL     1     -38.078  -8.993  17.112 -0.00 +0.00    +0.251 C  
DOCKED: BRANCH  14  15
DOCKED: ATOM     15  N   UNL     1     -39.352  -9.629  17.428 -0.00 +0.00    +0.141 N  
DOCKED: ATOM     16  C   UNL     1     -40.452  -8.947  16.744 +0.00 +0.00    +0.285 C  
DOCKED: ATOM     17  C   UNL     1     -39.326 -11.046  17.060 -0.01 +0.00    +0.285 C  
DOCKED: ENDBRANCH  14  15
DOCKED: ENDBRANCH  13  14
DOCKED: ENDBRANCH  12  13
DOCKED: ENDBRANCH   2  12
DOCKED: BRANCH   2  18
DOCKED: ATOM     18  C   UNL     1     -34.139 -10.192  14.407 -0.13 +0.00    +0.006 A  
DOCKED: ATOM     19  C   UNL     1     -33.112 -11.124  14.551 -0.15 +0.00    +0.001 A  
DOCKED: ATOM     20  C   UNL     1     -31.852 -10.859  14.014 -0.12 +0.00    +0.029 A  
DOCKED: ATOM     21  C   UNL     1     -31.621  -9.665  13.333 -0.07 +0.00    +0.140 A  
DOCKED: ATOM     22  C   UNL     1     -32.649  -8.734  13.188 -0.09 +0.00    +0.029 A  
DOCKED: ATOM     23  F   UNL     1     -30.411  -9.412  12.816 -0.00 -0.00    -0.204 F  
DOCKED: ATOM     24  C   UNL     1     -33.910  -8.997  13.726 -0.10 +0.00    +0.001 A  
DOCKED: ENDBRANCH   2  18
DOCKED: TORSDOF 5
DOCKED: TER
DOCKED: ENDMDL
________________________________________________________________________________


    FINAL DOCKED STATE:
    ________________________


Run:   4 / 512
Time taken for this run:   0.002s

DOCKED: MODEL        4
DOCKED: USER    Run = 4
DOCKED: USER
DOCKED: USER    Estimated Free Energy of Binding    =  -4.49 kcal/mol  [=(1)+(2)+(3)-(4)]
DOCKED: USER
DOCKED: USER    (1) Final Intermolecular Energy     =  -5.98 kcal/mol
DOCKED: USER        vdW + Hbond + desolv Energy     =  -5.98 kcal/mol
DOCKED: USER        Electrostatic Energy            =  +0.00 kcal/mol
DOCKED: USER        Moving Ligand-Fixed Receptor    =  -5.98 kcal/mol
DOCKED: USER        Moving Ligand-Moving Receptor   =  +0.00 kcal/mol
DOCKED: USER    (2) Final Total Internal Energy     =  -1.30 kcal/mol
DOCKED: USER    (3) Torsional Free Energy           =  +1.49 kcal/mol
DOCKED: USER    (4) Unbound System's Energy         =  -1.30 kcal/mol
DOCKED: USER
DOCKED: USER
DOCKED: REMARK  5 active torsions:
DOCKED: REMARK  status: ('A' for Active; 'I' for Inactive)
DOCKED: REMARK    1  A    between atoms: C_2  and  C_19 
DOCKED: REMARK    2  A    between atoms: C_2  and  C_11 
DOCKED: REMARK    3  A    between atoms: C_19  and  C_20 
DOCKED: REMARK    4  A    between atoms: C_20  and  C_21 
DOCKED: REMARK    5  A    between atoms: C_21  and  N_22 
DOCKED: USER                              x       y       z     vdW  Elec       q    Type
DOCKED: USER                           _______ _______ _______ _____ _____    ______ ____
DOCKED: ROOT
DOCKED: ATOM      1  O   UNL     1     -36.979  -8.453  13.407 -0.05 -0.00    -0.346 OA 
DOCKED: ATOM      2  C   UNL     1     -38.417  -8.533  13.667 -0.13 +0.00    +0.130 C  
DOCKED: ATOM      3  C   UNL     1     -38.798  -9.897  13.168 -0.21 +0.00    +0.004 A  
DOCKED: ATOM      4  C   UNL     1     -37.660 -10.579  12.760 -0.27 +0.00    +0.006 A  
DOCKED: ATOM      5  C   UNL     1     -36.464  -9.733  12.970 -0.18 +0.00    +0.169 C  
DOCKED: ATOM      6  C   UNL     1     -40.049 -10.491  13.092 -0.21 -0.00    -0.001 A  
DOCKED: ATOM      7  C   UNL     1     -37.733 -11.869  12.261 -0.33 +0.00    +0.008 A  
DOCKED: ATOM      8  C   UNL     1     -40.140 -11.789  12.587 -0.23 +0.00    +0.010 A  
DOCKED: ATOM      9  C   UNL     1     -38.988 -12.474  12.174 -0.27 +0.00    +0.068 A  
DOCKED: ATOM     10  N   UNL     1     -39.191 -14.885  11.246 -2.55 -0.00    -0.191 NA 
DOCKED: ATOM     11  C   UNL     1     -39.100 -13.803  11.661 -0.37 +0.00    +0.101 C  
DOCKED: ENDROOT
DOCKED: BRANCH   2  12
DOCKED: ATOM     12  C   UNL     1     -38.646  -8.364  15.165 -0.04 +0.00    +0.038 C  
DOCKED: BRANCH  12  13
DOCKED: ATOM     13  C   UNL     1     -37.330  -8.411  15.938 -0.02 +0.00    +0.038 C  
DOCKED: BRANCH  13  14
DOCKED: ATOM     14  C   UNL     1     -36.980  -9.843  16.340 -0.01 +0.00    +0.251 C  
DOCKED: BRANCH  14  15
DOCKED: ATOM     15  N   UNL     1     -35.536  -9.990  16.488 -0.02 +0.00    +0.141 N  
DOCKED: ATOM     16  C   UNL     1     -35.078 -11.233  15.867 -0.06 +0.00    +0.285 C  
DOCKED: ATOM     17  C   UNL     1     -34.839  -8.843  15.902 -0.01 +0.00    +0.285 C  
DOCKED: ENDBRANCH  14  15
DOCKED: ENDBRANCH  13  14
DOCKED: ENDBRANCH  12  13
DOCKED: ENDBRANCH   2  12
DOCKED: BRANCH   2  18
DOCKED: ATOM     18  C   UNL     1     -39.062  -7.431  12.896 -0.19 +0.00    +0.006 A  
DOCKED: ATOM     19  C   UNL     1     -40.452  -7.344  12.835 -0.22 +0.00    +0.001 A  
DOCKED: ATOM     20  C   UNL     1     -41.054  -6.313  12.113 -0.16 +0.00    +0.029 A  
DOCKED: ATOM     21  C   UNL     1     -40.266  -5.370  11.454 -0.08 +0.00    +0.140 A  
DOCKED: ATOM     22  C   UNL     1     -38.876  -5.457  11.517 -0.16 +0.00    +0.029 A  
DOCKED: ATOM     23  F   UNL     1     -40.844  -4.379  10.763 -0.03 -0.00    -0.204 F  
DOCKED: ATOM     24  C   UNL     1     -38.272  -6.489  12.238 -0.16 +0.00    +0.001 A  
DOCKED: ENDBRANCH   2  18
DOCKED: TORSDOF 5
DOCKED: TER
DOCKED: ENDMDL
________________________________________________________________________________


    FINAL DOCKED STATE:
    ________________________


Run:   5 / 512
Time taken for this run:   0.002s

DOCKED: MODEL        5
DOCKED: USER    Run = 5
DOCKED: USER
DOCKED: USER    Estimated Free Energy of Binding    =  -3.71 kcal/mol  [=(1)+(2)+(3)-(4)]
DOCKED: USER
DOCKED: USER    (1) Final Intermolecular Energy     =  -5.20 kcal/mol
DOCKED: USER        vdW + Hbond + desolv Energy     =  -5.20 kcal/mol
DOCKED: USER        Electrostatic Energy            =  +0.00 kcal/mol
DOCKED: USER        Moving Ligand-Fixed Receptor    =  -5.20 kcal/mol
DOCKED: USER        Moving Ligand-Moving Receptor   =  +0.00 kcal/mol
DOCKED: USER    (2) Final Total Internal Energy     =  -1.28 kcal/mol
DOCKED: USER    (3) Torsional Free Energy           =  +1.49 kcal/mol
DOCKED: USER    (4) Unbound System's Energy         =  -1.28 kcal/mol
DOCKED: USER
DOCKED: USER
DOCKED: REMARK  5 active torsions:
DOCKED: REMARK  status: ('A' for Active; 'I' for Inactive)
DOCKED: REMARK    1  A    between atoms: C_2  and  C_19 
DOCKED: REMARK    2  A    between atoms: C_2  and  C_11 
DOCKED: REMARK    3  A    between atoms: C_19  and  C_20 
DOCKED: REMARK    4  A    between atoms: C_20  and  C_21 
DOCKED: REMARK    5  A    between atoms: C_21  and  N_22 
DOCKED: USER                              x       y       z     vdW  Elec       q    Type
DOCKED: USER                           _______ _______ _______ _____ _____    ______ ____
DOCKED: ROOT
DOCKED: ATOM      1  O   UNL     1     -33.312  -4.469   6.150 -0.04 -0.00    -0.346 OA 
DOCKED: ATOM      2  C   UNL     1     -32.389  -3.566   5.463 -0.11 +0.00    +0.130 C  
DOCKED: ATOM      3  C   UNL     1     -33.215  -2.983   4.353 -0.17 +0.00    +0.004 A  
DOCKED: ATOM      4  C   UNL     1     -34.525  -3.427   4.463 -0.26 +0.00    +0.006 A  
DOCKED: ATOM      5  C   UNL     1     -34.658  -4.312   5.642 -0.21 +0.00    +0.169 C  
DOCKED: ATOM      6  C   UNL     1     -32.841  -2.118   3.335 -0.16 -0.00    -0.001 A  
DOCKED: ATOM      7  C   UNL     1     -35.499  -3.030   3.563 -0.30 +0.00    +0.008 A  
DOCKED: ATOM      8  C   UNL     1     -33.810  -1.712   2.417 -0.28 +0.00    +0.010 A  
DOCKED: ATOM      9  C   UNL     1     -35.133  -2.166   2.531 -0.35 +0.00    +0.068 A  
DOCKED: ATOM     10  N   UNL     1     -36.909  -1.388   0.812 -2.56 -0.00    -0.191 NA 
DOCKED: ATOM     11  C   UNL     1     -36.112  -1.738   1.582 -0.37 +0.00    +0.101 C  
DOCKED: ENDROOT
DOCKED: BRANCH   2  12
DOCKED: ATOM     12  C   UNL     1     -31.908  -2.518   6.459 -0.12 +0.00    +0.038 C  
DOCKED: BRANCH  12  13
DOCKED: ATOM     13  C   UNL     1     -32.194  -2.944   7.897 -0.03 +0.00    +0.038 C  
DOCKED: BRANCH  13  14
DOCKED: ATOM     14  C   UNL     1     -31.324  -4.134   8.301 -0.05 +0.00    +0.251 C  
DOCKED: BRANCH  14  15
DOCKED: ATOM     15  N   UNL     1     -30.048  -3.672   8.833 -0.03 +0.00    +0.141 N  
DOCKED: ATOM     16  C   UNL     1     -28.940  -4.152   8.006 -0.00 +0.00    +0.285 C  
DOCKED: ATOM     17  C   UNL     1     -30.023  -2.210   8.917 -0.05 +0.00    +0.285 C  
DOCKED: ENDBRANCH  14  15
DOCKED: ENDBRANCH  13  14
DOCKED: ENDBRANCH  12  13
DOCKED: ENDBRANCH   2  12
DOCKED: BRANCH   2  18
DOCKED: ATOM     18  C   UNL     1     -31.253  -4.398   4.966 -0.03 +0.00    +0.006 A  
DOCKED: ATOM     19  C   UNL     1     -31.390  -5.783   4.881 -0.03 +0.00    +0.001 A  
DOCKED: ATOM     20  C   UNL     1     -30.327  -6.559   4.418 -0.01 +0.00    +0.029 A  
DOCKED: ATOM     21  C   UNL     1     -29.131  -5.950   4.039 -0.00 +0.00    +0.140 A  
DOCKED: ATOM     22  C   UNL     1     -28.996  -4.565   4.124 -0.00 +0.00    +0.029 A  
DOCKED: ATOM     23  F   UNL     1     -28.112  -6.696   3.592 +0.00 -0.00    -0.204 F  
DOCKED: ATOM     24  C   UNL     1     -30.058  -3.787   4.588 -0.02 +0.00    +0.001 A  
DOCKED: ENDBRANCH   2  18
DOCKED: TORSDOF 5
DOCKED: TER
DOCKED: ENDMDL
________________________________________________________________________________


    FINAL DOCKED STATE:
    ________________________


Run:   6 / 512
Time taken for this run:   0.002s

DOCKED: MODEL        6
DOCKED: USER    Run = 6
DOCKED: USER
DOCKED: USER    Estimated Free Energy of Binding    =  -5.47 kcal/mol  [=(1)+(2)+(3)-(4)]
DOCKED: USER
DOCKED: USER    (1) Final Intermolecular Energy     =  -6.96 kcal/mol
DOCKED: USER        vdW + Hbond + desolv Energy     =  -6.96 kcal/mol
DOCKED: USER        Electrostatic Energy            =  +0.00 kcal/mol
DOCKED: USER        Moving Ligand-Fixed Receptor    =  -6.96 kcal/mol
DOCKED: USER        Moving Ligand-Moving Receptor   =  +0.00 kcal/mol
DOCKED: USER    (2) Final Total Internal Energy     =  -1.50 kcal/mol
DOCKED: USER    (3) Torsional Free Energy           =  +1.49 kcal/mol
DOCKED: USER    (4) Unbound System's Energy         =  -1.50 kcal/mol
DOCKED: USER
DOCKED: USER
DOCKED: REMARK  5 active torsions:
DOCKED: REMARK  status: ('A' for Active; 'I' for Inactive)
DOCKED: REMARK    1  A    between atoms: C_2  and  C_19 
DOCKED: REMARK    2  A    between atoms: C_2  and  C_11 
DOCKED: REMARK    3  A    between atoms: C_19  and  C_20 
DOCKED: REMARK    4  A    between atoms: C_20  and  C_21 
DOCKED: REMARK    5  A    between atoms: C_21  and  N_22 
DOCKED: USER                              x       y       z     vdW  Elec       q    Type
DOCKED: USER                           _______ _______ _______ _____ _____    ______ ____
DOCKED: ROOT
DOCKED: ATOM      1  O   UNL     1     -37.762 -11.908  13.977 -0.04 -0.00    -0.346 OA 
DOCKED: ATOM      2  C   UNL     1     -39.099 -12.502  14.004 -0.15 +0.00    +0.130 C  
DOCKED: ATOM      3  C   UNL     1     -39.406 -12.763  12.557 -0.27 +0.00    +0.004 A  
DOCKED: ATOM      4  C   UNL     1     -38.299 -12.450  11.781 -0.38 +0.00    +0.006 A  
DOCKED: ATOM      5  C   UNL     1     -37.196 -11.979  12.647 -0.25 +0.00    +0.169 C  
DOCKED: ATOM      6  C   UNL     1     -40.568 -13.250  11.976 -0.30 -0.00    -0.001 A  
DOCKED: ATOM      7  C   UNL     1     -38.316 -12.606  10.406 -0.33 +0.00    +0.008 A  
DOCKED: ATOM      8  C   UNL     1     -40.602 -13.410  10.590 -0.31 +0.00    +0.010 A  
DOCKED: ATOM      9  C   UNL     1     -39.481 -13.090   9.809 -0.39 +0.00    +0.068 A  
DOCKED: ATOM     10  N   UNL     1     -39.576 -13.403   7.239 -3.05 -0.00    -0.191 NA 
DOCKED: ATOM     11  C   UNL     1     -39.534 -13.262   8.391 -0.28 +0.00    +0.101 C  
DOCKED: ENDROOT
DOCKED: BRANCH   2  12
DOCKED: ATOM     12  C   UNL     1     -39.045 -13.777  14.838 -0.26 +0.00    +0.038 C  
DOCKED: BRANCH  12  13
DOCKED: ATOM     13  C   UNL     1     -37.604 -14.170  15.159 -0.30 +0.00    +0.038 C  
DOCKED: BRANCH  13  14
DOCKED: ATOM     14  C   UNL     1     -37.172 -13.614  16.515 -0.14 +0.00    +0.251 C  
DOCKED: BRANCH  14  15
DOCKED: ATOM     15  N   UNL     1     -38.144 -12.640  16.996 -0.07 +0.00    +0.141 N  
DOCKED: ATOM     16  C   UNL     1     -38.892 -13.176  18.135 -0.05 +0.00    +0.285 C  
DOCKED: ATOM     17  C   UNL     1     -37.479 -11.390  17.369 -0.02 +0.00    +0.285 C  
DOCKED: ENDBRANCH  14  15
DOCKED: ENDBRANCH  13  14
DOCKED: ENDBRANCH  12  13
DOCKED: ENDBRANCH   2  12
DOCKED: BRANCH   2  18
DOCKED: ATOM     18  C   UNL     1     -40.012 -11.495  14.619 -0.09 +0.00    +0.006 A  
DOCKED: ATOM     19  C   UNL     1     -41.277 -11.879  15.063 -0.09 +0.00    +0.001 A  
DOCKED: ATOM     20  C   UNL     1     -42.129 -10.935  15.638 -0.06 +0.00    +0.029 A  
DOCKED: ATOM     21  C   UNL     1     -41.716  -9.611  15.768 -0.01 +0.00    +0.140 A  
DOCKED: ATOM     22  C   UNL     1     -40.451  -9.227  15.325 -0.04 +0.00    +0.029 A  
DOCKED: ATOM     23  F   UNL     1     -42.534  -8.706  16.322 +0.01 -0.00    -0.204 F  
DOCKED: ATOM     24  C   UNL     1     -39.597 -10.170  14.749 -0.07 +0.00    +0.001 A  
DOCKED: ENDBRANCH   2  18
DOCKED: TORSDOF 5
DOCKED: TER
DOCKED: ENDMDL
________________________________________________________________________________


    FINAL DOCKED STATE:
    ________________________


Run:   7 / 512
Time taken for this run:   0.002s

DOCKED: MODEL        7
DOCKED: USER    Run = 7
DOCKED: USER
DOCKED: USER    Estimated Free Energy of Binding    =  -4.25 kcal/mol  [=(1)+(2)+(3)-(4)]
DOCKED: USER
DOCKED: USER    (1) Final Intermolecular Energy     =  -5.74 kcal/mol
DOCKED: USER        vdW + Hbond + desolv Energy     =  -5.74 kcal/mol
DOCKED: USER        Electrostatic Energy            =  +0.00 kcal/mol
DOCKED: USER        Moving Ligand-Fixed Receptor    =  -5.74 kcal/mol
DOCKED: USER        Moving Ligand-Moving Receptor   =  +0.00 kcal/mol
DOCKED: USER    (2) Final Total Internal Energy     =  -1.22 kcal/mol
DOCKED: USER    (3) Torsional Free Energy           =  +1.49 kcal/mol
DOCKED: USER    (4) Unbound System's Energy         =  -1.22 kcal/mol
DOCKED: USER
DOCKED: USER
DOCKED: REMARK  5 active torsions:
DOCKED: REMARK  status: ('A' for Active; 'I' for Inactive)
DOCKED: REMARK    1  A    between atoms: C_2  and  C_19 
DOCKED: REMARK    2  A    between atoms: C_2  and  C_11 
DOCKED: REMARK    3  A    between atoms: C_19  and  C_20 
DOCKED: REMARK    4  A    between atoms: C_20  and  C_21 
DOCKED: REMARK    5  A    between atoms: C_21  and  N_22 
DOCKED: USER                              x       y       z     vdW  Elec       q    Type
DOCKED: USER                           _______ _______ _______ _____ _____    ______ ____
DOCKED: ROOT
DOCKED: ATOM      1  O   UNL     1     -39.029 -10.673  14.187 -0.02 -0.00    -0.346 OA 
DOCKED: ATOM      2  C   UNL     1     -37.943 -11.650  14.086 -0.14 +0.00    +0.130 C  
DOCKED: ATOM      3  C   UNL     1     -38.200 -12.339  12.777 -0.30 +0.00    +0.004 A  
DOCKED: ATOM      4  C   UNL     1     -39.272 -11.736  12.134 -0.29 +0.00    +0.006 A  
DOCKED: ATOM      5  C   UNL     1     -39.783 -10.615  12.954 -0.18 +0.00    +0.169 C  
DOCKED: ATOM      6  C   UNL     1     -37.532 -13.407  12.197 -0.41 -0.00    -0.001 A  
DOCKED: ATOM      7  C   UNL     1     -39.714 -12.179  10.899 -0.04 +0.00    +0.008 A  
DOCKED: ATOM      8  C   UNL     1     -37.968 -13.868  10.953 -0.43 +0.00    +0.010 A  
DOCKED: ATOM      9  C   UNL     1     -39.053 -13.257  10.308 -0.43 +0.00    +0.068 A  
DOCKED: ATOM     10  N   UNL     1     -39.833 -14.134   7.998 -1.97 -0.00    -0.191 NA 
DOCKED: ATOM     11  C   UNL     1     -39.484 -13.741   9.034 -0.43 +0.00    +0.101 C  
DOCKED: ENDROOT
DOCKED: BRANCH   2  12
DOCKED: ATOM     12  C   UNL     1     -36.616 -10.901  14.111 -0.20 +0.00    +0.038 C  
DOCKED: BRANCH  12  13
DOCKED: ATOM     13  C   UNL     1     -36.347 -10.291  15.486 -0.08 +0.00    +0.038 C  
DOCKED: BRANCH  13  14
DOCKED: ATOM     14  C   UNL     1     -37.175  -9.025  15.696 -0.01 +0.00    +0.251 C  
DOCKED: BRANCH  14  15
DOCKED: ATOM     15  N   UNL     1     -37.259  -8.704  17.116 -0.00 +0.00    +0.141 N  
DOCKED: ATOM     16  C   UNL     1     -36.096  -7.922  17.538 -0.00 +0.00    +0.285 C  
DOCKED: ATOM     17  C   UNL     1     -38.494  -7.974  17.408 +0.00 +0.00    +0.285 C  
DOCKED: ENDBRANCH  14  15
DOCKED: ENDBRANCH  13  14
DOCKED: ENDBRANCH  12  13
DOCKED: ENDBRANCH   2  12
DOCKED: BRANCH   2  18
DOCKED: ATOM     18  C   UNL     1     -38.068 -12.564  15.259 -0.15 +0.00    +0.006 A  
DOCKED: ATOM     19  C   UNL     1     -39.050 -12.332  16.222 -0.10 +0.00    +0.001 A  
DOCKED: ATOM     20  C   UNL     1     -39.165 -13.187  17.318 -0.12 +0.00    +0.029 A  
DOCKED: ATOM     21  C   UNL     1     -38.300 -14.272  17.450 -0.05 +0.00    +0.140 A  
DOCKED: ATOM     22  C   UNL     1     -37.319 -14.504  16.487 -0.18 +0.00    +0.029 A  
DOCKED: ATOM     23  F   UNL     1     -38.413 -15.094  18.502 -0.05 -0.00    -0.204 F  
DOCKED: ATOM     24  C   UNL     1     -37.202 -13.649  15.390 -0.17 +0.00    +0.001 A  
DOCKED: ENDBRANCH   2  18
DOCKED: TORSDOF 5
DOCKED: TER
DOCKED: ENDMDL
________________________________________________________________________________


    FINAL DOCKED STATE:
    ________________________


Run:   8 / 512
Time taken for this run:   0.002s

DOCKED: MODEL        8
DOCKED: USER    Run = 8
DOCKED: USER
DOCKED: USER    Estimated Free Energy of Binding    =  -3.99 kcal/mol  [=(1)+(2)+(3)-(4)]
DOCKED: USER
DOCKED: USER    (1) Final Intermolecular Energy     =  -5.49 kcal/mol
DOCKED: USER        vdW + Hbond + desolv Energy     =  -5.49 kcal/mol
DOCKED: USER        Electrostatic Energy            =  +0.00 kcal/mol
DOCKED: USER        Moving Ligand-Fixed Receptor    =  -5.49 kcal/mol
DOCKED: USER        Moving Ligand-Moving Receptor   =  +0.00 kcal/mol
DOCKED: USER    (2) Final Total Internal Energy     =  -1.21 kcal/mol
DOCKED: USER    (3) Torsional Free Energy           =  +1.49 kcal/mol
DOCKED: USER    (4) Unbound System's Energy         =  -1.21 kcal/mol
DOCKED: USER
DOCKED: USER
DOCKED: REMARK  5 active torsions:
DOCKED: REMARK  status: ('A' for Active; 'I' for Inactive)
DOCKED: REMARK    1  A    between atoms: C_2  and  C_19 
DOCKED: REMARK    2  A    between atoms: C_2  and  C_11 
DOCKED: REMARK    3  A    between atoms: C_19  and  C_20 
DOCKED: REMARK    4  A    between atoms: C_20  and  C_21 
DOCKED: REMARK    5  A    between atoms: C_21  and  N_22 
DOCKED: USER                              x       y       z     vdW  Elec       q    Type
DOCKED: USER                           _______ _______ _______ _____ _____    ______ ____
DOCKED: ROOT
DOCKED: ATOM      1  O   UNL     1     -35.249 -10.454  14.975 -0.05 -0.00    -0.346 OA 
DOCKED: ATOM      2  C   UNL     1     -36.400  -9.697  14.480 -0.09 +0.00    +0.130 C  
DOCKED: ATOM      3  C   UNL     1     -37.148 -10.690  13.638 -0.20 +0.00    +0.004 A  
DOCKED: ATOM      4  C   UNL     1     -36.540 -11.934  13.733 -0.26 +0.00    +0.006 A  
DOCKED: ATOM      5  C   UNL     1     -35.373 -11.856  14.640 -0.17 +0.00    +0.169 C  
DOCKED: ATOM      6  C   UNL     1     -38.282 -10.510  12.860 -0.25 -0.00    -0.001 A  
DOCKED: ATOM      7  C   UNL     1     -37.038 -13.033  13.054 -0.35 +0.00    +0.008 A  
DOCKED: ATOM      8  C   UNL     1     -38.794 -11.607  12.166 -0.31 +0.00    +0.010 A  
DOCKED: ATOM      9  C   UNL     1     -38.175 -12.863  12.263 -0.31 +0.00    +0.068 A  
DOCKED: ATOM     10  N   UNL     1     -39.155 -14.880  10.966 -2.37 -0.00    -0.191 NA 
DOCKED: ATOM     11  C   UNL     1     -38.715 -13.975  11.547 -0.34 +0.00    +0.101 C  
DOCKED: ENDROOT
DOCKED: BRANCH   2  12
DOCKED: ATOM     12  C   UNL     1     -37.207  -9.207  15.677 -0.04 +0.00    +0.038 C  
DOCKED: BRANCH  12  13
DOCKED: ATOM     13  C   UNL     1     -38.256 -10.234  16.100 -0.04 +0.00    +0.038 C  
DOCKED: BRANCH  13  14
DOCKED: ATOM     14  C   UNL     1     -37.671 -11.242  17.087 -0.02 +0.00    +0.251 C  
DOCKED: BRANCH  14  15
DOCKED: ATOM     15  N   UNL     1     -38.390 -12.508  17.006 -0.06 +0.00    +0.141 N  
DOCKED: ATOM     16  C   UNL     1     -39.264 -12.681  18.167 -0.03 +0.00    +0.285 C  
DOCKED: ATOM     17  C   UNL     1     -39.170 -12.579  15.769 -0.05 +0.00    +0.285 C  
DOCKED: ENDBRANCH  14  15
DOCKED: ENDBRANCH  13  14
DOCKED: ENDBRANCH  12  13
DOCKED: ENDBRANCH   2  12
DOCKED: BRANCH   2  18
DOCKED: ATOM     18  C   UNL     1     -35.862  -8.553  13.689 -0.12 +0.00    +0.006 A  
DOCKED: ATOM     19  C   UNL     1     -34.616  -8.011  14.005 -0.06 +0.00    +0.001 A  
DOCKED: ATOM     20  C   UNL     1     -34.114  -6.941  13.265 -0.04 +0.00    +0.029 A  
DOCKED: ATOM     21  C   UNL     1     -34.857  -6.414  12.209 -0.05 +0.00    +0.140 A  
DOCKED: ATOM     22  C   UNL     1     -36.102  -6.956  11.893 -0.10 +0.00    +0.029 A  
DOCKED: ATOM     23  F   UNL     1     -34.374  -5.387  11.497 -0.00 -0.00    -0.204 F  
DOCKED: ATOM     24  C   UNL     1     -36.606  -8.026  12.634 -0.16 +0.00    +0.001 A  
DOCKED: ENDBRANCH   2  18
DOCKED: TORSDOF 5
DOCKED: TER
DOCKED: ENDMDL
________________________________________________________________________________


    FINAL DOCKED STATE:
    ________________________


Run:   9 / 512
Time taken for this run:   0.002s

DOCKED: MODEL        9
DOCKED: USER    Run = 9
DOCKED: USER
DOCKED: USER    Estimated Free Energy of Binding    =  -4.13 kcal/mol  [=(1)+(2)+(3)-(4)]
DOCKED: USER
DOCKED: USER    (1) Final Intermolecular Energy     =  -5.62 kcal/mol
DOCKED: USER        vdW + Hbond + desolv Energy     =  -5.62 kcal/mol
DOCKED: USER        Electrostatic Energy            =  +0.00 kcal/mol
DOCKED: USER        Moving Ligand-Fixed Receptor    =  -5.62 kcal/mol
DOCKED: USER        Moving Ligand-Moving Receptor   =  +0.00 kcal/mol
DOCKED: USER    (2) Final Total Internal Energy     =  -0.99 kcal/mol
DOCKED: USER    (3) Torsional Free Energy           =  +1.49 kcal/mol
DOCKED: USER    (4) Unbound System's Energy         =  -0.99 kcal/mol
DOCKED: USER
DOCKED: USER
DOCKED: REMARK  5 active torsions:
DOCKED: REMARK  status: ('A' for Active; 'I' for Inactive)
DOCKED: REMARK    1  A    between atoms: C_2  and  C_19 
DOCKED: REMARK    2  A    between atoms: C_2  and  C_11 
DOCKED: REMARK    3  A    between atoms: C_19  and  C_20 
DOCKED: REMARK    4  A    between atoms: C_20  and  C_21 
DOCKED: REMARK    5  A    between atoms: C_21  and  N_22 
DOCKED: USER                              x       y       z     vdW  Elec       q    Type
DOCKED: USER                           _______ _______ _______ _____ _____    ______ ____
DOCKED: ROOT
DOCKED: ATOM      1  O   UNL     1     -36.664  -8.968  13.754 -0.04 -0.00    -0.346 OA 
DOCKED: ATOM      2  C   UNL     1     -35.832 -10.097  14.172 -0.13 +0.00    +0.130 C  
DOCKED: ATOM      3  C   UNL     1     -36.515 -11.290  13.566 -0.23 +0.00    +0.004 A  
DOCKED: ATOM      4  C   UNL     1     -37.578 -10.870  12.779 -0.28 +0.00    +0.006 A  
DOCKED: ATOM      5  C   UNL     1     -37.664  -9.392  12.799 -0.20 +0.00    +0.169 C  
DOCKED: ATOM      6  C   UNL     1     -36.211 -12.638  13.691 -0.29 -0.00    -0.001 A  
DOCKED: ATOM      7  C   UNL     1     -38.373 -11.776  12.099 -0.34 +0.00    +0.008 A  
DOCKED: ATOM      8  C   UNL     1     -37.006 -13.564  13.015 -0.39 +0.00    +0.010 A  
DOCKED: ATOM      9  C   UNL     1     -38.081 -13.135  12.222 -0.33 +0.00    +0.068 A  
DOCKED: ATOM     10  N   UNL     1     -39.534 -14.881  10.975 -2.36 -0.00    -0.191 NA 
DOCKED: ATOM     11  C   UNL     1     -38.883 -14.098  11.535 -0.31 +0.00    +0.101 C  
DOCKED: ENDROOT
DOCKED: BRANCH   2  12
DOCKED: ATOM     12  C   UNL     1     -34.422  -9.884  13.634 -0.06 +0.00    +0.038 C  
DOCKED: BRANCH  12  13
DOCKED: ATOM     13  C   UNL     1     -34.104  -8.398  13.481 -0.10 +0.00    +0.038 C  
DOCKED: BRANCH  13  14
DOCKED: ATOM     14  C   UNL     1     -34.474  -7.898  12.085 -0.10 +0.00    +0.251 C  
DOCKED: BRANCH  14  15
DOCKED: ATOM     15  N   UNL     1     -33.271  -7.675  11.291 -0.08 +0.00    +0.141 N  
DOCKED: ATOM     16  C   UNL     1     -32.345  -8.799  11.430 -0.07 +0.00    +0.285 C  
DOCKED: ATOM     17  C   UNL     1     -33.614  -7.469   9.883 -0.09 +0.00    +0.285 C  
DOCKED: ENDBRANCH  14  15
DOCKED: ENDBRANCH  13  14
DOCKED: ENDBRANCH  12  13
DOCKED: ENDBRANCH   2  12
DOCKED: BRANCH   2  18
DOCKED: ATOM     18  C   UNL     1     -35.842 -10.118  15.664 -0.06 +0.00    +0.006 A  
DOCKED: ATOM     19  C   UNL     1     -35.404 -11.251  16.348 -0.09 +0.00    +0.001 A  
DOCKED: ATOM     20  C   UNL     1     -35.414 -11.269  17.744 -0.05 +0.00    +0.029 A  
DOCKED: ATOM     21  C   UNL     1     -35.862 -10.154  18.452 -0.01 +0.00    +0.140 A  
DOCKED: ATOM     22  C   UNL     1     -36.300  -9.021  17.767 -0.00 +0.00    +0.029 A  
DOCKED: ATOM     23  F   UNL     1     -35.870 -10.171  19.791 +0.00 -0.00    -0.204 F  
DOCKED: ATOM     24  C   UNL     1     -36.291  -9.003  16.371 -0.02 +0.00    +0.001 A  
DOCKED: ENDBRANCH   2  18
DOCKED: TORSDOF 5
DOCKED: TER
DOCKED: ENDMDL
________________________________________________________________________________


    FINAL DOCKED STATE:
    ________________________


Run:   10 / 512
Time taken for this run:   0.002s

DOCKED: MODEL        10
DOCKED: USER    Run = 10
DOCKED: USER
DOCKED: USER    Estimated Free Energy of Binding    =  -6.81 kcal/mol  [=(1)+(2)+(3)-(4)]
DOCKED: USER
DOCKED: USER    (1) Final Intermolecular Energy     =  -8.31 kcal/mol
DOCKED: USER        vdW + Hbond + desolv Energy     =  -8.31 kcal/mol
DOCKED: USER        Electrostatic Energy            =  +0.00 kcal/mol
DOCKED: USER        Moving Ligand-Fixed Receptor    =  -8.31 kcal/mol
DOCKED: USER        Moving Ligand-Moving Receptor   =  +0.00 kcal/mol
DOCKED: USER    (2) Final Total Internal Energy     =  -0.97 kcal/mol
DOCKED: USER    (3) Torsional Free Energy           =  +1.49 kcal/mol
DOCKED: USER    (4) Unbound System's Energy         =  -0.97 kcal/mol
DOCKED: USER
DOCKED: USER
DOCKED: REMARK  5 active torsions:
DOCKED: REMARK  status: ('A' for Active; 'I' for Inactive)
DOCKED: REMARK    1  A    between atoms: C_2  and  C_19 
DOCKED: REMARK    2  A    between atoms: C_2  and  C_11 
DOCKED: REMARK    3  A    between atoms: C_19  and  C_20 
DOCKED: REMARK    4  A    between atoms: C_20  and  C_21 
DOCKED: REMARK    5  A    between atoms: C_21  and  N_22 
DOCKED: USER                              x       y       z     vdW  Elec       q    Type
DOCKED: USER                           _______ _______ _______ _____ _____    ______ ____
DOCKED: ROOT
DOCKED: ATOM      1  O   UNL     1     -36.508 -14.393  13.447 -0.48 -0.00    -0.346 OA 
DOCKED: ATOM      2  C   UNL     1     -37.630 -13.489  13.705 -0.29 +0.00    +0.130 C  
DOCKED: ATOM      3  C   UNL     1     -38.267 -13.313  12.357 -0.37 +0.00    +0.004 A  
DOCKED: ATOM      4  C   UNL     1     -37.633 -14.130  11.431 -0.40 +0.00    +0.006 A  
DOCKED: ATOM      5  C   UNL     1     -36.558 -14.902  12.094 -0.15 +0.00    +0.169 C  
DOCKED: ATOM      6  C   UNL     1     -39.329 -12.503  11.982 -0.32 -0.00    -0.001 A  
DOCKED: ATOM      7  C   UNL     1     -38.034 -14.163  10.106 -0.31 +0.00    +0.008 A  
DOCKED: ATOM      8  C   UNL     1     -39.742 -12.522  10.649 -0.27 +0.00    +0.010 A  
DOCKED: ATOM      9  C   UNL     1     -39.098 -13.348   9.716 -0.46 +0.00    +0.068 A  
DOCKED: ATOM     10  N   UNL     1     -39.892 -13.363   7.250 -3.30 -0.00    -0.191 NA 
DOCKED: ATOM     11  C   UNL     1     -39.535 -13.356   8.356 -0.29 +0.00    +0.101 C  
DOCKED: ENDROOT
DOCKED: BRANCH   2  12
DOCKED: ATOM     12  C   UNL     1     -38.558 -14.149  14.718 -0.31 +0.00    +0.038 C  
DOCKED: BRANCH  12  13
DOCKED: ATOM     13  C   UNL     1     -39.673 -13.200  15.153 -0.19 +0.00    +0.038 C  
DOCKED: BRANCH  13  14
DOCKED: ATOM     14  C   UNL     1     -40.176 -13.547  16.552 -0.08 +0.00    +0.251 C  
DOCKED: BRANCH  14  15
DOCKED: ATOM     15  N   UNL     1     -41.511 -14.129  16.482 -0.12 +0.00    +0.141 N  
DOCKED: ATOM     16  C   UNL     1     -42.458 -13.347  17.277 -0.02 +0.00    +0.285 C  
DOCKED: ATOM     17  C   UNL     1     -41.963 -14.214  15.092 -0.09 +0.00    +0.285 C  
DOCKED: ENDBRANCH  14  15
DOCKED: ENDBRANCH  13  14
DOCKED: ENDBRANCH  12  13
DOCKED: ENDBRANCH   2  12
DOCKED: BRANCH   2  18
DOCKED: ATOM     18  C   UNL     1     -37.055 -12.223  14.246 -0.22 +0.00    +0.006 A  
DOCKED: ATOM     19  C   UNL     1     -36.702 -12.138  15.593 -0.14 +0.00    +0.001 A  
DOCKED: ATOM     20  C   UNL     1     -36.165 -10.953  16.098 -0.07 +0.00    +0.029 A  
DOCKED: ATOM     21  C   UNL     1     -35.980  -9.857  15.256 -0.05 +0.00    +0.140 A  
DOCKED: ATOM     22  C   UNL     1     -36.333  -9.943  13.910 -0.15 +0.00    +0.029 A  
DOCKED: ATOM     23  F   UNL     1     -35.463  -8.720  15.741 +0.00 -0.00    -0.204 F  
DOCKED: ATOM     24  C   UNL     1     -36.871 -11.127  13.404 -0.24 +0.00    +0.001 A  
DOCKED: ENDBRANCH   2  18
DOCKED: TORSDOF 5
DOCKED: TER
DOCKED: ENDMDL
________________________________________________________________________________


    FINAL DOCKED STATE:
    ________________________


Run:   11 / 512
Time taken for this run:   0.002s

DOCKED: MODEL        11
DOCKED: USER    Run = 11
DOCKED: USER
DOCKED: USER    Estimated Free Energy of Binding    =  -3.74 kcal/mol  [=(1)+(2)+(3)-(4)]
DOCKED: USER
DOCKED: USER    (1) Final Intermolecular Energy     =  -5.23 kcal/mol
DOCKED: USER        vdW + Hbond + desolv Energy     =  -5.23 kcal/mol
DOCKED: USER        Electrostatic Energy            =  +0.00 kcal/mol
DOCKED: USER        Moving Ligand-Fixed Receptor    =  -5.23 kcal/mol
DOCKED: USER        Moving Ligand-Moving Receptor   =  +0.00 kcal/mol
DOCKED: USER    (2) Final Total Internal Energy     =  -1.41 kcal/mol
DOCKED: USER    (3) Torsional Free Energy           =  +1.49 kcal/mol
DOCKED: USER    (4) Unbound System's Energy         =  -1.41 kcal/mol
DOCKED: USER
DOCKED: USER
DOCKED: REMARK  5 active torsions:
DOCKED: REMARK  status: ('A' for Active; 'I' for Inactive)
DOCKED: REMARK    1  A    between atoms: C_2  and  C_19 
DOCKED: REMARK    2  A    between atoms: C_2  and  C_11 
DOCKED: REMARK    3  A    between atoms: C_19  and  C_20 
DOCKED: REMARK    4  A    between atoms: C_20  and  C_21 
DOCKED: REMARK    5  A    between atoms: C_21  and  N_22 
DOCKED: USER                              x       y       z     vdW  Elec       q    Type
DOCKED: USER                           _______ _______ _______ _____ _____    ______ ____
DOCKED: ROOT
DOCKED: ATOM      1  O   UNL     1     -30.091 -10.631   4.852 -0.00 -0.00    -0.346 OA 
DOCKED: ATOM      2  C   UNL     1     -30.389  -9.859   6.059 -0.07 +0.00    +0.130 C  
DOCKED: ATOM      3  C   UNL     1     -30.804 -10.900   7.059 -0.12 +0.00    +0.004 A  
DOCKED: ATOM      4  C   UNL     1     -30.651 -12.164   6.507 -0.14 +0.00    +0.006 A  
DOCKED: ATOM      5  C   UNL     1     -30.119 -12.051   5.131 -0.10 +0.00    +0.169 C  
DOCKED: ATOM      6  C   UNL     1     -31.270 -10.741   8.356 -0.17 -0.00    -0.001 A  
DOCKED: ATOM      7  C   UNL     1     -30.959 -13.306   7.227 -0.23 +0.00    +0.008 A  
DOCKED: ATOM      8  C   UNL     1     -31.589 -11.882   9.093 -0.24 +0.00    +0.010 A  
DOCKED: ATOM      9  C   UNL     1     -31.434 -13.158   8.531 -0.29 +0.00    +0.068 A  
DOCKED: ATOM     10  N   UNL     1     -32.031 -15.257   9.928 -2.58 -0.00    -0.191 NA 
DOCKED: ATOM     11  C   UNL     1     -31.764 -14.316   9.301 -0.38 +0.00    +0.101 C  
DOCKED: ENDROOT
DOCKED: BRANCH   2  12
DOCKED: ATOM     12  C   UNL     1     -29.130  -9.107   6.474 -0.02 +0.00    +0.038 C  
DOCKED: BRANCH  12  13
DOCKED: ATOM     13  C   UNL     1     -28.372  -8.577   5.259 -0.00 +0.00    +0.038 C  
DOCKED: BRANCH  13  14
DOCKED: ATOM     14  C   UNL     1     -28.170  -7.066   5.353 -0.00 +0.00    +0.251 C  
DOCKED: BRANCH  14  15
DOCKED: ATOM     15  N   UNL     1     -28.763  -6.401   4.199 -0.00 +0.00    +0.141 N  
DOCKED: ATOM     16  C   UNL     1     -28.846  -7.318   3.062 +0.00 +0.00    +0.285 C  
DOCKED: ATOM     17  C   UNL     1     -30.091  -5.881   4.530 -0.00 +0.00    +0.285 C  
DOCKED: ENDBRANCH  14  15
DOCKED: ENDBRANCH  13  14
DOCKED: ENDBRANCH  12  13
DOCKED: ENDBRANCH   2  12
DOCKED: BRANCH   2  18
DOCKED: ATOM     18  C   UNL     1     -31.491  -8.914   5.711 -0.12 +0.00    +0.006 A  
DOCKED: ATOM     19  C   UNL     1     -32.020  -8.906   4.422 -0.18 +0.00    +0.001 A  
DOCKED: ATOM     20  C   UNL     1     -33.050  -8.022   4.098 -0.19 +0.00    +0.029 A  
DOCKED: ATOM     21  C   UNL     1     -33.549  -7.149   5.063 -0.14 +0.00    +0.140 A  
DOCKED: ATOM     22  C   UNL     1     -33.019  -7.158   6.353 -0.11 +0.00    +0.029 A  
DOCKED: ATOM     23  F   UNL     1     -34.539  -6.302   4.753 -0.08 -0.00    -0.204 F  
DOCKED: ATOM     24  C   UNL     1     -31.989  -8.042   6.678 -0.08 +0.00    +0.001 A  
DOCKED: ENDBRANCH   2  18
DOCKED: TORSDOF 5
DOCKED: TER
DOCKED: ENDMDL
________________________________________________________________________________


    FINAL DOCKED STATE:
    ________________________


Run:   12 / 512
Time taken for this run:   0.002s

DOCKED: MODEL        12
DOCKED: USER    Run = 12
DOCKED: USER
DOCKED: USER    Estimated Free Energy of Binding    =  -3.91 kcal/mol  [=(1)+(2)+(3)-(4)]
DOCKED: USER
DOCKED: USER    (1) Final Intermolecular Energy     =  -5.40 kcal/mol
DOCKED: USER        vdW + Hbond + desolv Energy     =  -5.40 kcal/mol
DOCKED: USER        Electrostatic Energy            =  +0.00 kcal/mol
DOCKED: USER        Moving Ligand-Fixed Receptor    =  -5.40 kcal/mol
DOCKED: USER        Moving Ligand-Moving Receptor   =  +0.00 kcal/mol
DOCKED: USER    (2) Final Total Internal Energy     =  -1.05 kcal/mol
DOCKED: USER    (3) Torsional Free Energy           =  +1.49 kcal/mol
DOCKED: USER    (4) Unbound System's Energy         =  -1.05 kcal/mol
DOCKED: USER
DOCKED: USER
DOCKED: REMARK  5 active torsions:
DOCKED: REMARK  status: ('A' for Active; 'I' for Inactive)
DOCKED: REMARK    1  A    between atoms: C_2  and  C_19 
DOCKED: REMARK    2  A    between atoms: C_2  and  C_11 
DOCKED: REMARK    3  A    between atoms: C_19  and  C_20 
DOCKED: REMARK    4  A    between atoms: C_20  and  C_21 
DOCKED: REMARK    5  A    between atoms: C_21  and  N_22 
DOCKED: USER                              x       y       z     vdW  Elec       q    Type
DOCKED: USER                           _______ _______ _______ _____ _____    ______ ____
DOCKED: ROOT
DOCKED: ATOM      1  O   UNL     1     -31.882  -5.113   5.035 +0.00 -0.00    -0.346 OA 
DOCKED: ATOM      2  C   UNL     1     -33.182  -5.202   5.702 -0.10 +0.00    +0.130 C  
DOCKED: ATOM      3  C   UNL     1     -34.088  -4.377   4.834 -0.22 +0.00    +0.004 A  
DOCKED: ATOM      4  C   UNL     1     -33.395  -3.947   3.711 -0.18 +0.00    +0.006 A  
DOCKED: ATOM      5  C   UNL     1     -32.007  -4.459   3.751 -0.05 +0.00    +0.169 C  
DOCKED: ATOM      6  C   UNL     1     -35.422  -4.044   5.018 -0.26 -0.00    -0.001 A  
DOCKED: ATOM      7  C   UNL     1     -34.006  -3.170   2.741 -0.23 +0.00    +0.008 A  
DOCKED: ATOM      8  C   UNL     1     -36.051  -3.258   4.051 -0.27 +0.00    +0.010 A  
DOCKED: ATOM      9  C   UNL     1     -35.346  -2.824   2.918 -0.12 +0.00    +0.068 A  
DOCKED: ATOM     10  N   UNL     1     -36.545  -1.370   1.140 -2.22 -0.00    -0.191 NA 
DOCKED: ATOM     11  C   UNL     1     -36.007  -2.022   1.938 -0.34 +0.00    +0.101 C  
DOCKED: ENDROOT
DOCKED: BRANCH   2  12
DOCKED: ATOM     12  C   UNL     1     -33.593  -6.668   5.765 -0.17 +0.00    +0.038 C  
DOCKED: BRANCH  12  13
DOCKED: ATOM     13  C   UNL     1     -32.501  -7.577   5.204 -0.15 +0.00    +0.038 C  
DOCKED: BRANCH  13  14
DOCKED: ATOM     14  C   UNL     1     -32.813  -9.046   5.482 -0.13 +0.00    +0.251 C  
DOCKED: BRANCH  14  15
DOCKED: ATOM     15  N   UNL     1     -32.503  -9.378   6.867 -0.16 +0.00    +0.141 N  
DOCKED: ATOM     16  C   UNL     1     -33.559 -10.207   7.449 -0.23 +0.00    +0.285 C  
DOCKED: ATOM     17  C   UNL     1     -31.212 -10.063   6.957 -0.07 +0.00    +0.285 C  
DOCKED: ENDBRANCH  14  15
DOCKED: ENDBRANCH  13  14
DOCKED: ENDBRANCH  12  13
DOCKED: ENDBRANCH   2  12
DOCKED: BRANCH   2  18
DOCKED: ATOM     18  C   UNL     1     -33.010  -4.631   7.070 -0.10 +0.00    +0.006 A  
DOCKED: ATOM     19  C   UNL     1     -33.547  -5.293   8.173 -0.08 +0.00    +0.001 A  
DOCKED: ATOM     20  C   UNL     1     -33.386  -4.758   9.452 -0.07 +0.00    +0.029 A  
DOCKED: ATOM     21  C   UNL     1     -32.688  -3.564   9.626 -0.08 +0.00    +0.140 A  
DOCKED: ATOM     22  C   UNL     1     -32.150  -2.903   8.522 -0.01 +0.00    +0.029 A  
DOCKED: ATOM     23  F   UNL     1     -32.532  -3.053  10.854 -0.03 -0.00    -0.204 F  
DOCKED: ATOM     24  C   UNL     1     -32.312  -3.437   7.242 -0.13 +0.00    +0.001 A  
DOCKED: ENDBRANCH   2  18
DOCKED: TORSDOF 5
DOCKED: TER
DOCKED: ENDMDL
________________________________________________________________________________


    FINAL DOCKED STATE:
    ________________________


Run:   13 / 512
Time taken for this run:   0.002s

DOCKED: MODEL        13
DOCKED: USER    Run = 13
DOCKED: USER
DOCKED: USER    Estimated Free Energy of Binding    =  -3.62 kcal/mol  [=(1)+(2)+(3)-(4)]
DOCKED: USER
DOCKED: USER    (1) Final Intermolecular Energy     =  -5.11 kcal/mol
DOCKED: USER        vdW + Hbond + desolv Energy     =  -5.11 kcal/mol
DOCKED: USER        Electrostatic Energy            =  +0.00 kcal/mol
DOCKED: USER        Moving Ligand-Fixed Receptor    =  -5.11 kcal/mol
DOCKED: USER        Moving Ligand-Moving Receptor   =  +0.00 kcal/mol
DOCKED: USER    (2) Final Total Internal Energy     =  -1.44 kcal/mol
DOCKED: USER    (3) Torsional Free Energy           =  +1.49 kcal/mol
DOCKED: USER    (4) Unbound System's Energy         =  -1.44 kcal/mol
DOCKED: USER
DOCKED: USER
DOCKED: REMARK  5 active torsions:
DOCKED: REMARK  status: ('A' for Active; 'I' for Inactive)
DOCKED: REMARK    1  A    between atoms: C_2  and  C_19 
DOCKED: REMARK    2  A    between atoms: C_2  and  C_11 
DOCKED: REMARK    3  A    between atoms: C_19  and  C_20 
DOCKED: REMARK    4  A    between atoms: C_20  and  C_21 
DOCKED: REMARK    5  A    between atoms: C_21  and  N_22 
DOCKED: USER                              x       y       z     vdW  Elec       q    Type
DOCKED: USER                           _______ _______ _______ _____ _____    ______ ____
DOCKED: ROOT
DOCKED: ATOM      1  O   UNL     1     -37.325 -12.004  17.527 -0.01 -0.00    -0.346 OA 
DOCKED: ATOM      2  C   UNL     1     -36.245 -11.792  16.562 -0.09 +0.00    +0.130 C  
DOCKED: ATOM      3  C   UNL     1     -36.788 -12.361  15.284 -0.17 +0.00    +0.004 A  
DOCKED: ATOM      4  C   UNL     1     -38.103 -12.762  15.472 -0.16 +0.00    +0.006 A  
DOCKED: ATOM      5  C   UNL     1     -38.520 -12.479  16.863 -0.08 +0.00    +0.169 C  
DOCKED: ATOM      6  C   UNL     1     -36.170 -12.502  14.049 -0.26 -0.00    -0.001 A  
DOCKED: ATOM      7  C   UNL     1     -38.841 -13.318  14.441 -0.22 +0.00    +0.008 A  
DOCKED: ATOM      8  C   UNL     1     -36.900 -13.065  13.001 -0.35 +0.00    +0.010 A  
DOCKED: ATOM      9  C   UNL     1     -38.229 -13.471  13.196 -0.23 +0.00    +0.068 A  
DOCKED: ATOM     10  N   UNL     1     -39.557 -14.508  11.228 -2.42 -0.00    -0.191 NA 
DOCKED: ATOM     11  C   UNL     1     -38.961 -14.043  12.111 +0.14 +0.00    +0.101 C  
DOCKED: ENDROOT
DOCKED: BRANCH   2  12
DOCKED: ATOM     12  C   UNL     1     -35.963 -10.297  16.474 -0.05 +0.00    +0.038 C  
DOCKED: BRANCH  12  13
DOCKED: ATOM     13  C   UNL     1     -37.166  -9.535  15.921 -0.04 +0.00    +0.038 C  
DOCKED: BRANCH  13  14
DOCKED: ATOM     14  C   UNL     1     -36.796  -8.773  14.650 -0.04 +0.00    +0.251 C  
DOCKED: BRANCH  14  15
DOCKED: ATOM     15  N   UNL     1     -37.265  -9.494  13.472 -0.13 +0.00    +0.141 N  
DOCKED: ATOM     16  C   UNL     1     -38.718  -9.381  13.343 -0.13 +0.00    +0.285 C  
DOCKED: ATOM     17  C   UNL     1     -36.608  -8.991  12.264 -0.11 +0.00    +0.285 C  
DOCKED: ENDBRANCH  14  15
DOCKED: ENDBRANCH  13  14
DOCKED: ENDBRANCH  12  13
DOCKED: ENDBRANCH   2  12
DOCKED: BRANCH   2  18
DOCKED: ATOM     18  C   UNL     1     -35.055 -12.535  17.071 -0.09 +0.00    +0.006 A  
DOCKED: ATOM     19  C   UNL     1     -33.801 -12.316  16.502 -0.06 +0.00    +0.001 A  
DOCKED: ATOM     20  C   UNL     1     -32.689 -13.012  16.978 -0.11 +0.00    +0.029 A  
DOCKED: ATOM     21  C   UNL     1     -32.832 -13.925  18.021 -0.14 +0.00    +0.140 A  
DOCKED: ATOM     22  C   UNL     1     -34.086 -14.143  18.590 -0.16 +0.00    +0.029 A  
DOCKED: ATOM     23  F   UNL     1     -31.764 -14.591  18.479 -0.07 -0.00    -0.204 F  
DOCKED: ATOM     24  C   UNL     1     -35.199 -13.448  18.115 -0.15 +0.00    +0.001 A  
DOCKED: ENDBRANCH   2  18
DOCKED: TORSDOF 5
DOCKED: TER
DOCKED: ENDMDL
________________________________________________________________________________


    FINAL DOCKED STATE:
    ________________________


Run:   14 / 512
Time taken for this run:   0.002s

DOCKED: MODEL        14
DOCKED: USER    Run = 14
DOCKED: USER
DOCKED: USER    Estimated Free Energy of Binding    =  -3.85 kcal/mol  [=(1)+(2)+(3)-(4)]
DOCKED: USER
DOCKED: USER    (1) Final Intermolecular Energy     =  -5.34 kcal/mol
DOCKED: USER        vdW + Hbond + desolv Energy     =  -5.34 kcal/mol
DOCKED: USER        Electrostatic Energy            =  +0.00 kcal/mol
DOCKED: USER        Moving Ligand-Fixed Receptor    =  -5.34 kcal/mol
DOCKED: USER        Moving Ligand-Moving Receptor   =  +0.00 kcal/mol
DOCKED: USER    (2) Final Total Internal Energy     =  -1.34 kcal/mol
DOCKED: USER    (3) Torsional Free Energy           =  +1.49 kcal/mol
DOCKED: USER    (4) Unbound System's Energy         =  -1.34 kcal/mol
DOCKED: USER
DOCKED: USER
DOCKED: REMARK  5 active torsions:
DOCKED: REMARK  status: ('A' for Active; 'I' for Inactive)
DOCKED: REMARK    1  A    between atoms: C_2  and  C_19 
DOCKED: REMARK    2  A    between atoms: C_2  and  C_11 
DOCKED: REMARK    3  A    between atoms: C_19  and  C_20 
DOCKED: REMARK    4  A    between atoms: C_20  and  C_21 
DOCKED: REMARK    5  A    between atoms: C_21  and  N_22 
DOCKED: USER                              x       y       z     vdW  Elec       q    Type
DOCKED: USER                           _______ _______ _______ _____ _____    ______ ____
DOCKED: ROOT
DOCKED: ATOM      1  O   UNL     1     -29.054  -9.912   6.252 +0.01 -0.00    -0.346 OA 
DOCKED: ATOM      2  C   UNL     1     -30.476  -9.602   6.406 -0.06 +0.00    +0.130 C  
DOCKED: ATOM      3  C   UNL     1     -31.022 -10.782   7.157 -0.13 +0.00    +0.004 A  
DOCKED: ATOM      4  C   UNL     1     -29.985 -11.638   7.499 -0.09 +0.00    +0.006 A  
DOCKED: ATOM      5  C   UNL     1     -28.699 -11.087   7.017 -0.02 +0.00    +0.169 C  
DOCKED: ATOM      6  C   UNL     1     -32.330 -11.068   7.518 -0.29 -0.00    -0.001 A  
DOCKED: ATOM      7  C   UNL     1     -30.218 -12.806   8.205 -0.16 +0.00    +0.008 A  
DOCKED: ATOM      8  C   UNL     1     -32.582 -12.244   8.227 -0.29 +0.00    +0.010 A  
DOCKED: ATOM      9  C   UNL     1     -31.531 -13.108   8.569 -0.29 +0.00    +0.068 A  
DOCKED: ATOM     10  N   UNL     1     -32.033 -15.280   9.889 -2.56 -0.00    -0.191 NA 
DOCKED: ATOM     11  C   UNL     1     -31.808 -14.306   9.296 -0.36 +0.00    +0.101 C  
DOCKED: ENDROOT
DOCKED: BRANCH   2  12
DOCKED: ATOM     12  C   UNL     1     -30.603  -8.295   7.181 -0.03 +0.00    +0.038 C  
DOCKED: BRANCH  12  13
DOCKED: ATOM     13  C   UNL     1     -29.315  -7.478   7.110 -0.01 +0.00    +0.038 C  
DOCKED: BRANCH  13  14
DOCKED: ATOM     14  C   UNL     1     -28.436  -7.730   8.334 -0.00 +0.00    +0.251 C  
DOCKED: BRANCH  14  15
DOCKED: ATOM     15  N   UNL     1     -27.027  -7.627   7.976 +0.00 +0.00    +0.141 N  
DOCKED: ATOM     16  C   UNL     1     -26.236  -8.621   8.704 +0.00 +0.00    +0.285 C  
DOCKED: ATOM     17  C   UNL     1     -26.847  -7.795   6.533 +0.00 +0.00    +0.285 C  
DOCKED: ENDBRANCH  14  15
DOCKED: ENDBRANCH  13  14
DOCKED: ENDBRANCH  12  13
DOCKED: ENDBRANCH   2  12
DOCKED: BRANCH   2  18
DOCKED: ATOM     18  C   UNL     1     -31.045  -9.471   5.033 -0.12 +0.00    +0.006 A  
DOCKED: ATOM     19  C   UNL     1     -32.247  -8.792   4.839 -0.18 +0.00    +0.001 A  
DOCKED: ATOM     20  C   UNL     1     -32.778  -8.671   3.554 -0.19 +0.00    +0.029 A  
DOCKED: ATOM     21  C   UNL     1     -32.108  -9.229   2.467 -0.21 +0.00    +0.140 A  
DOCKED: ATOM     22  C   UNL     1     -30.906  -9.908   2.662 -0.15 +0.00    +0.029 A  
DOCKED: ATOM     23  F   UNL     1     -32.617  -9.111   1.234 -0.10 -0.00    -0.204 F  
DOCKED: ATOM     24  C   UNL     1     -30.373 -10.030   3.947 -0.11 +0.00    +0.001 A  
DOCKED: ENDBRANCH   2  18
DOCKED: TORSDOF 5
DOCKED: TER
DOCKED: ENDMDL
________________________________________________________________________________


    FINAL DOCKED STATE:
    ________________________


Run:   15 / 512
Time taken for this run:   0.002s

DOCKED: MODEL        15
DOCKED: USER    Run = 15
DOCKED: USER
DOCKED: USER    Estimated Free Energy of Binding    =  -3.83 kcal/mol  [=(1)+(2)+(3)-(4)]
DOCKED: USER
DOCKED: USER    (1) Final Intermolecular Energy     =  -5.32 kcal/mol
DOCKED: USER        vdW + Hbond + desolv Energy     =  -5.32 kcal/mol
DOCKED: USER        Electrostatic Energy            =  +0.00 kcal/mol
DOCKED: USER        Moving Ligand-Fixed Receptor    =  -5.32 kcal/mol
DOCKED: USER        Moving Ligand-Moving Receptor   =  +0.00 kcal/mol
DOCKED: USER    (2) Final Total Internal Energy     =  -1.45 kcal/mol
DOCKED: USER    (3) Torsional Free Energy           =  +1.49 kcal/mol
DOCKED: USER    (4) Unbound System's Energy         =  -1.45 kcal/mol
DOCKED: USER
DOCKED: USER
DOCKED: REMARK  5 active torsions:
DOCKED: REMARK  status: ('A' for Active; 'I' for Inactive)
DOCKED: REMARK    1  A    between atoms: C_2  and  C_19 
DOCKED: REMARK    2  A    between atoms: C_2  and  C_11 
DOCKED: REMARK    3  A    between atoms: C_19  and  C_20 
DOCKED: REMARK    4  A    between atoms: C_20  and  C_21 
DOCKED: REMARK    5  A    between atoms: C_21  and  N_22 
DOCKED: USER                              x       y       z     vdW  Elec       q    Type
DOCKED: USER                           _______ _______ _______ _____ _____    ______ ____
DOCKED: ROOT
DOCKED: ATOM      1  O   UNL     1     -35.536 -11.301  15.715 -0.05 -0.00    -0.346 OA 
DOCKED: ATOM      2  C   UNL     1     -35.972 -10.343  14.698 -0.11 +0.00    +0.130 C  
DOCKED: ATOM      3  C   UNL     1     -36.768 -11.178  13.737 -0.21 +0.00    +0.004 A  
DOCKED: ATOM      4  C   UNL     1     -36.871 -12.475  14.219 -0.25 +0.00    +0.006 A  
DOCKED: ATOM      5  C   UNL     1     -36.172 -12.584  15.519 -0.07 +0.00    +0.169 C  
DOCKED: ATOM      6  C   UNL     1     -37.363 -10.815  12.537 -0.29 -0.00    -0.001 A  
DOCKED: ATOM      7  C   UNL     1     -37.563 -13.450  13.521 -0.33 +0.00    +0.008 A  
DOCKED: ATOM      8  C   UNL     1     -38.061 -11.788  11.820 -0.35 +0.00    +0.010 A  
DOCKED: ATOM      9  C   UNL     1     -38.161 -13.098  12.310 -0.32 +0.00    +0.068 A  
DOCKED: ATOM     10  N   UNL     1     -39.469 -14.879  10.956 -2.34 -0.00    -0.191 NA 
DOCKED: ATOM     11  C   UNL     1     -38.882 -14.080  11.563 -0.30 +0.00    +0.101 C  
DOCKED: ENDROOT
DOCKED: BRANCH   2  12
DOCKED: ATOM     12  C   UNL     1     -36.806  -9.264  15.378 -0.05 +0.00    +0.038 C  
DOCKED: BRANCH  12  13
DOCKED: ATOM     13  C   UNL     1     -36.837  -9.455  16.893 -0.02 +0.00    +0.038 C  
DOCKED: BRANCH  13  14
DOCKED: ATOM     14  C   UNL     1     -36.330  -8.208  17.615 -0.00 +0.00    +0.251 C  
DOCKED: BRANCH  14  15
DOCKED: ATOM     15  N   UNL     1     -34.921  -8.359  17.960 -0.00 +0.00    +0.141 N  
DOCKED: ATOM     16  C   UNL     1     -34.626  -9.744  18.329 -0.00 +0.00    +0.285 C  
DOCKED: ATOM     17  C   UNL     1     -34.070  -7.938  16.845 -0.00 +0.00    +0.285 C  
DOCKED: ENDBRANCH  14  15
DOCKED: ENDBRANCH  13  14
DOCKED: ENDBRANCH  12  13
DOCKED: ENDBRANCH   2  12
DOCKED: BRANCH   2  18
DOCKED: ATOM     18  C   UNL     1     -34.740  -9.765  14.086 -0.12 +0.00    +0.006 A  
DOCKED: ATOM     19  C   UNL     1     -33.515 -10.412  14.242 -0.12 +0.00    +0.001 A  
DOCKED: ATOM     20  C   UNL     1     -32.364  -9.871  13.669 -0.10 +0.00    +0.029 A  
DOCKED: ATOM     21  C   UNL     1     -32.439  -8.685  12.940 -0.07 +0.00    +0.140 A  
DOCKED: ATOM     22  C   UNL     1     -33.665  -8.039  12.784 -0.09 +0.00    +0.029 A  
DOCKED: ATOM     23  F   UNL     1     -31.334  -8.167  12.389 -0.01 -0.00    -0.204 F  
DOCKED: ATOM     24  C   UNL     1     -34.817  -8.579  13.357 -0.12 +0.00    +0.001 A  
DOCKED: ENDBRANCH   2  18
DOCKED: TORSDOF 5
DOCKED: TER
DOCKED: ENDMDL
________________________________________________________________________________


    FINAL DOCKED STATE:
    ________________________


Run:   16 / 512
Time taken for this run:   0.002s

DOCKED: MODEL        16
DOCKED: USER    Run = 16
DOCKED: USER
DOCKED: USER    Estimated Free Energy of Binding    =  -5.09 kcal/mol  [=(1)+(2)+(3)-(4)]
DOCKED: USER
DOCKED: USER    (1) Final Intermolecular Energy     =  -6.58 kcal/mol
DOCKED: USER        vdW + Hbond + desolv Energy     =  -6.58 kcal/mol
DOCKED: USER        Electrostatic Energy            =  +0.00 kcal/mol
DOCKED: USER        Moving Ligand-Fixed Receptor    =  -6.58 kcal/mol
DOCKED: USER        Moving Ligand-Moving Receptor   =  +0.00 kcal/mol
DOCKED: USER    (2) Final Total Internal Energy     =  -0.92 kcal/mol
DOCKED: USER    (3) Torsional Free Energy           =  +1.49 kcal/mol
DOCKED: USER    (4) Unbound System's Energy         =  -0.92 kcal/mol
DOCKED: USER
DOCKED: USER
DOCKED: REMARK  5 active torsions:
DOCKED: REMARK  status: ('A' for Active; 'I' for Inactive)
DOCKED: REMARK    1  A    between atoms: C_2  and  C_19 
DOCKED: REMARK    2  A    between atoms: C_2  and  C_11 
DOCKED: REMARK    3  A    between atoms: C_19  and  C_20 
DOCKED: REMARK    4  A    between atoms: C_20  and  C_21 
DOCKED: REMARK    5  A    between atoms: C_21  and  N_22 
DOCKED: USER                              x       y       z     vdW  Elec       q    Type
DOCKED: USER                           _______ _______ _______ _____ _____    ______ ____
DOCKED: ROOT
DOCKED: ATOM      1  O   UNL     1     -40.614 -11.469  14.516 -0.00 -0.00    -0.346 OA 
DOCKED: ATOM      2  C   UNL     1     -39.178 -11.379  14.249 -0.10 +0.00    +0.130 C  
DOCKED: ATOM      3  C   UNL     1     -39.049 -11.820  12.820 -0.24 +0.00    +0.004 A  
DOCKED: ATOM      4  C   UNL     1     -40.311 -12.035  12.282 -0.26 +0.00    +0.006 A  
DOCKED: ATOM      5  C   UNL     1     -41.346 -11.745  13.299 -0.16 +0.00    +0.169 C  
DOCKED: ATOM      6  C   UNL     1     -37.908 -12.004  12.052 -0.35 -0.00    -0.001 A  
DOCKED: ATOM      7  C   UNL     1     -40.475 -12.444  10.970 -0.22 +0.00    +0.008 A  
DOCKED: ATOM      8  C   UNL     1     -38.057 -12.420  10.728 -0.23 +0.00    +0.010 A  
DOCKED: ATOM      9  C   UNL     1     -39.334 -12.639  10.190 -0.35 +0.00    +0.068 A  
DOCKED: ATOM     10  N   UNL     1     -39.575 -13.406   7.727 -2.81 -0.00    -0.191 NA 
DOCKED: ATOM     11  C   UNL     1     -39.467 -13.062   8.832 -0.31 +0.00    +0.101 C  
DOCKED: ENDROOT
DOCKED: BRANCH   2  12
DOCKED: ATOM     12  C   UNL     1     -38.735  -9.938  14.468 -0.10 +0.00    +0.038 C  
DOCKED: BRANCH  12  13
DOCKED: ATOM     13  C   UNL     1     -38.201  -9.317  13.178 -0.22 +0.00    +0.038 C  
DOCKED: BRANCH  13  14
DOCKED: ATOM     14  C   UNL     1     -36.731  -8.930  13.322 -0.13 +0.00    +0.251 C  
DOCKED: BRANCH  14  15
DOCKED: ATOM     15  N   UNL     1     -36.489  -7.623  12.723 -0.11 +0.00    +0.141 N  
DOCKED: ATOM     16  C   UNL     1     -35.523  -7.727  11.628 -0.07 +0.00    +0.285 C  
DOCKED: ATOM     17  C   UNL     1     -37.741  -7.038  12.239 -0.07 +0.00    +0.285 C  
DOCKED: ENDBRANCH  14  15
DOCKED: ENDBRANCH  13  14
DOCKED: ENDBRANCH  12  13
DOCKED: ENDBRANCH   2  12
DOCKED: BRANCH   2  18
DOCKED: ATOM     18  C   UNL     1     -38.498 -12.302  15.205 -0.12 +0.00    +0.006 A  
DOCKED: ATOM     19  C   UNL     1     -37.120 -12.216  15.396 -0.15 +0.00    +0.001 A  
DOCKED: ATOM     20  C   UNL     1     -36.486 -13.080  16.290 -0.07 +0.00    +0.029 A  
DOCKED: ATOM     21  C   UNL     1     -37.230 -14.027  16.992 -0.18 +0.00    +0.140 A  
DOCKED: ATOM     22  C   UNL     1     -38.609 -14.113  16.800 -0.08 +0.00    +0.029 A  
DOCKED: ATOM     23  F   UNL     1     -36.621 -14.855  17.851 -0.10 -0.00    -0.204 F  
DOCKED: ATOM     24  C   UNL     1     -39.244 -13.249  15.906 -0.16 +0.00    +0.001 A  
DOCKED: ENDBRANCH   2  18
DOCKED: TORSDOF 5
DOCKED: TER
DOCKED: ENDMDL
________________________________________________________________________________


    FINAL DOCKED STATE:
    ________________________


Run:   17 / 512
Time taken for this run:   0.002s

DOCKED: MODEL        17
DOCKED: USER    Run = 17
DOCKED: USER
DOCKED: USER    Estimated Free Energy of Binding    =  -4.46 kcal/mol  [=(1)+(2)+(3)-(4)]
DOCKED: USER
DOCKED: USER    (1) Final Intermolecular Energy     =  -5.95 kcal/mol
DOCKED: USER        vdW + Hbond + desolv Energy     =  -5.95 kcal/mol
DOCKED: USER        Electrostatic Energy            =  +0.00 kcal/mol
DOCKED: USER        Moving Ligand-Fixed Receptor    =  -5.95 kcal/mol
DOCKED: USER        Moving Ligand-Moving Receptor   =  +0.00 kcal/mol
DOCKED: USER    (2) Final Total Internal Energy     =  -1.29 kcal/mol
DOCKED: USER    (3) Torsional Free Energy           =  +1.49 kcal/mol
DOCKED: USER    (4) Unbound System's Energy         =  -1.29 kcal/mol
DOCKED: USER
DOCKED: USER
DOCKED: REMARK  5 active torsions:
DOCKED: REMARK  status: ('A' for Active; 'I' for Inactive)
DOCKED: REMARK    1  A    between atoms: C_2  and  C_19 
DOCKED: REMARK    2  A    between atoms: C_2  and  C_11 
DOCKED: REMARK    3  A    between atoms: C_19  and  C_20 
DOCKED: REMARK    4  A    between atoms: C_20  and  C_21 
DOCKED: REMARK    5  A    between atoms: C_21  and  N_22 
DOCKED: USER                              x       y       z     vdW  Elec       q    Type
DOCKED: USER                           _______ _______ _______ _____ _____    ______ ____
DOCKED: ROOT
DOCKED: ATOM      1  O   UNL     1     -35.359 -10.694  15.089 -0.05 -0.00    -0.346 OA 
DOCKED: ATOM      2  C   UNL     1     -36.023  -9.836  14.107 -0.13 +0.00    +0.130 C  
DOCKED: ATOM      3  C   UNL     1     -36.834 -10.793  13.282 -0.23 +0.00    +0.004 A  
DOCKED: ATOM      4  C   UNL     1     -36.731 -12.071  13.814 -0.26 +0.00    +0.006 A  
DOCKED: ATOM      5  C   UNL     1     -35.868 -12.047  15.016 -0.14 +0.00    +0.169 C  
DOCKED: ATOM      6  C   UNL     1     -37.610 -10.550  12.159 -0.28 -0.00    -0.001 A  
DOCKED: ATOM      7  C   UNL     1     -37.391 -13.145  13.242 -0.34 +0.00    +0.008 A  
DOCKED: ATOM      8  C   UNL     1     -38.279 -11.623  11.568 -0.34 +0.00    +0.010 A  
DOCKED: ATOM      9  C   UNL     1     -38.170 -12.914  12.107 -0.33 +0.00    +0.068 A  
DOCKED: ATOM     10  N   UNL     1     -39.429 -14.883  10.988 -2.37 -0.00    -0.191 NA 
DOCKED: ATOM     11  C   UNL     1     -38.864 -14.000  11.490 -0.35 +0.00    +0.101 C  
DOCKED: ENDROOT
DOCKED: BRANCH   2  12
DOCKED: ATOM     12  C   UNL     1     -36.882  -8.822  14.855 -0.06 +0.00    +0.038 C  
DOCKED: BRANCH  12  13
DOCKED: ATOM     13  C   UNL     1     -38.287  -9.363  15.110 -0.06 +0.00    +0.038 C  
DOCKED: BRANCH  13  14
DOCKED: ATOM     14  C   UNL     1     -39.339  -8.272  14.919 -0.03 +0.00    +0.251 C  
DOCKED: BRANCH  14  15
DOCKED: ATOM     15  N   UNL     1     -40.414  -8.748  14.057 -0.08 +0.00    +0.141 N  
DOCKED: ATOM     16  C   UNL     1     -40.154  -8.390  12.661 -0.14 +0.00    +0.285 C  
DOCKED: ATOM     17  C   UNL     1     -40.576 -10.197  14.187 -0.05 +0.00    +0.285 C  
DOCKED: ENDBRANCH  14  15
DOCKED: ENDBRANCH  13  14
DOCKED: ENDBRANCH  12  13
DOCKED: ENDBRANCH   2  12
DOCKED: BRANCH   2  18
DOCKED: ATOM     18  C   UNL     1     -34.950  -9.158  13.324 -0.13 +0.00    +0.006 A  
DOCKED: ATOM     19  C   UNL     1     -35.284  -8.346  12.241 -0.16 +0.00    +0.001 A  
DOCKED: ATOM     20  C   UNL     1     -34.279  -7.713  11.509 -0.13 +0.00    +0.029 A  
DOCKED: ATOM     21  C   UNL     1     -32.942  -7.891  11.861 -0.07 +0.00    +0.140 A  
DOCKED: ATOM     22  C   UNL     1     -32.608  -8.703  12.944 -0.09 +0.00    +0.029 A  
DOCKED: ATOM     23  F   UNL     1     -31.978  -7.282  11.159 -0.01 -0.00    -0.204 F  
DOCKED: ATOM     24  C   UNL     1     -33.613  -9.338  13.677 -0.11 +0.00    +0.001 A  
DOCKED: ENDBRANCH   2  18
DOCKED: TORSDOF 5
DOCKED: TER
DOCKED: ENDMDL
________________________________________________________________________________


    FINAL DOCKED STATE:
    ________________________


Run:   18 / 512
Time taken for this run:   0.002s

DOCKED: MODEL        18
DOCKED: USER    Run = 18
DOCKED: USER
DOCKED: USER    Estimated Free Energy of Binding    =  -3.81 kcal/mol  [=(1)+(2)+(3)-(4)]
DOCKED: USER
DOCKED: USER    (1) Final Intermolecular Energy     =  -5.30 kcal/mol
DOCKED: USER        vdW + Hbond + desolv Energy     =  -5.30 kcal/mol
DOCKED: USER        Electrostatic Energy            =  +0.00 kcal/mol
DOCKED: USER        Moving Ligand-Fixed Receptor    =  -5.30 kcal/mol
DOCKED: USER        Moving Ligand-Moving Receptor   =  +0.00 kcal/mol
DOCKED: USER    (2) Final Total Internal Energy     =  -1.28 kcal/mol
DOCKED: USER    (3) Torsional Free Energy           =  +1.49 kcal/mol
DOCKED: USER    (4) Unbound System's Energy         =  -1.28 kcal/mol
DOCKED: USER
DOCKED: USER
DOCKED: REMARK  5 active torsions:
DOCKED: REMARK  status: ('A' for Active; 'I' for Inactive)
DOCKED: REMARK    1  A    between atoms: C_2  and  C_19 
DOCKED: REMARK    2  A    between atoms: C_2  and  C_11 
DOCKED: REMARK    3  A    between atoms: C_19  and  C_20 
DOCKED: REMARK    4  A    between atoms: C_20  and  C_21 
DOCKED: REMARK    5  A    between atoms: C_21  and  N_22 
DOCKED: USER                              x       y       z     vdW  Elec       q    Type
DOCKED: USER                           _______ _______ _______ _____ _____    ______ ____
DOCKED: ROOT
DOCKED: ATOM      1  O   UNL     1     -30.137   0.235   1.050 -0.03 -0.00    -0.346 OA 
DOCKED: ATOM      2  C   UNL     1     -30.566   0.246   2.450 -0.08 +0.00    +0.130 C  
DOCKED: ATOM      3  C   UNL     1     -32.010  -0.162   2.386 -0.11 +0.00    +0.004 A  
DOCKED: ATOM      4  C   UNL     1     -32.347  -0.485   1.079 -0.18 +0.00    +0.006 A  
DOCKED: ATOM      5  C   UNL     1     -31.164  -0.328   0.202 -0.10 +0.00    +0.169 C  
DOCKED: ATOM      6  C   UNL     1     -32.947  -0.251   3.405 -0.23 -0.00    -0.001 A  
DOCKED: ATOM      7  C   UNL     1     -33.624  -0.902   0.746 -0.29 +0.00    +0.008 A  
DOCKED: ATOM      8  C   UNL     1     -34.241  -0.666   3.085 -0.32 +0.00    +0.010 A  
DOCKED: ATOM      9  C   UNL     1     -34.577  -0.990   1.762 -0.36 +0.00    +0.068 A  
DOCKED: ATOM     10  N   UNL     1     -36.987  -1.760   1.202 -2.50 -0.00    -0.191 NA 
DOCKED: ATOM     11  C   UNL     1     -35.906  -1.414   1.453 -0.39 +0.00    +0.101 C  
DOCKED: ENDROOT
DOCKED: BRANCH   2  12
DOCKED: ATOM     12  C   UNL     1     -29.704  -0.742   3.227 -0.04 +0.00    +0.038 C  
DOCKED: BRANCH  12  13
DOCKED: ATOM     13  C   UNL     1     -30.327  -2.136   3.238 -0.04 +0.00    +0.038 C  
DOCKED: BRANCH  13  14
DOCKED: ATOM     14  C   UNL     1     -29.955  -2.894   4.511 -0.01 +0.00    +0.251 C  
DOCKED: BRANCH  14  15
DOCKED: ATOM     15  N   UNL     1     -31.077  -2.906   5.441 -0.06 +0.00    +0.141 N  
DOCKED: ATOM     16  C   UNL     1     -31.222  -1.604   6.093 -0.08 +0.00    +0.285 C  
DOCKED: ATOM     17  C   UNL     1     -32.316  -3.269   4.750 -0.07 +0.00    +0.285 C  
DOCKED: ENDBRANCH  14  15
DOCKED: ENDBRANCH  13  14
DOCKED: ENDBRANCH  12  13
DOCKED: ENDBRANCH   2  12
DOCKED: BRANCH   2  18
DOCKED: ATOM     18  C   UNL     1     -30.377   1.638   2.953 -0.10 +0.00    +0.006 A  
DOCKED: ATOM     19  C   UNL     1     -30.604   1.929   4.298 -0.09 +0.00    +0.001 A  
DOCKED: ATOM     20  C   UNL     1     -30.427   3.232   4.767 -0.05 +0.00    +0.029 A  
DOCKED: ATOM     21  C   UNL     1     -30.024   4.239   3.892 -0.02 +0.00    +0.140 A  
DOCKED: ATOM     22  C   UNL     1     -29.797   3.947   2.548 -0.07 +0.00    +0.029 A  
DOCKED: ATOM     23  F   UNL     1     -29.852   5.489   4.344 +0.01 -0.00    -0.204 F  
DOCKED: ATOM     24  C   UNL     1     -29.974   2.645   2.077 -0.09 +0.00    +0.001 A  
DOCKED: ENDBRANCH   2  18
DOCKED: TORSDOF 5
DOCKED: TER
DOCKED: ENDMDL
________________________________________________________________________________


    FINAL DOCKED STATE:
    ________________________


Run:   19 / 512
Time taken for this run:   0.002s

DOCKED: MODEL        19
DOCKED: USER    Run = 19
DOCKED: USER
DOCKED: USER    Estimated Free Energy of Binding    =  -4.20 kcal/mol  [=(1)+(2)+(3)-(4)]
DOCKED: USER
DOCKED: USER    (1) Final Intermolecular Energy     =  -5.69 kcal/mol
DOCKED: USER        vdW + Hbond + desolv Energy     =  -5.69 kcal/mol
DOCKED: USER        Electrostatic Energy            =  +0.00 kcal/mol
DOCKED: USER        Moving Ligand-Fixed Receptor    =  -5.69 kcal/mol
DOCKED: USER        Moving Ligand-Moving Receptor   =  +0.00 kcal/mol
DOCKED: USER    (2) Final Total Internal Energy     =  -1.33 kcal/mol
DOCKED: USER    (3) Torsional Free Energy           =  +1.49 kcal/mol
DOCKED: USER    (4) Unbound System's Energy         =  -1.33 kcal/mol
DOCKED: USER
DOCKED: USER
DOCKED: REMARK  5 active torsions:
DOCKED: REMARK  status: ('A' for Active; 'I' for Inactive)
DOCKED: REMARK    1  A    between atoms: C_2  and  C_19 
DOCKED: REMARK    2  A    between atoms: C_2  and  C_11 
DOCKED: REMARK    3  A    between atoms: C_19  and  C_20 
DOCKED: REMARK    4  A    between atoms: C_20  and  C_21 
DOCKED: REMARK    5  A    between atoms: C_21  and  N_22 
DOCKED: USER                              x       y       z     vdW  Elec       q    Type
DOCKED: USER                           _______ _______ _______ _____ _____    ______ ____
DOCKED: ROOT
DOCKED: ATOM      1  O   UNL     1     -37.130  -8.266  12.887 -0.07 -0.00    -0.346 OA 
DOCKED: ATOM      2  C   UNL     1     -38.384  -8.476  13.611 -0.14 +0.00    +0.130 C  
DOCKED: ATOM      3  C   UNL     1     -38.800  -9.863  13.215 -0.21 +0.00    +0.004 A  
DOCKED: ATOM      4  C   UNL     1     -37.815 -10.438  12.424 -0.28 +0.00    +0.006 A  
DOCKED: ATOM      5  C   UNL     1     -36.691  -9.490  12.254 -0.12 +0.00    +0.169 C  
DOCKED: ATOM      6  C   UNL     1     -39.952 -10.565  13.539 -0.17 -0.00    -0.001 A  
DOCKED: ATOM      7  C   UNL     1     -37.948 -11.724  11.929 -0.34 +0.00    +0.008 A  
DOCKED: ATOM      8  C   UNL     1     -40.102 -11.861  13.043 -0.20 +0.00    +0.010 A  
DOCKED: ATOM      9  C   UNL     1     -39.105 -12.437  12.243 -0.25 +0.00    +0.068 A  
DOCKED: ATOM     10  N   UNL     1     -39.414 -14.847  11.343 -2.56 -0.00    -0.191 NA 
DOCKED: ATOM     11  C   UNL     1     -39.276 -13.766  11.746 -0.36 +0.00    +0.101 C  
DOCKED: ENDROOT
DOCKED: BRANCH   2  12
DOCKED: ATOM     12  C   UNL     1     -38.109  -8.341  15.104 -0.04 +0.00    +0.038 C  
DOCKED: BRANCH  12  13
DOCKED: ATOM     13  C   UNL     1     -37.801  -6.895  15.486 -0.02 +0.00    +0.038 C  
DOCKED: BRANCH  13  14
DOCKED: ATOM     14  C   UNL     1     -36.294  -6.647  15.525 -0.00 +0.00    +0.251 C  
DOCKED: BRANCH  14  15
DOCKED: ATOM     15  N   UNL     1     -35.939  -5.540  14.645 -0.01 +0.00    +0.141 N  
DOCKED: ATOM     16  C   UNL     1     -35.856  -4.287  15.398 +0.00 +0.00    +0.285 C  
DOCKED: ATOM     17  C   UNL     1     -34.670  -5.808  13.966 -0.01 +0.00    +0.285 C  
DOCKED: ENDBRANCH  14  15
DOCKED: ENDBRANCH  13  14
DOCKED: ENDBRANCH  12  13
DOCKED: ENDBRANCH   2  12
DOCKED: BRANCH   2  18
DOCKED: ATOM     18  C   UNL     1     -39.338  -7.428  13.143 -0.18 +0.00    +0.006 A  
DOCKED: ATOM     19  C   UNL     1     -38.980  -6.575  12.100 -0.18 +0.00    +0.001 A  
DOCKED: ATOM     20  C   UNL     1     -39.872  -5.595  11.663 -0.15 +0.00    +0.029 A  
DOCKED: ATOM     21  C   UNL     1     -41.121  -5.470  12.270 -0.12 +0.00    +0.140 A  
DOCKED: ATOM     22  C   UNL     1     -41.479  -6.323  13.314 -0.13 +0.00    +0.029 A  
DOCKED: ATOM     23  F   UNL     1     -41.979  -4.530  11.850 -0.01 -0.00    -0.204 F  
DOCKED: ATOM     24  C   UNL     1     -40.587  -7.303  13.751 -0.13 +0.00    +0.001 A  
DOCKED: ENDBRANCH   2  18
DOCKED: TORSDOF 5
DOCKED: TER
DOCKED: ENDMDL
________________________________________________________________________________


    FINAL DOCKED STATE:
    ________________________


Run:   20 / 512
Time taken for this run:   0.002s

DOCKED: MODEL        20
DOCKED: USER    Run = 20
DOCKED: USER
DOCKED: USER    Estimated Free Energy of Binding    =  -3.55 kcal/mol  [=(1)+(2)+(3)-(4)]
DOCKED: USER
DOCKED: USER    (1) Final Intermolecular Energy     =  -5.04 kcal/mol
DOCKED: USER        vdW + Hbond + desolv Energy     =  -5.04 kcal/mol
DOCKED: USER        Electrostatic Energy            =  +0.00 kcal/mol
DOCKED: USER        Moving Ligand-Fixed Receptor    =  -5.04 kcal/mol
DOCKED: USER        Moving Ligand-Moving Receptor   =  +0.00 kcal/mol
DOCKED: USER    (2) Final Total Internal Energy     =  -1.46 kcal/mol
DOCKED: USER    (3) Torsional Free Energy           =  +1.49 kcal/mol
DOCKED: USER    (4) Unbound System's Energy         =  -1.46 kcal/mol
DOCKED: USER
DOCKED: USER
DOCKED: REMARK  5 active torsions:
DOCKED: REMARK  status: ('A' for Active; 'I' for Inactive)
DOCKED: REMARK    1  A    between atoms: C_2  and  C_19 
DOCKED: REMARK    2  A    between atoms: C_2  and  C_11 
DOCKED: REMARK    3  A    between atoms: C_19  and  C_20 
DOCKED: REMARK    4  A    between atoms: C_20  and  C_21 
DOCKED: REMARK    5  A    between atoms: C_21  and  N_22 
DOCKED: USER                              x       y       z     vdW  Elec       q    Type
DOCKED: USER                           _______ _______ _______ _____ _____    ______ ____
DOCKED: ROOT
DOCKED: ATOM      1  O   UNL     1     -31.931  -4.054   4.820 -0.01 -0.00    -0.346 OA 
DOCKED: ATOM      2  C   UNL     1     -31.411  -4.186   3.458 -0.04 +0.00    +0.130 C  
DOCKED: ATOM      3  C   UNL     1     -32.468  -3.544   2.607 -0.12 +0.00    +0.004 A  
DOCKED: ATOM      4  C   UNL     1     -33.452  -2.996   3.417 -0.20 +0.00    +0.006 A  
DOCKED: ATOM      5  C   UNL     1     -33.113  -3.221   4.840 -0.14 +0.00    +0.169 C  
DOCKED: ATOM      6  C   UNL     1     -32.546  -3.444   1.225 -0.15 -0.00    -0.001 A  
DOCKED: ATOM      7  C   UNL     1     -34.544  -2.336   2.879 -0.33 +0.00    +0.008 A  
DOCKED: ATOM      8  C   UNL     1     -33.644  -2.786   0.667 -0.23 +0.00    +0.010 A  
DOCKED: ATOM      9  C   UNL     1     -34.637  -2.234   1.491 -0.28 +0.00    +0.068 A  
DOCKED: ATOM     10  N   UNL     1     -36.658  -1.015   0.423 -2.47 -0.00    -0.191 NA 
DOCKED: ATOM     11  C   UNL     1     -35.752  -1.562   0.902 -0.31 +0.00    +0.101 C  
DOCKED: ENDROOT
DOCKED: BRANCH   2  12
DOCKED: ATOM     12  C   UNL     1     -30.070  -3.466   3.382 -0.02 +0.00    +0.038 C  
DOCKED: BRANCH  12  13
DOCKED: ATOM     13  C   UNL     1     -30.238  -2.022   2.914 -0.03 +0.00    +0.038 C  
DOCKED: BRANCH  13  14
DOCKED: ATOM     14  C   UNL     1     -30.294  -1.062   4.102 -0.03 +0.00    +0.251 C  
DOCKED: BRANCH  14  15
DOCKED: ATOM     15  N   UNL     1     -31.107   0.104   3.774 -0.08 +0.00    +0.141 N  
DOCKED: ATOM     16  C   UNL     1     -31.658  -0.015   2.424 -0.06 +0.00    +0.285 C  
DOCKED: ATOM     17  C   UNL     1     -32.185   0.271   4.750 -0.13 +0.00    +0.285 C  
DOCKED: ENDBRANCH  14  15
DOCKED: ENDBRANCH  13  14
DOCKED: ENDBRANCH  12  13
DOCKED: ENDBRANCH   2  12
DOCKED: BRANCH   2  18
DOCKED: ATOM     18  C   UNL     1     -31.254  -5.645   3.190 -0.04 +0.00    +0.006 A  
DOCKED: ATOM     19  C   UNL     1     -30.140  -6.110   2.493 -0.01 +0.00    +0.001 A  
DOCKED: ATOM     20  C   UNL     1     -29.995  -7.475   2.242 -0.01 +0.00    +0.029 A  
DOCKED: ATOM     21  C   UNL     1     -30.963  -8.373   2.690 -0.06 +0.00    +0.140 A  
DOCKED: ATOM     22  C   UNL     1     -32.078  -7.907   3.387 -0.16 +0.00    +0.029 A  
DOCKED: ATOM     23  F   UNL     1     -30.823  -9.683   2.451 -0.04 -0.00    -0.204 F  
DOCKED: ATOM     24  C   UNL     1     -32.224  -6.542   3.638 -0.11 +0.00    +0.001 A  
DOCKED: ENDBRANCH   2  18
DOCKED: TORSDOF 5
DOCKED: TER
DOCKED: ENDMDL
________________________________________________________________________________


    FINAL DOCKED STATE:
    ________________________


Run:   21 / 512
Time taken for this run:   0.002s

DOCKED: MODEL        21
DOCKED: USER    Run = 21
DOCKED: USER
DOCKED: USER    Estimated Free Energy of Binding    =  -5.61 kcal/mol  [=(1)+(2)+(3)-(4)]
DOCKED: USER
DOCKED: USER    (1) Final Intermolecular Energy     =  -7.10 kcal/mol
DOCKED: USER        vdW + Hbond + desolv Energy     =  -7.10 kcal/mol
DOCKED: USER        Electrostatic Energy            =  +0.00 kcal/mol
DOCKED: USER        Moving Ligand-Fixed Receptor    =  -7.10 kcal/mol
DOCKED: USER        Moving Ligand-Moving Receptor   =  +0.00 kcal/mol
DOCKED: USER    (2) Final Total Internal Energy     =  -1.19 kcal/mol
DOCKED: USER    (3) Torsional Free Energy           =  +1.49 kcal/mol
DOCKED: USER    (4) Unbound System's Energy         =  -1.19 kcal/mol
DOCKED: USER
DOCKED: USER
DOCKED: REMARK  5 active torsions:
DOCKED: REMARK  status: ('A' for Active; 'I' for Inactive)
DOCKED: REMARK    1  A    between atoms: C_2  and  C_19 
DOCKED: REMARK    2  A    between atoms: C_2  and  C_11 
DOCKED: REMARK    3  A    between atoms: C_19  and  C_20 
DOCKED: REMARK    4  A    between atoms: C_20  and  C_21 
DOCKED: REMARK    5  A    between atoms: C_21  and  N_22 
DOCKED: USER                              x       y       z     vdW  Elec       q    Type
DOCKED: USER                           _______ _______ _______ _____ _____    ______ ____
DOCKED: ROOT
DOCKED: ATOM      1  O   UNL     1     -37.048 -10.496  13.728 -0.07 -0.00    -0.346 OA 
DOCKED: ATOM      2  C   UNL     1     -36.912 -11.950  13.825 -0.23 +0.00    +0.130 C  
DOCKED: ATOM      3  C   UNL     1     -37.501 -12.452  12.538 -0.34 +0.00    +0.004 A  
DOCKED: ATOM      4  C   UNL     1     -37.841 -11.377  11.729 -0.31 +0.00    +0.006 A  
DOCKED: ATOM      5  C   UNL     1     -37.495 -10.108  12.408 -0.23 +0.00    +0.169 C  
DOCKED: ATOM      6  C   UNL     1     -37.707 -13.756  12.113 -0.41 -0.00    -0.001 A  
DOCKED: ATOM      7  C   UNL     1     -38.400 -11.566  10.477 +0.03 +0.00    +0.008 A  
DOCKED: ATOM      8  C   UNL     1     -38.274 -13.964  10.854 -0.48 +0.00    +0.010 A  
DOCKED: ATOM      9  C   UNL     1     -38.618 -12.874  10.041 -0.41 +0.00    +0.068 A  
DOCKED: ATOM     10  N   UNL     1     -39.665 -13.294   7.708 -2.90 -0.00    -0.191 NA 
DOCKED: ATOM     11  C   UNL     1     -39.196 -13.105   8.754 -0.44 +0.00    +0.101 C  
DOCKED: ENDROOT
DOCKED: BRANCH   2  12
DOCKED: ATOM     12  C   UNL     1     -35.434 -12.288  13.973 -0.21 +0.00    +0.038 C  
DOCKED: BRANCH  12  13
DOCKED: ATOM     13  C   UNL     1     -34.707 -11.247  14.822 -0.18 +0.00    +0.038 C  
DOCKED: BRANCH  13  14
DOCKED: ATOM     14  C   UNL     1     -33.449 -10.743  14.116 -0.06 +0.00    +0.251 C  
DOCKED: BRANCH  14  15
DOCKED: ATOM     15  N   UNL     1     -33.510  -9.297  13.940 -0.08 +0.00    +0.141 N  
DOCKED: ATOM     16  C   UNL     1     -34.330  -8.685  14.987 -0.03 +0.00    +0.285 C  
DOCKED: ATOM     17  C   UNL     1     -32.165  -8.720  13.946 -0.03 +0.00    +0.285 C  
DOCKED: ENDBRANCH  14  15
DOCKED: ENDBRANCH  13  14
DOCKED: ENDBRANCH  12  13
DOCKED: ENDBRANCH   2  12
DOCKED: BRANCH   2  18
DOCKED: ATOM     18  C   UNL     1     -37.686 -12.382  15.026 -0.16 +0.00    +0.006 A  
DOCKED: ATOM     19  C   UNL     1     -38.418 -11.446  15.756 -0.07 +0.00    +0.001 A  
DOCKED: ATOM     20  C   UNL     1     -39.141 -11.851  16.879 -0.05 +0.00    +0.029 A  
DOCKED: ATOM     21  C   UNL     1     -39.132 -13.189  17.269 -0.08 +0.00    +0.140 A  
DOCKED: ATOM     22  C   UNL     1     -38.400 -14.124  16.537 -0.10 +0.00    +0.029 A  
DOCKED: ATOM     23  F   UNL     1     -39.828 -13.577  18.346 -0.01 -0.00    -0.204 F  
DOCKED: ATOM     24  C   UNL     1     -37.676 -13.720  15.415 -0.26 +0.00    +0.001 A  
DOCKED: ENDBRANCH   2  18
DOCKED: TORSDOF 5
DOCKED: TER
DOCKED: ENDMDL
________________________________________________________________________________


    FINAL DOCKED STATE:
    ________________________


Run:   22 / 512
Time taken for this run:   0.002s

DOCKED: MODEL        22
DOCKED: USER    Run = 22
DOCKED: USER
DOCKED: USER    Estimated Free Energy of Binding    =  -4.76 kcal/mol  [=(1)+(2)+(3)-(4)]
DOCKED: USER
DOCKED: USER    (1) Final Intermolecular Energy     =  -6.25 kcal/mol
DOCKED: USER        vdW + Hbond + desolv Energy     =  -6.25 kcal/mol
DOCKED: USER        Electrostatic Energy            =  +0.00 kcal/mol
DOCKED: USER        Moving Ligand-Fixed Receptor    =  -6.25 kcal/mol
DOCKED: USER        Moving Ligand-Moving Receptor   =  +0.00 kcal/mol
DOCKED: USER    (2) Final Total Internal Energy     =  -1.49 kcal/mol
DOCKED: USER    (3) Torsional Free Energy           =  +1.49 kcal/mol
DOCKED: USER    (4) Unbound System's Energy         =  -1.49 kcal/mol
DOCKED: USER
DOCKED: USER
DOCKED: REMARK  5 active torsions:
DOCKED: REMARK  status: ('A' for Active; 'I' for Inactive)
DOCKED: REMARK    1  A    between atoms: C_2  and  C_19 
DOCKED: REMARK    2  A    between atoms: C_2  and  C_11 
DOCKED: REMARK    3  A    between atoms: C_19  and  C_20 
DOCKED: REMARK    4  A    between atoms: C_20  and  C_21 
DOCKED: REMARK    5  A    between atoms: C_21  and  N_22 
DOCKED: USER                              x       y       z     vdW  Elec       q    Type
DOCKED: USER                           _______ _______ _______ _____ _____    ______ ____
DOCKED: ROOT
DOCKED: ATOM      1  O   UNL     1     -37.461 -13.196  14.907 -0.08 -0.00    -0.346 OA 
DOCKED: ATOM      2  C   UNL     1     -37.424 -11.850  14.333 -0.16 +0.00    +0.130 C  
DOCKED: ATOM      3  C   UNL     1     -37.852 -12.055  12.908 -0.29 +0.00    +0.004 A  
DOCKED: ATOM      4  C   UNL     1     -38.208 -13.382  12.714 -0.34 +0.00    +0.006 A  
DOCKED: ATOM      5  C   UNL     1     -38.056 -14.134  13.980 -0.13 +0.00    +0.169 C  
DOCKED: ATOM      6  C   UNL     1     -37.929 -11.138  11.870 -0.32 -0.00    -0.001 A  
DOCKED: ATOM      7  C   UNL     1     -38.648 -13.837  11.483 -0.41 +0.00    +0.008 A  
DOCKED: ATOM      8  C   UNL     1     -38.367 -11.583  10.621 -0.08 +0.00    +0.010 A  
DOCKED: ATOM      9  C   UNL     1     -38.725 -12.925  10.429 -0.41 +0.00    +0.068 A  
DOCKED: ATOM     10  N   UNL     1     -39.537 -13.716   8.099 -2.25 -0.00    -0.191 NA 
DOCKED: ATOM     11  C   UNL     1     -39.172 -13.362   9.144 -0.51 +0.00    +0.101 C  
DOCKED: ENDROOT
DOCKED: BRANCH   2  12
DOCKED: ATOM     12  C   UNL     1     -38.384 -10.964  15.118 -0.09 +0.00    +0.038 C  
DOCKED: BRANCH  12  13
DOCKED: ATOM     13  C   UNL     1     -39.691 -11.693  15.425 -0.09 +0.00    +0.038 C  
DOCKED: BRANCH  13  14
DOCKED: ATOM     14  C   UNL     1     -40.878 -10.990  14.768 -0.03 +0.00    +0.251 C  
DOCKED: BRANCH  14  15
DOCKED: ATOM     15  N   UNL     1     -41.019 -11.420  13.382 -0.13 +0.00    +0.141 N  
DOCKED: ATOM     16  C   UNL     1     -41.639 -12.744  13.313 -0.08 +0.00    +0.285 C  
DOCKED: ATOM     17  C   UNL     1     -41.805 -10.450  12.619 -0.07 +0.00    +0.285 C  
DOCKED: ENDBRANCH  14  15
DOCKED: ENDBRANCH  13  14
DOCKED: ENDBRANCH  12  13
DOCKED: ENDBRANCH   2  12
DOCKED: BRANCH   2  18
DOCKED: ATOM     18  C   UNL     1     -36.019 -11.363  14.454 -0.19 +0.00    +0.006 A  
DOCKED: ATOM     19  C   UNL     1     -35.000 -12.252  14.795 -0.08 +0.00    +0.001 A  
DOCKED: ATOM     20  C   UNL     1     -33.687 -11.794  14.909 -0.16 +0.00    +0.029 A  
DOCKED: ATOM     21  C   UNL     1     -33.394 -10.450  14.681 -0.09 +0.00    +0.140 A  
DOCKED: ATOM     22  C   UNL     1     -34.414  -9.562  14.340 -0.10 +0.00    +0.029 A  
DOCKED: ATOM     23  F   UNL     1     -32.133 -10.012  14.788 -0.01 -0.00    -0.204 F  
DOCKED: ATOM     24  C   UNL     1     -35.728 -10.019  14.226 -0.14 +0.00    +0.001 A  
DOCKED: ENDBRANCH   2  18
DOCKED: TORSDOF 5
DOCKED: TER
DOCKED: ENDMDL
________________________________________________________________________________


    FINAL DOCKED STATE:
    ________________________


Run:   23 / 512
Time taken for this run:   0.002s

DOCKED: MODEL        23
DOCKED: USER    Run = 23
DOCKED: USER
DOCKED: USER    Estimated Free Energy of Binding    =  -5.57 kcal/mol  [=(1)+(2)+(3)-(4)]
DOCKED: USER
DOCKED: USER    (1) Final Intermolecular Energy     =  -7.06 kcal/mol
DOCKED: USER        vdW + Hbond + desolv Energy     =  -7.06 kcal/mol
DOCKED: USER        Electrostatic Energy            =  +0.00 kcal/mol
DOCKED: USER        Moving Ligand-Fixed Receptor    =  -7.06 kcal/mol
DOCKED: USER        Moving Ligand-Moving Receptor   =  +0.00 kcal/mol
DOCKED: USER    (2) Final Total Internal Energy     =  -1.29 kcal/mol
DOCKED: USER    (3) Torsional Free Energy           =  +1.49 kcal/mol
DOCKED: USER    (4) Unbound System's Energy         =  -1.29 kcal/mol
DOCKED: USER
DOCKED: USER
DOCKED: REMARK  5 active torsions:
DOCKED: REMARK  status: ('A' for Active; 'I' for Inactive)
DOCKED: REMARK    1  A    between atoms: C_2  and  C_19 
DOCKED: REMARK    2  A    between atoms: C_2  and  C_11 
DOCKED: REMARK    3  A    between atoms: C_19  and  C_20 
DOCKED: REMARK    4  A    between atoms: C_20  and  C_21 
DOCKED: REMARK    5  A    between atoms: C_21  and  N_22 
DOCKED: USER                              x       y       z     vdW  Elec       q    Type
DOCKED: USER                           _______ _______ _______ _____ _____    ______ ____
DOCKED: ROOT
DOCKED: ATOM      1  O   UNL     1     -37.669 -10.577  13.716 -0.05 -0.00    -0.346 OA 
DOCKED: ATOM      2  C   UNL     1     -37.242 -11.975  13.790 -0.22 +0.00    +0.130 C  
DOCKED: ATOM      3  C   UNL     1     -37.731 -12.569  12.501 -0.34 +0.00    +0.004 A  
DOCKED: ATOM      4  C   UNL     1     -38.290 -11.574  11.711 -0.35 +0.00    +0.006 A  
DOCKED: ATOM      5  C   UNL     1     -38.200 -10.270  12.406 -0.23 +0.00    +0.169 C  
DOCKED: ATOM      6  C   UNL     1     -37.676 -13.882  12.058 -0.36 -0.00    -0.001 A  
DOCKED: ATOM      7  C   UNL     1     -38.814 -11.856  10.461 -0.07 +0.00    +0.008 A  
DOCKED: ATOM      8  C   UNL     1     -38.204 -14.183  10.802 -0.44 +0.00    +0.010 A  
DOCKED: ATOM      9  C   UNL     1     -38.769 -13.175  10.007 -0.45 +0.00    +0.068 A  
DOCKED: ATOM     10  N   UNL     1     -39.736 -13.767   7.677 -2.65 -0.00    -0.191 NA 
DOCKED: ATOM     11  C   UNL     1     -39.303 -13.502   8.723 -0.37 +0.00    +0.101 C  
DOCKED: ENDROOT
DOCKED: BRANCH   2  12
DOCKED: ATOM     12  C   UNL     1     -35.724 -12.010  13.921 -0.24 +0.00    +0.038 C  
DOCKED: BRANCH  12  13
DOCKED: ATOM     13  C   UNL     1     -35.195 -10.753  14.610 -0.17 +0.00    +0.038 C  
DOCKED: BRANCH  13  14
DOCKED: ATOM     14  C   UNL     1     -34.864  -9.665  13.589 -0.08 +0.00    +0.251 C  
DOCKED: BRANCH  14  15
DOCKED: ATOM     15  N   UNL     1     -35.521  -8.415  13.949 -0.06 +0.00    +0.141 N  
DOCKED: ATOM     16  C   UNL     1     -34.729  -7.680  14.936 -0.01 +0.00    +0.285 C  
DOCKED: ATOM     17  C   UNL     1     -35.744  -7.589  12.761 -0.09 +0.00    +0.285 C  
DOCKED: ENDBRANCH  14  15
DOCKED: ENDBRANCH  13  14
DOCKED: ENDBRANCH  12  13
DOCKED: ENDBRANCH   2  12
DOCKED: BRANCH   2  18
DOCKED: ATOM     18  C   UNL     1     -37.899 -12.569  14.991 -0.17 +0.00    +0.006 A  
DOCKED: ATOM     19  C   UNL     1     -37.259 -13.578  15.709 -0.20 +0.00    +0.001 A  
DOCKED: ATOM     20  C   UNL     1     -37.875 -14.133  16.831 -0.20 +0.00    +0.029 A  
DOCKED: ATOM     21  C   UNL     1     -39.129 -13.678  17.234 -0.10 +0.00    +0.140 A  
DOCKED: ATOM     22  C   UNL     1     -39.770 -12.668  16.516 -0.09 +0.00    +0.029 A  
DOCKED: ATOM     23  F   UNL     1     -39.720 -14.209  18.313 -0.03 -0.00    -0.204 F  
DOCKED: ATOM     24  C   UNL     1     -39.154 -12.113  15.393 -0.10 +0.00    +0.001 A  
DOCKED: ENDBRANCH   2  18
DOCKED: TORSDOF 5
DOCKED: TER
DOCKED: ENDMDL
________________________________________________________________________________


    FINAL DOCKED STATE:
    ________________________


Run:   24 / 512
Time taken for this run:   0.002s

DOCKED: MODEL        24
DOCKED: USER    Run = 24
DOCKED: USER
DOCKED: USER    Estimated Free Energy of Binding    =  -5.50 kcal/mol  [=(1)+(2)+(3)-(4)]
DOCKED: USER
DOCKED: USER    (1) Final Intermolecular Energy     =  -6.99 kcal/mol
DOCKED: USER        vdW + Hbond + desolv Energy     =  -6.99 kcal/mol
DOCKED: USER        Electrostatic Energy            =  +0.00 kcal/mol
DOCKED: USER        Moving Ligand-Fixed Receptor    =  -6.99 kcal/mol
DOCKED: USER        Moving Ligand-Moving Receptor   =  +0.00 kcal/mol
DOCKED: USER    (2) Final Total Internal Energy     =  -1.03 kcal/mol
DOCKED: USER    (3) Torsional Free Energy           =  +1.49 kcal/mol
DOCKED: USER    (4) Unbound System's Energy         =  -1.03 kcal/mol
DOCKED: USER
DOCKED: USER
DOCKED: REMARK  5 active torsions:
DOCKED: REMARK  status: ('A' for Active; 'I' for Inactive)
DOCKED: REMARK    1  A    between atoms: C_2  and  C_19 
DOCKED: REMARK    2  A    between atoms: C_2  and  C_11 
DOCKED: REMARK    3  A    between atoms: C_19  and  C_20 
DOCKED: REMARK    4  A    between atoms: C_20  and  C_21 
DOCKED: REMARK    5  A    between atoms: C_21  and  N_22 
DOCKED: USER                              x       y       z     vdW  Elec       q    Type
DOCKED: USER                           _______ _______ _______ _____ _____    ______ ____
DOCKED: ROOT
DOCKED: ATOM      1  O   UNL     1     -36.528 -13.589  14.114 -0.14 -0.00    -0.346 OA 
DOCKED: ATOM      2  C   UNL     1     -37.272 -12.340  13.946 -0.22 +0.00    +0.130 C  
DOCKED: ATOM      3  C   UNL     1     -37.860 -12.455  12.569 -0.33 +0.00    +0.004 A  
DOCKED: ATOM      4  C   UNL     1     -37.571 -13.705  12.041 -0.42 +0.00    +0.006 A  
DOCKED: ATOM      5  C   UNL     1     -36.794 -14.497  13.020 -0.23 +0.00    +0.169 C  
DOCKED: ATOM      6  C   UNL     1     -38.602 -11.531  11.848 -0.33 -0.00    -0.001 A  
DOCKED: ATOM      7  C   UNL     1     -38.006 -14.071  10.779 -0.42 +0.00    +0.008 A  
DOCKED: ATOM      8  C   UNL     1     -39.044 -11.884  10.571 +0.04 +0.00    +0.010 A  
DOCKED: ATOM      9  C   UNL     1     -38.748 -13.148  10.040 -0.45 +0.00    +0.068 A  
DOCKED: ATOM     10  N   UNL     1     -39.588 -13.774   7.670 -2.56 -0.00    -0.191 NA 
DOCKED: ATOM     11  C   UNL     1     -39.210 -13.493   8.733 -0.39 +0.00    +0.101 C  
DOCKED: ENDROOT
DOCKED: BRANCH   2  12
DOCKED: ATOM     12  C   UNL     1     -38.331 -12.258  15.039 -0.15 +0.00    +0.038 C  
DOCKED: BRANCH  12  13
DOCKED: ATOM     13  C   UNL     1     -39.101 -13.571  15.168 -0.23 +0.00    +0.038 C  
DOCKED: BRANCH  13  14
DOCKED: ATOM     14  C   UNL     1     -40.533 -13.421  14.659 -0.10 +0.00    +0.251 C  
DOCKED: BRANCH  14  15
DOCKED: ATOM     15  N   UNL     1     -41.475 -13.484  15.770 -0.10 +0.00    +0.141 N  
DOCKED: ATOM     16  C   UNL     1     -40.845 -14.084  16.948 -0.06 +0.00    +0.285 C  
DOCKED: ATOM     17  C   UNL     1     -41.985 -12.150  16.092 -0.01 +0.00    +0.285 C  
DOCKED: ENDBRANCH  14  15
DOCKED: ENDBRANCH  13  14
DOCKED: ENDBRANCH  12  13
DOCKED: ENDBRANCH   2  12
DOCKED: BRANCH   2  18
DOCKED: ATOM     18  C   UNL     1     -36.287 -11.226  14.067 -0.20 +0.00    +0.006 A  
DOCKED: ATOM     19  C   UNL     1     -36.669  -9.921  13.756 -0.17 +0.00    +0.001 A  
DOCKED: ATOM     20  C   UNL     1     -35.747  -8.880  13.869 -0.11 +0.00    +0.029 A  
DOCKED: ATOM     21  C   UNL     1     -34.445  -9.145  14.292 -0.07 +0.00    +0.140 A  
DOCKED: ATOM     22  C   UNL     1     -34.064 -10.449  14.603 -0.13 +0.00    +0.029 A  
DOCKED: ATOM     23  F   UNL     1     -33.561  -8.145  14.402 -0.01 -0.00    -0.204 F  
DOCKED: ATOM     24  C   UNL     1     -34.985 -11.492  14.490 -0.19 +0.00    +0.001 A  
DOCKED: ENDBRANCH   2  18
DOCKED: TORSDOF 5
DOCKED: TER
DOCKED: ENDMDL
________________________________________________________________________________


    FINAL DOCKED STATE:
    ________________________


Run:   25 / 512
Time taken for this run:   0.002s

DOCKED: MODEL        25
DOCKED: USER    Run = 25
DOCKED: USER
DOCKED: USER    Estimated Free Energy of Binding    =  -4.36 kcal/mol  [=(1)+(2)+(3)-(4)]
DOCKED: USER
DOCKED: USER    (1) Final Intermolecular Energy     =  -5.85 kcal/mol
DOCKED: USER        vdW + Hbond + desolv Energy     =  -5.85 kcal/mol
DOCKED: USER        Electrostatic Energy            =  +0.00 kcal/mol
DOCKED: USER        Moving Ligand-Fixed Receptor    =  -5.85 kcal/mol
DOCKED: USER        Moving Ligand-Moving Receptor   =  +0.00 kcal/mol
DOCKED: USER    (2) Final Total Internal Energy     =  -1.18 kcal/mol
DOCKED: USER    (3) Torsional Free Energy           =  +1.49 kcal/mol
DOCKED: USER    (4) Unbound System's Energy         =  -1.18 kcal/mol
DOCKED: USER
DOCKED: USER
DOCKED: REMARK  5 active torsions:
DOCKED: REMARK  status: ('A' for Active; 'I' for Inactive)
DOCKED: REMARK    1  A    between atoms: C_2  and  C_19 
DOCKED: REMARK    2  A    between atoms: C_2  and  C_11 
DOCKED: REMARK    3  A    between atoms: C_19  and  C_20 
DOCKED: REMARK    4  A    between atoms: C_20  and  C_21 
DOCKED: REMARK    5  A    between atoms: C_21  and  N_22 
DOCKED: USER                              x       y       z     vdW  Elec       q    Type
DOCKED: USER                           _______ _______ _______ _____ _____    ______ ____
DOCKED: ROOT
DOCKED: ATOM      1  O   UNL     1     -36.626  -8.631  13.609 -0.04 -0.00    -0.346 OA 
DOCKED: ATOM      2  C   UNL     1     -38.083  -8.583  13.743 -0.12 +0.00    +0.130 C  
DOCKED: ATOM      3  C   UNL     1     -38.536  -9.917  13.224 -0.21 +0.00    +0.004 A  
DOCKED: ATOM      4  C   UNL     1     -37.431 -10.701  12.924 -0.26 +0.00    +0.006 A  
DOCKED: ATOM      5  C   UNL     1     -36.189  -9.957  13.231 -0.17 +0.00    +0.169 C  
DOCKED: ATOM      6  C   UNL     1     -39.823 -10.402  13.043 -0.22 -0.00    -0.001 A  
DOCKED: ATOM      7  C   UNL     1     -37.572 -11.987  12.432 -0.32 +0.00    +0.008 A  
DOCKED: ATOM      8  C   UNL     1     -39.982 -11.696  12.543 -0.24 +0.00    +0.010 A  
DOCKED: ATOM      9  C   UNL     1     -38.862 -12.484  12.240 -0.27 +0.00    +0.068 A  
DOCKED: ATOM     10  N   UNL     1     -39.193 -14.883  11.319 -2.60 -0.00    -0.191 NA 
DOCKED: ATOM     11  C   UNL     1     -39.045 -13.807  11.731 -0.35 +0.00    +0.101 C  
DOCKED: ENDROOT
DOCKED: BRANCH   2  12
DOCKED: ATOM     12  C   UNL     1     -38.426  -8.370  15.213 -0.04 +0.00    +0.038 C  
DOCKED: BRANCH  12  13
DOCKED: ATOM     13  C   UNL     1     -38.386  -9.684  15.990 -0.04 +0.00    +0.038 C  
DOCKED: BRANCH  13  14
DOCKED: ATOM     14  C   UNL     1     -37.152  -9.755  16.887 -0.01 +0.00    +0.251 C  
DOCKED: BRANCH  14  15
DOCKED: ATOM     15  N   UNL     1     -36.939  -8.479  17.558 -0.00 +0.00    +0.141 N  
DOCKED: ATOM     16  C   UNL     1     -37.505  -8.504  18.908 +0.00 +0.00    +0.285 C  
DOCKED: ATOM     17  C   UNL     1     -35.512  -8.156  17.613 -0.00 +0.00    +0.285 C  
DOCKED: ENDBRANCH  14  15
DOCKED: ENDBRANCH  13  14
DOCKED: ENDBRANCH  12  13
DOCKED: ENDBRANCH   2  12
DOCKED: BRANCH   2  18
DOCKED: ATOM     18  C   UNL     1     -38.560  -7.442  12.908 -0.17 +0.00    +0.006 A  
DOCKED: ATOM     19  C   UNL     1     -39.917  -7.123  12.874 -0.21 +0.00    +0.001 A  
DOCKED: ATOM     20  C   UNL     1     -40.362  -6.056  12.092 -0.18 +0.00    +0.029 A  
DOCKED: ATOM     21  C   UNL     1     -39.450  -5.310  11.347 -0.12 +0.00    +0.140 A  
DOCKED: ATOM     22  C   UNL     1     -38.093  -5.629  11.383 -0.14 +0.00    +0.029 A  
DOCKED: ATOM     23  F   UNL     1     -39.877  -4.284  10.599 -0.03 -0.00    -0.204 F  
DOCKED: ATOM     24  C   UNL     1     -37.647  -6.696  12.163 -0.13 +0.00    +0.001 A  
DOCKED: ENDBRANCH   2  18
DOCKED: TORSDOF 5
DOCKED: TER
DOCKED: ENDMDL
________________________________________________________________________________


    FINAL DOCKED STATE:
    ________________________


Run:   26 / 512
Time taken for this run:   0.002s

DOCKED: MODEL        26
DOCKED: USER    Run = 26
DOCKED: USER
DOCKED: USER    Estimated Free Energy of Binding    =  -4.22 kcal/mol  [=(1)+(2)+(3)-(4)]
DOCKED: USER
DOCKED: USER    (1) Final Intermolecular Energy     =  -5.71 kcal/mol
DOCKED: USER        vdW + Hbond + desolv Energy     =  -5.71 kcal/mol
DOCKED: USER        Electrostatic Energy            =  +0.00 kcal/mol
DOCKED: USER        Moving Ligand-Fixed Receptor    =  -5.71 kcal/mol
DOCKED: USER        Moving Ligand-Moving Receptor   =  +0.00 kcal/mol
DOCKED: USER    (2) Final Total Internal Energy     =  -1.06 kcal/mol
DOCKED: USER    (3) Torsional Free Energy           =  +1.49 kcal/mol
DOCKED: USER    (4) Unbound System's Energy         =  -1.06 kcal/mol
DOCKED: USER
DOCKED: USER
DOCKED: REMARK  5 active torsions:
DOCKED: REMARK  status: ('A' for Active; 'I' for Inactive)
DOCKED: REMARK    1  A    between atoms: C_2  and  C_19 
DOCKED: REMARK    2  A    between atoms: C_2  and  C_11 
DOCKED: REMARK    3  A    between atoms: C_19  and  C_20 
DOCKED: REMARK    4  A    between atoms: C_20  and  C_21 
DOCKED: REMARK    5  A    between atoms: C_21  and  N_22 
DOCKED: USER                              x       y       z     vdW  Elec       q    Type
DOCKED: USER                           _______ _______ _______ _____ _____    ______ ____
DOCKED: ROOT
DOCKED: ATOM      1  O   UNL     1     -39.134 -10.356  14.545 -0.01 -0.00    -0.346 OA 
DOCKED: ATOM      2  C   UNL     1     -38.210 -11.484  14.677 -0.10 +0.00    +0.130 C  
DOCKED: ATOM      3  C   UNL     1     -38.298 -12.179  13.350 -0.23 +0.00    +0.004 A  
DOCKED: ATOM      4  C   UNL     1     -39.114 -11.451  12.495 -0.27 +0.00    +0.006 A  
DOCKED: ATOM      5  C   UNL     1     -39.605 -10.236  13.182 -0.17 +0.00    +0.169 C  
DOCKED: ATOM      6  C   UNL     1     -37.695 -13.355  12.928 -0.37 -0.00    -0.001 A  
DOCKED: ATOM      7  C   UNL     1     -39.358 -11.872  11.199 -0.10 +0.00    +0.008 A  
DOCKED: ATOM      8  C   UNL     1     -37.935 -13.795  11.625 -0.43 +0.00    +0.010 A  
DOCKED: ATOM      9  C   UNL     1     -38.761 -13.057  10.765 -0.40 +0.00    +0.068 A  
DOCKED: ATOM     10  N   UNL     1     -39.181 -13.901   8.351 -1.82 -0.00    -0.191 NA 
DOCKED: ATOM     11  C   UNL     1     -38.993 -13.523   9.434 -0.53 +0.00    +0.101 C  
DOCKED: ENDROOT
DOCKED: BRANCH   2  12
DOCKED: ATOM     12  C   UNL     1     -36.819 -10.936  14.970 -0.13 +0.00    +0.038 C  
DOCKED: BRANCH  12  13
DOCKED: ATOM     13  C   UNL     1     -36.134 -10.447  13.695 -0.20 +0.00    +0.038 C  
DOCKED: BRANCH  13  14
DOCKED: ATOM     14  C   UNL     1     -36.726  -9.118  13.229 -0.14 +0.00    +0.251 C  
DOCKED: BRANCH  14  15
DOCKED: ATOM     15  N   UNL     1     -35.681  -8.107  13.122 -0.10 +0.00    +0.141 N  
DOCKED: ATOM     16  C   UNL     1     -35.356  -7.560  14.440 -0.02 +0.00    +0.285 C  
DOCKED: ATOM     17  C   UNL     1     -34.483  -8.667  12.495 -0.07 +0.00    +0.285 C  
DOCKED: ENDBRANCH  14  15
DOCKED: ENDBRANCH  13  14
DOCKED: ENDBRANCH  12  13
DOCKED: ENDBRANCH   2  12
DOCKED: BRANCH   2  18
DOCKED: ATOM     18  C   UNL     1     -38.707 -12.323  15.807 -0.11 +0.00    +0.006 A  
DOCKED: ATOM     19  C   UNL     1     -38.252 -12.086  17.104 -0.07 +0.00    +0.001 A  
DOCKED: ATOM     20  C   UNL     1     -38.716 -12.872  18.159 -0.08 +0.00    +0.029 A  
DOCKED: ATOM     21  C   UNL     1     -39.635 -13.892  17.917 -0.10 +0.00    +0.140 A  
DOCKED: ATOM     22  C   UNL     1     -40.090 -14.129  16.620 -0.08 +0.00    +0.029 A  
DOCKED: ATOM     23  F   UNL     1     -40.082 -14.645  18.930 -0.03 -0.00    -0.204 F  
DOCKED: ATOM     24  C   UNL     1     -39.625 -13.344  15.563 -0.17 +0.00    +0.001 A  
DOCKED: ENDBRANCH   2  18
DOCKED: TORSDOF 5
DOCKED: TER
DOCKED: ENDMDL
________________________________________________________________________________


    FINAL DOCKED STATE:
    ________________________


Run:   27 / 512
Time taken for this run:   0.002s

DOCKED: MODEL        27
DOCKED: USER    Run = 27
DOCKED: USER
DOCKED: USER    Estimated Free Energy of Binding    =  -4.23 kcal/mol  [=(1)+(2)+(3)-(4)]
DOCKED: USER
DOCKED: USER    (1) Final Intermolecular Energy     =  -5.72 kcal/mol
DOCKED: USER        vdW + Hbond + desolv Energy     =  -5.72 kcal/mol
DOCKED: USER        Electrostatic Energy            =  +0.00 kcal/mol
DOCKED: USER        Moving Ligand-Fixed Receptor    =  -5.72 kcal/mol
DOCKED: USER        Moving Ligand-Moving Receptor   =  +0.00 kcal/mol
DOCKED: USER    (2) Final Total Internal Energy     =  -1.05 kcal/mol
DOCKED: USER    (3) Torsional Free Energy           =  +1.49 kcal/mol
DOCKED: USER    (4) Unbound System's Energy         =  -1.05 kcal/mol
DOCKED: USER
DOCKED: USER
DOCKED: REMARK  5 active torsions:
DOCKED: REMARK  status: ('A' for Active; 'I' for Inactive)
DOCKED: REMARK    1  A    between atoms: C_2  and  C_19 
DOCKED: REMARK    2  A    between atoms: C_2  and  C_11 
DOCKED: REMARK    3  A    between atoms: C_19  and  C_20 
DOCKED: REMARK    4  A    between atoms: C_20  and  C_21 
DOCKED: REMARK    5  A    between atoms: C_21  and  N_22 
DOCKED: USER                              x       y       z     vdW  Elec       q    Type
DOCKED: USER                           _______ _______ _______ _____ _____    ______ ____
DOCKED: ROOT
DOCKED: ATOM      1  O   UNL     1     -34.528 -10.648  14.573 -0.08 -0.00    -0.346 OA 
DOCKED: ATOM      2  C   UNL     1     -35.432  -9.725  13.885 -0.13 +0.00    +0.130 C  
DOCKED: ATOM      3  C   UNL     1     -36.432 -10.629  13.223 -0.20 +0.00    +0.004 A  
DOCKED: ATOM      4  C   UNL     1     -36.187 -11.945  13.589 -0.24 +0.00    +0.006 A  
DOCKED: ATOM      5  C   UNL     1     -35.034 -12.002  14.516 -0.15 +0.00    +0.169 C  
DOCKED: ATOM      6  C   UNL     1     -37.480 -10.311  12.372 -0.27 -0.00    -0.001 A  
DOCKED: ATOM      7  C   UNL     1     -36.973 -12.982  13.119 -0.35 +0.00    +0.008 A  
DOCKED: ATOM      8  C   UNL     1     -38.280 -11.346  11.886 -0.33 +0.00    +0.010 A  
DOCKED: ATOM      9  C   UNL     1     -38.028 -12.675  12.258 -0.31 +0.00    +0.068 A  
DOCKED: ATOM     10  N   UNL     1     -39.535 -14.573  11.341 -2.56 -0.00    -0.191 NA 
DOCKED: ATOM     11  C   UNL     1     -38.858 -13.722  11.752 -0.37 +0.00    +0.101 C  
DOCKED: ENDROOT
DOCKED: BRANCH   2  12
DOCKED: ATOM     12  C   UNL     1     -36.062  -8.803  14.923 -0.06 +0.00    +0.038 C  
DOCKED: BRANCH  12  13
DOCKED: ATOM     13  C   UNL     1     -36.680  -9.598  16.072 -0.04 +0.00    +0.038 C  
DOCKED: BRANCH  13  14
DOCKED: ATOM     14  C   UNL     1     -38.191  -9.386  16.136 -0.01 +0.00    +0.251 C  
DOCKED: BRANCH  14  15
DOCKED: ATOM     15  N   UNL     1     -38.520  -8.375  17.134 -0.00 +0.00    +0.141 N  
DOCKED: ATOM     16  C   UNL     1     -37.419  -8.212  18.086 -0.00 +0.00    +0.285 C  
DOCKED: ATOM     17  C   UNL     1     -38.828  -7.097  16.491 -0.00 +0.00    +0.285 C  
DOCKED: ENDBRANCH  14  15
DOCKED: ENDBRANCH  13  14
DOCKED: ENDBRANCH  12  13
DOCKED: ENDBRANCH   2  12
DOCKED: BRANCH   2  18
DOCKED: ATOM     18  C   UNL     1     -34.609  -8.954  12.909 -0.10 +0.00    +0.006 A  
DOCKED: ATOM     19  C   UNL     1     -35.219  -8.038  12.053 -0.16 +0.00    +0.001 A  
DOCKED: ATOM     20  C   UNL     1     -34.448  -7.318  11.140 -0.12 +0.00    +0.029 A  
DOCKED: ATOM     21  C   UNL     1     -33.069  -7.513  11.086 -0.07 +0.00    +0.140 A  
DOCKED: ATOM     22  C   UNL     1     -32.459  -8.429  11.943 -0.10 +0.00    +0.029 A  
DOCKED: ATOM     23  F   UNL     1     -32.328  -6.820  10.211 -0.00 -0.00    -0.204 F  
DOCKED: ATOM     24  C   UNL     1     -33.229  -9.150  12.856 -0.07 +0.00    +0.001 A  
DOCKED: ENDBRANCH   2  18
DOCKED: TORSDOF 5
DOCKED: TER
DOCKED: ENDMDL
________________________________________________________________________________


    FINAL DOCKED STATE:
    ________________________


Run:   28 / 512
Time taken for this run:   0.002s

DOCKED: MODEL        28
DOCKED: USER    Run = 28
DOCKED: USER
DOCKED: USER    Estimated Free Energy of Binding    =  -4.70 kcal/mol  [=(1)+(2)+(3)-(4)]
DOCKED: USER
DOCKED: USER    (1) Final Intermolecular Energy     =  -6.19 kcal/mol
DOCKED: USER        vdW + Hbond + desolv Energy     =  -6.19 kcal/mol
DOCKED: USER        Electrostatic Energy            =  +0.00 kcal/mol
DOCKED: USER        Moving Ligand-Fixed Receptor    =  -6.19 kcal/mol
DOCKED: USER        Moving Ligand-Moving Receptor   =  +0.00 kcal/mol
DOCKED: USER    (2) Final Total Internal Energy     =  -1.34 kcal/mol
DOCKED: USER    (3) Torsional Free Energy           =  +1.49 kcal/mol
DOCKED: USER    (4) Unbound System's Energy         =  -1.34 kcal/mol
DOCKED: USER
DOCKED: USER
DOCKED: REMARK  5 active torsions:
DOCKED: REMARK  status: ('A' for Active; 'I' for Inactive)
DOCKED: REMARK    1  A    between atoms: C_2  and  C_19 
DOCKED: REMARK    2  A    between atoms: C_2  and  C_11 
DOCKED: REMARK    3  A    between atoms: C_19  and  C_20 
DOCKED: REMARK    4  A    between atoms: C_20  and  C_21 
DOCKED: REMARK    5  A    between atoms: C_21  and  N_22 
DOCKED: USER                              x       y       z     vdW  Elec       q    Type
DOCKED: USER                           _______ _______ _______ _____ _____    ______ ____
DOCKED: ROOT
DOCKED: ATOM      1  O   UNL     1     -37.605 -13.228  15.021 -0.08 -0.00    -0.346 OA 
DOCKED: ATOM      2  C   UNL     1     -37.540 -11.871  14.476 -0.15 +0.00    +0.130 C  
DOCKED: ATOM      3  C   UNL     1     -37.936 -12.042  13.038 -0.28 +0.00    +0.004 A  
DOCKED: ATOM      4  C   UNL     1     -38.302 -13.361  12.808 -0.32 +0.00    +0.006 A  
DOCKED: ATOM      5  C   UNL     1     -38.188 -14.140  14.062 -0.12 +0.00    +0.169 C  
DOCKED: ATOM      6  C   UNL     1     -37.980 -11.104  12.017 -0.32 -0.00    -0.001 A  
DOCKED: ATOM      7  C   UNL     1     -38.718 -13.786  11.558 -0.41 +0.00    +0.008 A  
DOCKED: ATOM      8  C   UNL     1     -38.393 -11.518  10.750 -0.12 +0.00    +0.010 A  
DOCKED: ATOM      9  C   UNL     1     -38.760 -12.852  10.522 -0.41 +0.00    +0.068 A  
DOCKED: ATOM     10  N   UNL     1     -39.527 -13.587   8.158 -2.24 -0.00    -0.191 NA 
DOCKED: ATOM     11  C   UNL     1     -39.183 -13.258   9.218 -0.50 +0.00    +0.101 C  
DOCKED: ENDROOT
DOCKED: BRANCH   2  12
DOCKED: ATOM     12  C   UNL     1     -38.507 -10.990  15.257 -0.08 +0.00    +0.038 C  
DOCKED: BRANCH  12  13
DOCKED: ATOM     13  C   UNL     1     -39.960 -11.342  14.941 -0.09 +0.00    +0.038 C  
DOCKED: BRANCH  13  14
DOCKED: ATOM     14  C   UNL     1     -40.835 -10.090  14.912 -0.03 +0.00    +0.251 C  
DOCKED: BRANCH  14  15
DOCKED: ATOM     15  N   UNL     1     -41.634 -10.058  13.693 -0.12 +0.00    +0.141 N  
DOCKED: ATOM     16  C   UNL     1     -41.274  -8.902  12.870 -0.14 +0.00    +0.285 C  
DOCKED: ATOM     17  C   UNL     1     -41.462 -11.296  12.931 -0.11 +0.00    +0.285 C  
DOCKED: ENDBRANCH  14  15
DOCKED: ENDBRANCH  13  14
DOCKED: ENDBRANCH  12  13
DOCKED: ENDBRANCH   2  12
DOCKED: BRANCH   2  18
DOCKED: ATOM     18  C   UNL     1     -36.133 -11.402  14.639 -0.18 +0.00    +0.006 A  
DOCKED: ATOM     19  C   UNL     1     -35.082 -12.157  14.121 -0.13 +0.00    +0.001 A  
DOCKED: ATOM     20  C   UNL     1     -33.766 -11.718  14.275 -0.12 +0.00    +0.029 A  
DOCKED: ATOM     21  C   UNL     1     -33.504 -10.524  14.946 -0.09 +0.00    +0.140 A  
DOCKED: ATOM     22  C   UNL     1     -34.556  -9.769  15.464 -0.06 +0.00    +0.029 A  
DOCKED: ATOM     23  F   UNL     1     -32.241 -10.102  15.092 -0.01 -0.00    -0.204 F  
DOCKED: ATOM     24  C   UNL     1     -35.872 -10.208  15.311 -0.08 +0.00    +0.001 A  
DOCKED: ENDBRANCH   2  18
DOCKED: TORSDOF 5
DOCKED: TER
DOCKED: ENDMDL
________________________________________________________________________________


    FINAL DOCKED STATE:
    ________________________


Run:   29 / 512
Time taken for this run:   0.002s

DOCKED: MODEL        29
DOCKED: USER    Run = 29
DOCKED: USER
DOCKED: USER    Estimated Free Energy of Binding    =  -3.73 kcal/mol  [=(1)+(2)+(3)-(4)]
DOCKED: USER
DOCKED: USER    (1) Final Intermolecular Energy     =  -5.22 kcal/mol
DOCKED: USER        vdW + Hbond + desolv Energy     =  -5.22 kcal/mol
DOCKED: USER        Electrostatic Energy            =  +0.00 kcal/mol
DOCKED: USER        Moving Ligand-Fixed Receptor    =  -5.22 kcal/mol
DOCKED: USER        Moving Ligand-Moving Receptor   =  +0.00 kcal/mol
DOCKED: USER    (2) Final Total Internal Energy     =  -1.33 kcal/mol
DOCKED: USER    (3) Torsional Free Energy           =  +1.49 kcal/mol
DOCKED: USER    (4) Unbound System's Energy         =  -1.33 kcal/mol
DOCKED: USER
DOCKED: USER
DOCKED: REMARK  5 active torsions:
DOCKED: REMARK  status: ('A' for Active; 'I' for Inactive)
DOCKED: REMARK    1  A    between atoms: C_2  and  C_19 
DOCKED: REMARK    2  A    between atoms: C_2  and  C_11 
DOCKED: REMARK    3  A    between atoms: C_19  and  C_20 
DOCKED: REMARK    4  A    between atoms: C_20  and  C_21 
DOCKED: REMARK    5  A    between atoms: C_21  and  N_22 
DOCKED: USER                              x       y       z     vdW  Elec       q    Type
DOCKED: USER                           _______ _______ _______ _____ _____    ______ ____
DOCKED: ROOT
DOCKED: ATOM      1  O   UNL     1     -37.155 -10.552  16.747 -0.00 -0.00    -0.346 OA 
DOCKED: ATOM      2  C   UNL     1     -36.020 -10.856  15.874 -0.07 +0.00    +0.130 C  
DOCKED: ATOM      3  C   UNL     1     -36.619 -11.700  14.787 -0.17 +0.00    +0.004 A  
DOCKED: ATOM      4  C   UNL     1     -37.994 -11.780  14.961 -0.12 +0.00    +0.006 A  
DOCKED: ATOM      5  C   UNL     1     -38.396 -10.996  16.150 -0.03 +0.00    +0.169 C  
DOCKED: ATOM      6  C   UNL     1     -35.999 -12.337  13.722 -0.24 -0.00    -0.001 A  
DOCKED: ATOM      7  C   UNL     1     -38.791 -12.498  14.086 -0.17 +0.00    +0.008 A  
DOCKED: ATOM      8  C   UNL     1     -36.789 -13.069  12.833 -0.34 +0.00    +0.010 A  
DOCKED: ATOM      9  C   UNL     1     -38.177 -13.149  13.014 -0.26 +0.00    +0.068 A  
DOCKED: ATOM     10  N   UNL     1     -39.614 -14.511  11.343 -2.51 -0.00    -0.191 NA 
DOCKED: ATOM     11  C   UNL     1     -38.970 -13.901  12.093 -0.09 +0.00    +0.101 C  
DOCKED: ENDROOT
DOCKED: BRANCH   2  12
DOCKED: ATOM     12  C   UNL     1     -35.444  -9.543  15.356 -0.06 +0.00    +0.038 C  
DOCKED: BRANCH  12  13
DOCKED: ATOM     13  C   UNL     1     -36.076  -9.144  14.024 -0.13 +0.00    +0.038 C  
DOCKED: BRANCH  13  14
DOCKED: ATOM     14  C   UNL     1     -37.370  -8.362  14.242 -0.05 +0.00    +0.251 C  
DOCKED: BRANCH  14  15
DOCKED: ATOM     15  N   UNL     1     -38.279  -8.563  13.120 -0.15 +0.00    +0.141 N  
DOCKED: ATOM     16  C   UNL     1     -39.582  -9.035  13.590 -0.12 +0.00    +0.285 C  
DOCKED: ATOM     17  C   UNL     1     -38.435  -7.325  12.354 -0.11 +0.00    +0.285 C  
DOCKED: ENDBRANCH  14  15
DOCKED: ENDBRANCH  13  14
DOCKED: ENDBRANCH  12  13
DOCKED: ENDBRANCH   2  12
DOCKED: BRANCH   2  18
DOCKED: ATOM     18  C   UNL     1     -35.020 -11.594  16.699 -0.09 +0.00    +0.006 A  
DOCKED: ATOM     19  C   UNL     1     -35.427 -12.263  17.853 -0.09 +0.00    +0.001 A  
DOCKED: ATOM     20  C   UNL     1     -34.490 -12.953  18.624 -0.11 +0.00    +0.029 A  
DOCKED: ATOM     21  C   UNL     1     -33.150 -12.973  18.240 -0.09 +0.00    +0.140 A  
DOCKED: ATOM     22  C   UNL     1     -32.744 -12.305  17.086 -0.09 +0.00    +0.029 A  
DOCKED: ATOM     23  F   UNL     1     -32.252 -13.637  18.980 -0.02 -0.00    -0.204 F  
DOCKED: ATOM     24  C   UNL     1     -33.680 -11.614  16.314 -0.10 +0.00    +0.001 A  
DOCKED: ENDBRANCH   2  18
DOCKED: TORSDOF 5
DOCKED: TER
DOCKED: ENDMDL
________________________________________________________________________________


    FINAL DOCKED STATE:
    ________________________


Run:   30 / 512
Time taken for this run:   0.002s

DOCKED: MODEL        30
DOCKED: USER    Run = 30
DOCKED: USER
DOCKED: USER    Estimated Free Energy of Binding    =  -4.14 kcal/mol  [=(1)+(2)+(3)-(4)]
DOCKED: USER
DOCKED: USER    (1) Final Intermolecular Energy     =  -5.63 kcal/mol
DOCKED: USER        vdW + Hbond + desolv Energy     =  -5.63 kcal/mol
DOCKED: USER        Electrostatic Energy            =  +0.00 kcal/mol
DOCKED: USER        Moving Ligand-Fixed Receptor    =  -5.63 kcal/mol
DOCKED: USER        Moving Ligand-Moving Receptor   =  +0.00 kcal/mol
DOCKED: USER    (2) Final Total Internal Energy     =  -1.37 kcal/mol
DOCKED: USER    (3) Torsional Free Energy           =  +1.49 kcal/mol
DOCKED: USER    (4) Unbound System's Energy         =  -1.37 kcal/mol
DOCKED: USER
DOCKED: USER
DOCKED: REMARK  5 active torsions:
DOCKED: REMARK  status: ('A' for Active; 'I' for Inactive)
DOCKED: REMARK    1  A    between atoms: C_2  and  C_19 
DOCKED: REMARK    2  A    between atoms: C_2  and  C_11 
DOCKED: REMARK    3  A    between atoms: C_19  and  C_20 
DOCKED: REMARK    4  A    between atoms: C_20  and  C_21 
DOCKED: REMARK    5  A    between atoms: C_21  and  N_22 
DOCKED: USER                              x       y       z     vdW  Elec       q    Type
DOCKED: USER                           _______ _______ _______ _____ _____    ______ ____
DOCKED: ROOT
DOCKED: ATOM      1  O   UNL     1     -34.632 -10.710  14.744 -0.07 -0.00    -0.346 OA 
DOCKED: ATOM      2  C   UNL     1     -35.802  -9.856  14.538 -0.10 +0.00    +0.130 C  
DOCKED: ATOM      3  C   UNL     1     -36.768 -10.741  13.805 -0.19 +0.00    +0.004 A  
DOCKED: ATOM      4  C   UNL     1     -36.241 -12.021  13.699 -0.25 +0.00    +0.006 A  
DOCKED: ATOM      5  C   UNL     1     -34.916 -12.074  14.356 -0.14 +0.00    +0.169 C  
DOCKED: ATOM      6  C   UNL     1     -38.019 -10.441  13.284 -0.22 -0.00    -0.001 A  
DOCKED: ATOM      7  C   UNL     1     -36.938 -13.037  13.069 -0.35 +0.00    +0.008 A  
DOCKED: ATOM      8  C   UNL     1     -38.732 -11.455  12.642 -0.27 +0.00    +0.010 A  
DOCKED: ATOM      9  C   UNL     1     -38.195 -12.746  12.535 -0.29 +0.00    +0.068 A  
DOCKED: ATOM     10  N   UNL     1     -39.548 -14.605  11.341 -2.55 -0.00    -0.191 NA 
DOCKED: ATOM     11  C   UNL     1     -38.941 -13.771  11.876 -0.33 +0.00    +0.101 C  
DOCKED: ENDROOT
DOCKED: BRANCH   2  12
DOCKED: ATOM     12  C   UNL     1     -36.321  -9.411  15.901 -0.04 +0.00    +0.038 C  
DOCKED: BRANCH  12  13
DOCKED: ATOM     13  C   UNL     1     -35.615 -10.152  17.034 -0.03 +0.00    +0.038 C  
DOCKED: BRANCH  13  14
DOCKED: ATOM     14  C   UNL     1     -36.584 -11.067  17.780 -0.02 +0.00    +0.251 C  
DOCKED: BRANCH  14  15
DOCKED: ATOM     15  N   UNL     1     -36.792 -12.302  17.034 -0.08 +0.00    +0.141 N  
DOCKED: ATOM     16  C   UNL     1     -36.526 -13.467  17.879 -0.11 +0.00    +0.285 C  
DOCKED: ATOM     17  C   UNL     1     -38.155 -12.361  16.503 -0.05 +0.00    +0.285 C  
DOCKED: ENDBRANCH  14  15
DOCKED: ENDBRANCH  13  14
DOCKED: ENDBRANCH  12  13
DOCKED: ENDBRANCH   2  12
DOCKED: BRANCH   2  18
DOCKED: ATOM     18  C   UNL     1     -35.353  -8.688  13.726 -0.11 +0.00    +0.006 A  
DOCKED: ATOM     19  C   UNL     1     -35.615  -8.649  12.357 -0.16 +0.00    +0.001 A  
DOCKED: ATOM     20  C   UNL     1     -35.193  -7.556  11.599 -0.13 +0.00    +0.029 A  
DOCKED: ATOM     21  C   UNL     1     -34.512  -6.504  12.209 -0.05 +0.00    +0.140 A  
DOCKED: ATOM     22  C   UNL     1     -34.251  -6.544  13.579 -0.03 +0.00    +0.029 A  
DOCKED: ATOM     23  F   UNL     1     -34.110  -5.455  11.481 -0.00 -0.00    -0.204 F  
DOCKED: ATOM     24  C   UNL     1     -34.671  -7.637  14.338 -0.04 +0.00    +0.001 A  
DOCKED: ENDBRANCH   2  18
DOCKED: TORSDOF 5
DOCKED: TER
DOCKED: ENDMDL
________________________________________________________________________________


    FINAL DOCKED STATE:
    ________________________


Run:   31 / 512
Time taken for this run:   0.002s

DOCKED: MODEL        31
DOCKED: USER    Run = 31
DOCKED: USER
DOCKED: USER    Estimated Free Energy of Binding    =  -5.67 kcal/mol  [=(1)+(2)+(3)-(4)]
DOCKED: USER
DOCKED: USER    (1) Final Intermolecular Energy     =  -7.17 kcal/mol
DOCKED: USER        vdW + Hbond + desolv Energy     =  -7.17 kcal/mol
DOCKED: USER        Electrostatic Energy            =  +0.00 kcal/mol
DOCKED: USER        Moving Ligand-Fixed Receptor    =  -7.17 kcal/mol
DOCKED: USER        Moving Ligand-Moving Receptor   =  +0.00 kcal/mol
DOCKED: USER    (2) Final Total Internal Energy     =  -1.53 kcal/mol
DOCKED: USER    (3) Torsional Free Energy           =  +1.49 kcal/mol
DOCKED: USER    (4) Unbound System's Energy         =  -1.53 kcal/mol
DOCKED: USER
DOCKED: USER
DOCKED: REMARK  5 active torsions:
DOCKED: REMARK  status: ('A' for Active; 'I' for Inactive)
DOCKED: REMARK    1  A    between atoms: C_2  and  C_19 
DOCKED: REMARK    2  A    between atoms: C_2  and  C_11 
DOCKED: REMARK    3  A    between atoms: C_19  and  C_20 
DOCKED: REMARK    4  A    between atoms: C_20  and  C_21 
DOCKED: REMARK    5  A    between atoms: C_21  and  N_22 
DOCKED: USER                              x       y       z     vdW  Elec       q    Type
DOCKED: USER                           _______ _______ _______ _____ _____    ______ ____
DOCKED: ROOT
DOCKED: ATOM      1  O   UNL     1     -37.623 -10.721  13.897 -0.04 -0.00    -0.346 OA 
DOCKED: ATOM      2  C   UNL     1     -37.125 -12.097  13.863 -0.22 +0.00    +0.130 C  
DOCKED: ATOM      3  C   UNL     1     -37.607 -12.621  12.541 -0.35 +0.00    +0.004 A  
DOCKED: ATOM      4  C   UNL     1     -38.231 -11.603  11.834 -0.35 +0.00    +0.006 A  
DOCKED: ATOM      5  C   UNL     1     -38.194 -10.350  12.620 -0.23 +0.00    +0.169 C  
DOCKED: ATOM      6  C   UNL     1     -37.493 -13.895  12.004 -0.39 -0.00    -0.001 A  
DOCKED: ATOM      7  C   UNL     1     -38.763 -11.822  10.575 -0.11 +0.00    +0.008 A  
DOCKED: ATOM      8  C   UNL     1     -38.028 -14.132  10.736 -0.43 +0.00    +0.010 A  
DOCKED: ATOM      9  C   UNL     1     -38.659 -13.100  10.026 -0.43 +0.00    +0.068 A  
DOCKED: ATOM     10  N   UNL     1     -39.638 -13.574   7.674 -2.75 -0.00    -0.191 NA 
DOCKED: ATOM     11  C   UNL     1     -39.200 -13.361   8.729 -0.42 +0.00    +0.101 C  
DOCKED: ENDROOT
DOCKED: BRANCH   2  12
DOCKED: ATOM     12  C   UNL     1     -35.605 -12.062  13.968 -0.24 +0.00    +0.038 C  
DOCKED: BRANCH  12  13
DOCKED: ATOM     13  C   UNL     1     -35.091 -10.634  14.139 -0.16 +0.00    +0.038 C  
DOCKED: BRANCH  13  14
DOCKED: ATOM     14  C   UNL     1     -34.843 -10.312  15.612 -0.05 +0.00    +0.251 C  
DOCKED: BRANCH  14  15
DOCKED: ATOM     15  N   UNL     1     -36.102 -10.021  16.287 -0.02 +0.00    +0.141 N  
DOCKED: ATOM     16  C   UNL     1     -35.982 -10.254  17.727 -0.01 +0.00    +0.285 C  
DOCKED: ATOM     17  C   UNL     1     -36.519  -8.642  16.028 -0.01 +0.00    +0.285 C  
DOCKED: ENDBRANCH  14  15
DOCKED: ENDBRANCH  13  14
DOCKED: ENDBRANCH  12  13
DOCKED: ENDBRANCH   2  12
DOCKED: BRANCH   2  18
DOCKED: ATOM     18  C   UNL     1     -37.729 -12.809  15.027 -0.19 +0.00    +0.006 A  
DOCKED: ATOM     19  C   UNL     1     -36.926 -13.197  16.099 -0.17 +0.00    +0.001 A  
DOCKED: ATOM     20  C   UNL     1     -37.492 -13.863  17.187 -0.21 +0.00    +0.029 A  
DOCKED: ATOM     21  C   UNL     1     -38.859 -14.139  17.201 -0.03 +0.00    +0.140 A  
DOCKED: ATOM     22  C   UNL     1     -39.661 -13.750  16.129 -0.15 +0.00    +0.029 A  
DOCKED: ATOM     23  F   UNL     1     -39.402 -14.777  18.246 -0.03 -0.00    -0.204 F  
DOCKED: ATOM     24  C   UNL     1     -39.096 -13.084  15.040 -0.18 +0.00    +0.001 A  
DOCKED: ENDBRANCH   2  18
DOCKED: TORSDOF 5
DOCKED: TER
DOCKED: ENDMDL
________________________________________________________________________________


    FINAL DOCKED STATE:
    ________________________


Run:   32 / 512
Time taken for this run:   0.002s

DOCKED: MODEL        32
DOCKED: USER    Run = 32
DOCKED: USER
DOCKED: USER    Estimated Free Energy of Binding    =  -3.67 kcal/mol  [=(1)+(2)+(3)-(4)]
DOCKED: USER
DOCKED: USER    (1) Final Intermolecular Energy     =  -5.17 kcal/mol
DOCKED: USER        vdW + Hbond + desolv Energy     =  -5.17 kcal/mol
DOCKED: USER        Electrostatic Energy            =  +0.00 kcal/mol
DOCKED: USER        Moving Ligand-Fixed Receptor    =  -5.17 kcal/mol
DOCKED: USER        Moving Ligand-Moving Receptor   =  +0.00 kcal/mol
DOCKED: USER    (2) Final Total Internal Energy     =  -1.30 kcal/mol
DOCKED: USER    (3) Torsional Free Energy           =  +1.49 kcal/mol
DOCKED: USER    (4) Unbound System's Energy         =  -1.30 kcal/mol
DOCKED: USER
DOCKED: USER
DOCKED: REMARK  5 active torsions:
DOCKED: REMARK  status: ('A' for Active; 'I' for Inactive)
DOCKED: REMARK    1  A    between atoms: C_2  and  C_19 
DOCKED: REMARK    2  A    between atoms: C_2  and  C_11 
DOCKED: REMARK    3  A    between atoms: C_19  and  C_20 
DOCKED: REMARK    4  A    between atoms: C_20  and  C_21 
DOCKED: REMARK    5  A    between atoms: C_21  and  N_22 
DOCKED: USER                              x       y       z     vdW  Elec       q    Type
DOCKED: USER                           _______ _______ _______ _____ _____    ______ ____
DOCKED: ROOT
DOCKED: ATOM      1  O   UNL     1     -37.564  -9.707  15.695 -0.00 -0.00    -0.346 OA 
DOCKED: ATOM      2  C   UNL     1     -36.994  -9.455  14.370 -0.09 +0.00    +0.130 C  
DOCKED: ATOM      3  C   UNL     1     -37.518 -10.585  13.532 -0.20 +0.00    +0.004 A  
DOCKED: ATOM      4  C   UNL     1     -38.398 -11.353  14.282 -0.12 +0.00    +0.006 A  
DOCKED: ATOM      5  C   UNL     1     -38.526 -10.786  15.643 -0.04 +0.00    +0.169 C  
DOCKED: ATOM      6  C   UNL     1     -37.246 -10.902  12.209 -0.22 -0.00    -0.001 A  
DOCKED: ATOM      7  C   UNL     1     -39.031 -12.459  13.740 -0.18 +0.00    +0.008 A  
DOCKED: ATOM      8  C   UNL     1     -37.873 -12.017  11.650 -0.33 +0.00    +0.010 A  
DOCKED: ATOM      9  C   UNL     1     -38.761 -12.791  12.412 -0.27 +0.00    +0.068 A  
DOCKED: ATOM     10  N   UNL     1     -39.910 -14.852  11.341 -2.38 -0.00    -0.191 NA 
DOCKED: ATOM     11  C   UNL     1     -39.394 -13.928  11.822 -0.26 +0.00    +0.101 C  
DOCKED: ENDROOT
DOCKED: BRANCH   2  12
DOCKED: ATOM     12  C   UNL     1     -37.472  -8.089  13.891 -0.10 +0.00    +0.038 C  
DOCKED: BRANCH  12  13
DOCKED: ATOM     13  C   UNL     1     -38.884  -8.165  13.312 -0.19 +0.00    +0.038 C  
DOCKED: BRANCH  13  14
DOCKED: ATOM     14  C   UNL     1     -39.910  -7.599  14.291 -0.05 +0.00    +0.251 C  
DOCKED: BRANCH  14  15
DOCKED: ATOM     15  N   UNL     1     -41.135  -8.389  14.256 -0.07 +0.00    +0.141 N  
DOCKED: ATOM     16  C   UNL     1     -42.268  -7.607  14.753 -0.02 +0.00    +0.285 C  
DOCKED: ATOM     17  C   UNL     1     -41.403  -8.865  12.898 -0.14 +0.00    +0.285 C  
DOCKED: ENDBRANCH  14  15
DOCKED: ENDBRANCH  13  14
DOCKED: ENDBRANCH  12  13
DOCKED: ENDBRANCH   2  12
DOCKED: BRANCH   2  18
DOCKED: ATOM     18  C   UNL     1     -35.510  -9.483  14.522 -0.10 +0.00    +0.006 A  
DOCKED: ATOM     19  C   UNL     1     -34.817  -8.309  14.813 -0.04 +0.00    +0.001 A  
DOCKED: ATOM     20  C   UNL     1     -33.429  -8.337  14.954 -0.03 +0.00    +0.029 A  
DOCKED: ATOM     21  C   UNL     1     -32.736  -9.537  14.805 -0.05 +0.00    +0.140 A  
DOCKED: ATOM     22  C   UNL     1     -33.430 -10.711  14.513 -0.13 +0.00    +0.029 A  
DOCKED: ATOM     23  F   UNL     1     -31.404  -9.564  14.942 -0.00 -0.00    -0.204 F  
DOCKED: ATOM     24  C   UNL     1     -34.819 -10.685  14.372 -0.16 +0.00    +0.001 A  
DOCKED: ENDBRANCH   2  18
DOCKED: TORSDOF 5
DOCKED: TER
DOCKED: ENDMDL
________________________________________________________________________________


    FINAL DOCKED STATE:
    ________________________


Run:   33 / 512
Time taken for this run:   0.002s

DOCKED: MODEL        33
DOCKED: USER    Run = 33
DOCKED: USER
DOCKED: USER    Estimated Free Energy of Binding    =  -3.51 kcal/mol  [=(1)+(2)+(3)-(4)]
DOCKED: USER
DOCKED: USER    (1) Final Intermolecular Energy     =  -5.00 kcal/mol
DOCKED: USER        vdW + Hbond + desolv Energy     =  -5.00 kcal/mol
DOCKED: USER        Electrostatic Energy            =  +0.00 kcal/mol
DOCKED: USER        Moving Ligand-Fixed Receptor    =  -5.00 kcal/mol
DOCKED: USER        Moving Ligand-Moving Receptor   =  +0.00 kcal/mol
DOCKED: USER    (2) Final Total Internal Energy     =  -1.27 kcal/mol
DOCKED: USER    (3) Torsional Free Energy           =  +1.49 kcal/mol
DOCKED: USER    (4) Unbound System's Energy         =  -1.27 kcal/mol
DOCKED: USER
DOCKED: USER
DOCKED: REMARK  5 active torsions:
DOCKED: REMARK  status: ('A' for Active; 'I' for Inactive)
DOCKED: REMARK    1  A    between atoms: C_2  and  C_19 
DOCKED: REMARK    2  A    between atoms: C_2  and  C_11 
DOCKED: REMARK    3  A    between atoms: C_19  and  C_20 
DOCKED: REMARK    4  A    between atoms: C_20  and  C_21 
DOCKED: REMARK    5  A    between atoms: C_21  and  N_22 
DOCKED: USER                              x       y       z     vdW  Elec       q    Type
DOCKED: USER                           _______ _______ _______ _____ _____    ______ ____
DOCKED: ROOT
DOCKED: ATOM      1  O   UNL     1     -29.638 -10.265   5.452 +0.01 -0.00    -0.346 OA 
DOCKED: ATOM      2  C   UNL     1     -30.322  -9.599   6.561 -0.05 +0.00    +0.130 C  
DOCKED: ATOM      3  C   UNL     1     -30.807 -10.733   7.417 -0.11 +0.00    +0.004 A  
DOCKED: ATOM      4  C   UNL     1     -30.346 -11.937   6.903 -0.12 +0.00    +0.006 A  
DOCKED: ATOM      5  C   UNL     1     -29.526 -11.686   5.697 -0.06 +0.00    +0.169 C  
DOCKED: ATOM      6  C   UNL     1     -31.584 -10.701   8.566 -0.19 -0.00    -0.001 A  
DOCKED: ATOM      7  C   UNL     1     -30.647 -13.143   7.512 -0.20 +0.00    +0.008 A  
DOCKED: ATOM      8  C   UNL     1     -31.900 -11.910   9.190 -0.17 +0.00    +0.010 A  
DOCKED: ATOM      9  C   UNL     1     -31.433 -13.124   8.665 -0.29 +0.00    +0.068 A  
DOCKED: ATOM     10  N   UNL     1     -32.033 -15.349   9.850 -2.51 -0.00    -0.191 NA 
DOCKED: ATOM     11  C   UNL     1     -31.764 -14.351   9.318 -0.38 +0.00    +0.101 C  
DOCKED: ENDROOT
DOCKED: BRANCH   2  12
DOCKED: ATOM     12  C   UNL     1     -29.320  -8.701   7.277 -0.02 +0.00    +0.038 C  
DOCKED: BRANCH  12  13
DOCKED: ATOM     13  C   UNL     1     -28.729  -9.393   8.504 -0.02 +0.00    +0.038 C  
DOCKED: BRANCH  13  14
DOCKED: ATOM     14  C   UNL     1     -27.203  -9.399   8.450 -0.00 +0.00    +0.251 C  
DOCKED: BRANCH  14  15
DOCKED: ATOM     15  N   UNL     1     -26.671 -10.496   9.249 -0.00 +0.00    +0.141 N  
DOCKED: ATOM     16  C   UNL     1     -27.617 -10.875  10.299 -0.00 +0.00    +0.285 C  
DOCKED: ATOM     17  C   UNL     1     -26.364 -11.650   8.402 -0.00 +0.00    +0.285 C  
DOCKED: ENDBRANCH  14  15
DOCKED: ENDBRANCH  13  14
DOCKED: ENDBRANCH  12  13
DOCKED: ENDBRANCH   2  12
DOCKED: BRANCH   2  18
DOCKED: ATOM     18  C   UNL     1     -31.435  -8.800   5.970 -0.10 +0.00    +0.006 A  
DOCKED: ATOM     19  C   UNL     1     -32.203  -7.967   6.784 -0.09 +0.00    +0.001 A  
DOCKED: ATOM     20  C   UNL     1     -33.244  -7.220   6.230 -0.13 +0.00    +0.029 A  
DOCKED: ATOM     21  C   UNL     1     -33.515  -7.307   4.865 -0.13 +0.00    +0.140 A  
DOCKED: ATOM     22  C   UNL     1     -32.746  -8.139   4.052 -0.21 +0.00    +0.029 A  
DOCKED: ATOM     23  F   UNL     1     -34.512  -6.588   4.334 -0.07 -0.00    -0.204 F  
DOCKED: ATOM     24  C   UNL     1     -31.705  -8.887   4.605 -0.15 +0.00    +0.001 A  
DOCKED: ENDBRANCH   2  18
DOCKED: TORSDOF 5
DOCKED: TER
DOCKED: ENDMDL
________________________________________________________________________________


    FINAL DOCKED STATE:
    ________________________


Run:   34 / 512
Time taken for this run:   0.002s

DOCKED: MODEL        34
DOCKED: USER    Run = 34
DOCKED: USER
DOCKED: USER    Estimated Free Energy of Binding    =  -3.59 kcal/mol  [=(1)+(2)+(3)-(4)]
DOCKED: USER
DOCKED: USER    (1) Final Intermolecular Energy     =  -5.08 kcal/mol
DOCKED: USER        vdW + Hbond + desolv Energy     =  -5.08 kcal/mol
DOCKED: USER        Electrostatic Energy            =  +0.00 kcal/mol
DOCKED: USER        Moving Ligand-Fixed Receptor    =  -5.08 kcal/mol
DOCKED: USER        Moving Ligand-Moving Receptor   =  +0.00 kcal/mol
DOCKED: USER    (2) Final Total Internal Energy     =  -1.43 kcal/mol
DOCKED: USER    (3) Torsional Free Energy           =  +1.49 kcal/mol
DOCKED: USER    (4) Unbound System's Energy         =  -1.43 kcal/mol
DOCKED: USER
DOCKED: USER
DOCKED: REMARK  5 active torsions:
DOCKED: REMARK  status: ('A' for Active; 'I' for Inactive)
DOCKED: REMARK    1  A    between atoms: C_2  and  C_19 
DOCKED: REMARK    2  A    between atoms: C_2  and  C_11 
DOCKED: REMARK    3  A    between atoms: C_19  and  C_20 
DOCKED: REMARK    4  A    between atoms: C_20  and  C_21 
DOCKED: REMARK    5  A    between atoms: C_21  and  N_22 
DOCKED: USER                              x       y       z     vdW  Elec       q    Type
DOCKED: USER                           _______ _______ _______ _____ _____    ______ ____
DOCKED: ROOT
DOCKED: ATOM      1  O   UNL     1     -32.989  -4.055   6.572 -0.05 -0.00    -0.346 OA 
DOCKED: ATOM      2  C   UNL     1     -34.291  -4.389   5.992 -0.19 +0.00    +0.130 C  
DOCKED: ATOM      3  C   UNL     1     -34.411  -3.459   4.819 -0.22 +0.00    +0.004 A  
DOCKED: ATOM      4  C   UNL     1     -33.236  -2.736   4.674 -0.12 +0.00    +0.006 A  
DOCKED: ATOM      5  C   UNL     1     -32.266  -3.139   5.717 -0.12 +0.00    +0.169 C  
DOCKED: ATOM      6  C   UNL     1     -35.471  -3.277   3.943 -0.32 -0.00    -0.001 A  
DOCKED: ATOM      7  C   UNL     1     -33.081  -1.808   3.659 -0.19 +0.00    +0.008 A  
DOCKED: ATOM      8  C   UNL     1     -35.333  -2.342   2.917 -0.38 +0.00    +0.010 A  
DOCKED: ATOM      9  C   UNL     1     -34.143  -1.611   2.775 -0.28 +0.00    +0.068 A  
DOCKED: ATOM     10  N   UNL     1     -33.917   0.114   0.855 -0.86 -0.00    -0.191 NA 
DOCKED: ATOM     11  C   UNL     1     -34.019  -0.659   1.717 -0.28 +0.00    +0.101 C  
DOCKED: ENDROOT
DOCKED: BRANCH   2  12
DOCKED: ATOM     12  C   UNL     1     -34.276  -5.858   5.586 -0.21 +0.00    +0.038 C  
DOCKED: BRANCH  12  13
DOCKED: ATOM     13  C   UNL     1     -33.909  -6.025   4.113 -0.24 +0.00    +0.038 C  
DOCKED: BRANCH  13  14
DOCKED: ATOM     14  C   UNL     1     -32.397  -6.160   3.935 -0.08 +0.00    +0.251 C  
DOCKED: BRANCH  14  15
DOCKED: ATOM     15  N   UNL     1     -31.926  -5.257   2.892 -0.06 +0.00    +0.141 N  
DOCKED: ATOM     16  C   UNL     1     -30.471  -5.338   2.758 -0.00 +0.00    +0.285 C  
DOCKED: ATOM     17  C   UNL     1     -32.571  -5.565   1.614 -0.09 +0.00    +0.285 C  
DOCKED: ENDBRANCH  14  15
DOCKED: ENDBRANCH  13  14
DOCKED: ENDBRANCH  12  13
DOCKED: ENDBRANCH   2  12
DOCKED: BRANCH   2  18
DOCKED: ATOM     18  C   UNL     1     -35.317  -4.132   7.045 -0.25 +0.00    +0.006 A  
DOCKED: ATOM     19  C   UNL     1     -36.572  -4.731   6.956 -0.28 +0.00    +0.001 A  
DOCKED: ATOM     20  C   UNL     1     -37.531  -4.489   7.941 -0.27 +0.00    +0.029 A  
DOCKED: ATOM     21  C   UNL     1     -37.232  -3.651   9.013 -0.16 +0.00    +0.140 A  
DOCKED: ATOM     22  C   UNL     1     -35.975  -3.052   9.102 -0.22 +0.00    +0.029 A  
DOCKED: ATOM     23  F   UNL     1     -38.151  -3.420   9.960 -0.01 -0.00    -0.204 F  
DOCKED: ATOM     24  C   UNL     1     -35.016  -3.292   8.117 -0.18 +0.00    +0.001 A  
DOCKED: ENDBRANCH   2  18
DOCKED: TORSDOF 5
DOCKED: TER
DOCKED: ENDMDL
________________________________________________________________________________


    FINAL DOCKED STATE:
    ________________________


Run:   35 / 512
Time taken for this run:   0.002s

DOCKED: MODEL        35
DOCKED: USER    Run = 35
DOCKED: USER
DOCKED: USER    Estimated Free Energy of Binding    =  -4.19 kcal/mol  [=(1)+(2)+(3)-(4)]
DOCKED: USER
DOCKED: USER    (1) Final Intermolecular Energy     =  -5.68 kcal/mol
DOCKED: USER        vdW + Hbond + desolv Energy     =  -5.68 kcal/mol
DOCKED: USER        Electrostatic Energy            =  +0.00 kcal/mol
DOCKED: USER        Moving Ligand-Fixed Receptor    =  -5.68 kcal/mol
DOCKED: USER        Moving Ligand-Moving Receptor   =  +0.00 kcal/mol
DOCKED: USER    (2) Final Total Internal Energy     =  -1.07 kcal/mol
DOCKED: USER    (3) Torsional Free Energy           =  +1.49 kcal/mol
DOCKED: USER    (4) Unbound System's Energy         =  -1.07 kcal/mol
DOCKED: USER
DOCKED: USER
DOCKED: REMARK  5 active torsions:
DOCKED: REMARK  status: ('A' for Active; 'I' for Inactive)
DOCKED: REMARK    1  A    between atoms: C_2  and  C_19 
DOCKED: REMARK    2  A    between atoms: C_2  and  C_11 
DOCKED: REMARK    3  A    between atoms: C_19  and  C_20 
DOCKED: REMARK    4  A    between atoms: C_20  and  C_21 
DOCKED: REMARK    5  A    between atoms: C_21  and  N_22 
DOCKED: USER                              x       y       z     vdW  Elec       q    Type
DOCKED: USER                           _______ _______ _______ _____ _____    ______ ____
DOCKED: ROOT
DOCKED: ATOM      1  O   UNL     1     -31.649  -2.882   5.891 -0.06 -0.00    -0.346 OA 
DOCKED: ATOM      2  C   UNL     1     -32.727  -3.851   6.087 -0.12 +0.00    +0.130 C  
DOCKED: ATOM      3  C   UNL     1     -33.759  -3.453   5.072 -0.18 +0.00    +0.004 A  
DOCKED: ATOM      4  C   UNL     1     -33.268  -2.417   4.290 -0.14 +0.00    +0.006 A  
DOCKED: ATOM      5  C   UNL     1     -31.894  -2.072   4.717 -0.12 +0.00    +0.169 C  
DOCKED: ATOM      6  C   UNL     1     -35.026  -3.973   4.852 -0.29 -0.00    -0.001 A  
DOCKED: ATOM      7  C   UNL     1     -34.023  -1.866   3.268 -0.27 +0.00    +0.008 A  
DOCKED: ATOM      8  C   UNL     1     -35.801  -3.425   3.828 -0.11 +0.00    +0.010 A  
DOCKED: ATOM      9  C   UNL     1     -35.302  -2.377   3.041 -0.34 +0.00    +0.068 A  
DOCKED: ATOM     10  N   UNL     1     -36.765  -1.385   1.146 -2.31 -0.00    -0.191 NA 
DOCKED: ATOM     11  C   UNL     1     -36.109  -1.829   1.996 -0.40 +0.00    +0.101 C  
DOCKED: ENDROOT
DOCKED: BRANCH   2  12
DOCKED: ATOM     12  C   UNL     1     -32.169  -5.249   5.849 -0.06 +0.00    +0.038 C  
DOCKED: BRANCH  12  13
DOCKED: ATOM     13  C   UNL     1     -33.002  -6.014   4.822 -0.14 +0.00    +0.038 C  
DOCKED: BRANCH  13  14
DOCKED: ATOM     14  C   UNL     1     -33.986  -6.960   5.507 -0.11 +0.00    +0.251 C  
DOCKED: BRANCH  14  15
DOCKED: ATOM     15  N   UNL     1     -33.959  -6.761   6.951 -0.11 +0.00    +0.141 N  
DOCKED: ATOM     16  C   UNL     1     -35.313  -6.567   7.471 -0.12 +0.00    +0.285 C  
DOCKED: ATOM     17  C   UNL     1     -33.317  -7.897   7.615 -0.10 +0.00    +0.285 C  
DOCKED: ENDBRANCH  14  15
DOCKED: ENDBRANCH  13  14
DOCKED: ENDBRANCH  12  13
DOCKED: ENDBRANCH   2  12
DOCKED: BRANCH   2  18
DOCKED: ATOM     18  C   UNL     1     -33.204  -3.695   7.493 -0.15 +0.00    +0.006 A  
DOCKED: ATOM     19  C   UNL     1     -32.326  -3.912   8.554 -0.10 +0.00    +0.001 A  
DOCKED: ATOM     20  C   UNL     1     -32.773  -3.766   9.868 -0.08 +0.00    +0.029 A  
DOCKED: ATOM     21  C   UNL     1     -34.095  -3.402  10.119 -0.10 +0.00    +0.140 A  
DOCKED: ATOM     22  C   UNL     1     -34.972  -3.184   9.056 -0.19 +0.00    +0.029 A  
DOCKED: ATOM     23  F   UNL     1     -34.523  -3.259  11.380 -0.01 -0.00    -0.204 F  
DOCKED: ATOM     24  C   UNL     1     -34.526  -3.331   7.742 -0.07 +0.00    +0.001 A  
DOCKED: ENDBRANCH   2  18
DOCKED: TORSDOF 5
DOCKED: TER
DOCKED: ENDMDL
________________________________________________________________________________


    FINAL DOCKED STATE:
    ________________________


Run:   36 / 512
Time taken for this run:   0.002s

DOCKED: MODEL        36
DOCKED: USER    Run = 36
DOCKED: USER
DOCKED: USER    Estimated Free Energy of Binding    =  -4.80 kcal/mol  [=(1)+(2)+(3)-(4)]
DOCKED: USER
DOCKED: USER    (1) Final Intermolecular Energy     =  -6.29 kcal/mol
DOCKED: USER        vdW + Hbond + desolv Energy     =  -6.29 kcal/mol
DOCKED: USER        Electrostatic Energy            =  +0.00 kcal/mol
DOCKED: USER        Moving Ligand-Fixed Receptor    =  -6.29 kcal/mol
DOCKED: USER        Moving Ligand-Moving Receptor   =  +0.00 kcal/mol
DOCKED: USER    (2) Final Total Internal Energy     =  -1.31 kcal/mol
DOCKED: USER    (3) Torsional Free Energy           =  +1.49 kcal/mol
DOCKED: USER    (4) Unbound System's Energy         =  -1.31 kcal/mol
DOCKED: USER
DOCKED: USER
DOCKED: REMARK  5 active torsions:
DOCKED: REMARK  status: ('A' for Active; 'I' for Inactive)
DOCKED: REMARK    1  A    between atoms: C_2  and  C_19 
DOCKED: REMARK    2  A    between atoms: C_2  and  C_11 
DOCKED: REMARK    3  A    between atoms: C_19  and  C_20 
DOCKED: REMARK    4  A    between atoms: C_20  and  C_21 
DOCKED: REMARK    5  A    between atoms: C_21  and  N_22 
DOCKED: USER                              x       y       z     vdW  Elec       q    Type
DOCKED: USER                           _______ _______ _______ _____ _____    ______ ____
DOCKED: ROOT
DOCKED: ATOM      1  O   UNL     1     -38.265 -10.482  14.238 -0.02 -0.00    -0.346 OA 
DOCKED: ATOM      2  C   UNL     1     -37.343 -11.616  14.153 -0.17 +0.00    +0.130 C  
DOCKED: ATOM      3  C   UNL     1     -37.693 -12.266  12.845 -0.31 +0.00    +0.004 A  
DOCKED: ATOM      4  C   UNL     1     -38.653 -11.509  12.189 -0.31 +0.00    +0.006 A  
DOCKED: ATOM      5  C   UNL     1     -38.990 -10.316  12.998 -0.19 +0.00    +0.169 C  
DOCKED: ATOM      6  C   UNL     1     -37.194 -13.429  12.277 -0.39 -0.00    -0.001 A  
DOCKED: ATOM      7  C   UNL     1     -39.147 -11.886  10.952 -0.14 +0.00    +0.008 A  
DOCKED: ATOM      8  C   UNL     1     -37.686 -13.826  11.033 -0.29 +0.00    +0.010 A  
DOCKED: ATOM      9  C   UNL     1     -38.657 -13.058  10.373 -0.42 +0.00    +0.068 A  
DOCKED: ATOM     10  N   UNL     1     -39.544 -13.819   8.061 -2.19 -0.00    -0.191 NA 
DOCKED: ATOM     11  C   UNL     1     -39.147 -13.478   9.099 -0.51 +0.00    +0.101 C  
DOCKED: ENDROOT
DOCKED: BRANCH   2  12
DOCKED: ATOM     12  C   UNL     1     -35.916 -11.082  14.186 -0.21 +0.00    +0.038 C  
DOCKED: BRANCH  12  13
DOCKED: ATOM     13  C   UNL     1     -35.801  -9.858  15.093 -0.09 +0.00    +0.038 C  
DOCKED: BRANCH  13  14
DOCKED: ATOM     14  C   UNL     1     -35.878  -8.565  14.283 -0.05 +0.00    +0.251 C  
DOCKED: BRANCH  14  15
DOCKED: ATOM     15  N   UNL     1     -36.843  -7.650  14.880 -0.02 +0.00    +0.141 N  
DOCKED: ATOM     16  C   UNL     1     -37.402  -8.218  16.108 -0.00 +0.00    +0.285 C  
DOCKED: ATOM     17  C   UNL     1     -36.221  -6.354  15.158 -0.00 +0.00    +0.285 C  
DOCKED: ENDBRANCH  14  15
DOCKED: ENDBRANCH  13  14
DOCKED: ENDBRANCH  12  13
DOCKED: ENDBRANCH   2  12
DOCKED: BRANCH   2  18
DOCKED: ATOM     18  C   UNL     1     -37.618 -12.491  15.330 -0.16 +0.00    +0.006 A  
DOCKED: ATOM     19  C   UNL     1     -36.570 -12.904  16.151 -0.13 +0.00    +0.001 A  
DOCKED: ATOM     20  C   UNL     1     -36.829 -13.722  17.251 -0.20 +0.00    +0.029 A  
DOCKED: ATOM     21  C   UNL     1     -38.134 -14.127  17.528 -0.14 +0.00    +0.140 A  
DOCKED: ATOM     22  C   UNL     1     -39.182 -13.714  16.706 -0.15 +0.00    +0.029 A  
DOCKED: ATOM     23  F   UNL     1     -38.382 -14.911  18.585 -0.05 -0.00    -0.204 F  
DOCKED: ATOM     24  C   UNL     1     -38.924 -12.895  15.605 -0.15 +0.00    +0.001 A  
DOCKED: ENDBRANCH   2  18
DOCKED: TORSDOF 5
DOCKED: TER
DOCKED: ENDMDL
________________________________________________________________________________


    FINAL DOCKED STATE:
    ________________________


Run:   37 / 512
Time taken for this run:   0.002s

DOCKED: MODEL        37
DOCKED: USER    Run = 37
DOCKED: USER
DOCKED: USER    Estimated Free Energy of Binding    =  -4.77 kcal/mol  [=(1)+(2)+(3)-(4)]
DOCKED: USER
DOCKED: USER    (1) Final Intermolecular Energy     =  -6.27 kcal/mol
DOCKED: USER        vdW + Hbond + desolv Energy     =  -6.27 kcal/mol
DOCKED: USER        Electrostatic Energy            =  +0.00 kcal/mol
DOCKED: USER        Moving Ligand-Fixed Receptor    =  -6.27 kcal/mol
DOCKED: USER        Moving Ligand-Moving Receptor   =  +0.00 kcal/mol
DOCKED: USER    (2) Final Total Internal Energy     =  -1.30 kcal/mol
DOCKED: USER    (3) Torsional Free Energy           =  +1.49 kcal/mol
DOCKED: USER    (4) Unbound System's Energy         =  -1.30 kcal/mol
DOCKED: USER
DOCKED: USER
DOCKED: REMARK  5 active torsions:
DOCKED: REMARK  status: ('A' for Active; 'I' for Inactive)
DOCKED: REMARK    1  A    between atoms: C_2  and  C_19 
DOCKED: REMARK    2  A    between atoms: C_2  and  C_11 
DOCKED: REMARK    3  A    between atoms: C_19  and  C_20 
DOCKED: REMARK    4  A    between atoms: C_20  and  C_21 
DOCKED: REMARK    5  A    between atoms: C_21  and  N_22 
DOCKED: USER                              x       y       z     vdW  Elec       q    Type
DOCKED: USER                           _______ _______ _______ _____ _____    ______ ____
DOCKED: ROOT
DOCKED: ATOM      1  O   UNL     1     -36.893 -13.701  15.095 -0.10 -0.00    -0.346 OA 
DOCKED: ATOM      2  C   UNL     1     -37.222 -12.292  14.872 -0.16 +0.00    +0.130 C  
DOCKED: ATOM      3  C   UNL     1     -37.666 -12.249  13.438 -0.26 +0.00    +0.004 A  
DOCKED: ATOM      4  C   UNL     1     -37.694 -13.536  12.919 -0.35 +0.00    +0.006 A  
DOCKED: ATOM      5  C   UNL     1     -37.290 -14.507  13.961 -0.16 +0.00    +0.169 C  
DOCKED: ATOM      6  C   UNL     1     -38.026 -11.159  12.659 -0.29 -0.00    -0.001 A  
DOCKED: ATOM      7  C   UNL     1     -38.077 -13.777  11.611 -0.44 +0.00    +0.008 A  
DOCKED: ATOM      8  C   UNL     1     -38.410 -11.385  11.336 -0.28 +0.00    +0.010 A  
DOCKED: ATOM      9  C   UNL     1     -38.436 -12.688  10.815 -0.38 +0.00    +0.068 A  
DOCKED: ATOM     10  N   UNL     1     -39.160 -13.073   8.357 -2.00 -0.00    -0.191 NA 
DOCKED: ATOM     11  C   UNL     1     -38.834 -12.900   9.460 -0.51 +0.00    +0.101 C  
DOCKED: ENDROOT
DOCKED: BRANCH   2  12
DOCKED: ATOM     12  C   UNL     1     -38.324 -11.894  15.846 -0.10 +0.00    +0.038 C  
DOCKED: BRANCH  12  13
DOCKED: ATOM     13  C   UNL     1     -38.677 -13.044  16.788 -0.15 +0.00    +0.038 C  
DOCKED: BRANCH  13  14
DOCKED: ATOM     14  C   UNL     1     -38.065 -12.829  18.171 -0.05 +0.00    +0.251 C  
DOCKED: BRANCH  14  15
DOCKED: ATOM     15  N   UNL     1     -37.763 -14.111  18.796 -0.13 +0.00    +0.141 N  
DOCKED: ATOM     16  C   UNL     1     -38.991 -14.868  19.041 -0.12 +0.00    +0.285 C  
DOCKED: ATOM     17  C   UNL     1     -36.845 -14.887  17.962 -0.16 +0.00    +0.285 C  
DOCKED: ENDBRANCH  14  15
DOCKED: ENDBRANCH  13  14
DOCKED: ENDBRANCH  12  13
DOCKED: ENDBRANCH   2  12
DOCKED: BRANCH   2  18
DOCKED: ATOM     18  C   UNL     1     -35.976 -11.509  15.119 -0.15 +0.00    +0.006 A  
DOCKED: ATOM     19  C   UNL     1     -34.840 -11.745  14.346 -0.20 +0.00    +0.001 A  
DOCKED: ATOM     20  C   UNL     1     -33.675 -11.012  14.578 -0.14 +0.00    +0.029 A  
DOCKED: ATOM     21  C   UNL     1     -33.649 -10.045  15.582 -0.05 +0.00    +0.140 A  
DOCKED: ATOM     22  C   UNL     1     -34.786  -9.809  16.354 -0.03 +0.00    +0.029 A  
DOCKED: ATOM     23  F   UNL     1     -32.532  -9.340  15.803 -0.00 -0.00    -0.204 F  
DOCKED: ATOM     24  C   UNL     1     -35.951 -10.542  16.123 -0.06 +0.00    +0.001 A  
DOCKED: ENDBRANCH   2  18
DOCKED: TORSDOF 5
DOCKED: TER
DOCKED: ENDMDL
________________________________________________________________________________


    FINAL DOCKED STATE:
    ________________________


Run:   38 / 512
Time taken for this run:   0.002s

DOCKED: MODEL        38
DOCKED: USER    Run = 38
DOCKED: USER
DOCKED: USER    Estimated Free Energy of Binding    =  -3.54 kcal/mol  [=(1)+(2)+(3)-(4)]
DOCKED: USER
DOCKED: USER    (1) Final Intermolecular Energy     =  -5.03 kcal/mol
DOCKED: USER        vdW + Hbond + desolv Energy     =  -5.03 kcal/mol
DOCKED: USER        Electrostatic Energy            =  +0.00 kcal/mol
DOCKED: USER        Moving Ligand-Fixed Receptor    =  -5.03 kcal/mol
DOCKED: USER        Moving Ligand-Moving Receptor   =  +0.00 kcal/mol
DOCKED: USER    (2) Final Total Internal Energy     =  -1.40 kcal/mol
DOCKED: USER    (3) Torsional Free Energy           =  +1.49 kcal/mol
DOCKED: USER    (4) Unbound System's Energy         =  -1.40 kcal/mol
DOCKED: USER
DOCKED: USER
DOCKED: REMARK  5 active torsions:
DOCKED: REMARK  status: ('A' for Active; 'I' for Inactive)
DOCKED: REMARK    1  A    between atoms: C_2  and  C_19 
DOCKED: REMARK    2  A    between atoms: C_2  and  C_11 
DOCKED: REMARK    3  A    between atoms: C_19  and  C_20 
DOCKED: REMARK    4  A    between atoms: C_20  and  C_21 
DOCKED: REMARK    5  A    between atoms: C_21  and  N_22 
DOCKED: USER                              x       y       z     vdW  Elec       q    Type
DOCKED: USER                           _______ _______ _______ _____ _____    ______ ____
DOCKED: ROOT
DOCKED: ATOM      1  O   UNL     1     -37.478  -8.265  14.662 -0.01 -0.00    -0.346 OA 
DOCKED: ATOM      2  C   UNL     1     -37.135  -8.644  13.291 -0.15 +0.00    +0.130 C  
DOCKED: ATOM      3  C   UNL     1     -37.661 -10.044  13.163 -0.22 +0.00    +0.004 A  
DOCKED: ATOM      4  C   UNL     1     -38.342 -10.395  14.320 -0.10 +0.00    +0.006 A  
DOCKED: ATOM      5  C   UNL     1     -38.326  -9.264  15.275 -0.03 +0.00    +0.169 C  
DOCKED: ATOM      6  C   UNL     1     -37.554 -10.932  12.102 -0.29 -0.00    -0.001 A  
DOCKED: ATOM      7  C   UNL     1     -38.933 -11.639  14.459 -0.11 +0.00    +0.008 A  
DOCKED: ATOM      8  C   UNL     1     -38.141 -12.193  12.229 -0.34 +0.00    +0.010 A  
DOCKED: ATOM      9  C   UNL     1     -38.827 -12.544  13.401 -0.18 +0.00    +0.068 A  
DOCKED: ATOM     10  N   UNL     1     -39.910 -14.889  13.601 -1.97 -0.00    -0.191 NA 
DOCKED: ATOM     11  C   UNL     1     -39.424 -13.837  13.512 -0.19 +0.00    +0.101 C  
DOCKED: ENDROOT
DOCKED: BRANCH   2  12
DOCKED: ATOM     12  C   UNL     1     -37.811  -7.666  12.337 -0.10 +0.00    +0.038 C  
DOCKED: BRANCH  12  13
DOCKED: ATOM     13  C   UNL     1     -38.981  -6.951  13.009 -0.17 +0.00    +0.038 C  
DOCKED: BRANCH  13  14
DOCKED: ATOM     14  C   UNL     1     -40.317  -7.453  12.465 -0.16 +0.00    +0.251 C  
DOCKED: BRANCH  14  15
DOCKED: ATOM     15  N   UNL     1     -40.946  -8.358  13.420 -0.15 +0.00    +0.141 N  
DOCKED: ATOM     16  C   UNL     1     -41.227  -7.666  14.679 -0.02 +0.00    +0.285 C  
DOCKED: ATOM     17  C   UNL     1     -42.178  -8.920  12.864 -0.14 +0.00    +0.285 C  
DOCKED: ENDBRANCH  14  15
DOCKED: ENDBRANCH  13  14
DOCKED: ENDBRANCH  12  13
DOCKED: ENDBRANCH   2  12
DOCKED: BRANCH   2  18
DOCKED: ATOM     18  C   UNL     1     -35.649  -8.568  13.176 -0.14 +0.00    +0.006 A  
DOCKED: ATOM     19  C   UNL     1     -34.845  -9.345  14.009 -0.12 +0.00    +0.001 A  
DOCKED: ATOM     20  C   UNL     1     -33.456  -9.273  13.901 -0.10 +0.00    +0.029 A  
DOCKED: ATOM     21  C   UNL     1     -32.873  -8.424  12.961 -0.07 +0.00    +0.140 A  
DOCKED: ATOM     22  C   UNL     1     -33.678  -7.647  12.128 -0.10 +0.00    +0.029 A  
DOCKED: ATOM     23  F   UNL     1     -31.539  -8.356  12.856 -0.01 -0.00    -0.204 F  
DOCKED: ATOM     24  C   UNL     1     -35.067  -7.718  12.236 -0.14 +0.00    +0.001 A  
DOCKED: ENDBRANCH   2  18
DOCKED: TORSDOF 5
DOCKED: TER
DOCKED: ENDMDL
________________________________________________________________________________


    FINAL DOCKED STATE:
    ________________________


Run:   39 / 512
Time taken for this run:   0.002s

DOCKED: MODEL        39
DOCKED: USER    Run = 39
DOCKED: USER
DOCKED: USER    Estimated Free Energy of Binding    =  -4.13 kcal/mol  [=(1)+(2)+(3)-(4)]
DOCKED: USER
DOCKED: USER    (1) Final Intermolecular Energy     =  -5.62 kcal/mol
DOCKED: USER        vdW + Hbond + desolv Energy     =  -5.62 kcal/mol
DOCKED: USER        Electrostatic Energy            =  +0.00 kcal/mol
DOCKED: USER        Moving Ligand-Fixed Receptor    =  -5.62 kcal/mol
DOCKED: USER        Moving Ligand-Moving Receptor   =  +0.00 kcal/mol
DOCKED: USER    (2) Final Total Internal Energy     =  -1.49 kcal/mol
DOCKED: USER    (3) Torsional Free Energy           =  +1.49 kcal/mol
DOCKED: USER    (4) Unbound System's Energy         =  -1.49 kcal/mol
DOCKED: USER
DOCKED: USER
DOCKED: REMARK  5 active torsions:
DOCKED: REMARK  status: ('A' for Active; 'I' for Inactive)
DOCKED: REMARK    1  A    between atoms: C_2  and  C_19 
DOCKED: REMARK    2  A    between atoms: C_2  and  C_11 
DOCKED: REMARK    3  A    between atoms: C_19  and  C_20 
DOCKED: REMARK    4  A    between atoms: C_20  and  C_21 
DOCKED: REMARK    5  A    between atoms: C_21  and  N_22 
DOCKED: USER                              x       y       z     vdW  Elec       q    Type
DOCKED: USER                           _______ _______ _______ _____ _____    ______ ____
DOCKED: ROOT
DOCKED: ATOM      1  O   UNL     1     -35.069 -10.598  15.194 -0.05 -0.00    -0.346 OA 
DOCKED: ATOM      2  C   UNL     1     -35.634  -9.747  14.147 -0.12 +0.00    +0.130 C  
DOCKED: ATOM      3  C   UNL     1     -36.536 -10.670  13.381 -0.21 +0.00    +0.004 A  
DOCKED: ATOM      4  C   UNL     1     -36.570 -11.911  14.001 -0.24 +0.00    +0.006 A  
DOCKED: ATOM      5  C   UNL     1     -35.716 -11.892  15.210 -0.14 +0.00    +0.169 C  
DOCKED: ATOM      6  C   UNL     1     -37.277 -10.428  12.233 -0.25 -0.00    -0.001 A  
DOCKED: ATOM      7  C   UNL     1     -37.337 -12.948  13.498 -0.31 +0.00    +0.008 A  
DOCKED: ATOM      8  C   UNL     1     -38.052 -11.465  11.710 -0.34 +0.00    +0.010 A  
DOCKED: ATOM      9  C   UNL     1     -38.082 -12.718  12.340 -0.31 +0.00    +0.068 A  
DOCKED: ATOM     10  N   UNL     1     -39.535 -14.619  11.346 -2.56 -0.00    -0.191 NA 
DOCKED: ATOM     11  C   UNL     1     -38.883 -13.767  11.792 -0.36 +0.00    +0.101 C  
DOCKED: ENDROOT
DOCKED: BRANCH   2  12
DOCKED: ATOM     12  C   UNL     1     -36.385  -8.599  14.811 -0.06 +0.00    +0.038 C  
DOCKED: BRANCH  12  13
DOCKED: ATOM     13  C   UNL     1     -35.772  -8.241  16.164 -0.02 +0.00    +0.038 C  
DOCKED: BRANCH  13  14
DOCKED: ATOM     14  C   UNL     1     -34.581  -7.300  15.996 -0.00 +0.00    +0.251 C  
DOCKED: BRANCH  14  15
DOCKED: ATOM     15  N   UNL     1     -33.335  -8.003  16.278 -0.01 +0.00    +0.141 N  
DOCKED: ATOM     16  C   UNL     1     -32.296  -7.063  16.699 -0.00 +0.00    +0.285 C  
DOCKED: ATOM     17  C   UNL     1     -33.541  -9.025  17.306 -0.00 +0.00    +0.285 C  
DOCKED: ENDBRANCH  14  15
DOCKED: ENDBRANCH  13  14
DOCKED: ENDBRANCH  12  13
DOCKED: ENDBRANCH   2  12
DOCKED: BRANCH   2  18
DOCKED: ATOM     18  C   UNL     1     -34.490  -9.242  13.331 -0.11 +0.00    +0.006 A  
DOCKED: ATOM     19  C   UNL     1     -34.717  -8.321  12.309 -0.14 +0.00    +0.001 A  
DOCKED: ATOM     20  C   UNL     1     -33.647  -7.850  11.547 -0.11 +0.00    +0.029 A  
DOCKED: ATOM     21  C   UNL     1     -32.354  -8.300  11.808 -0.07 +0.00    +0.140 A  
DOCKED: ATOM     22  C   UNL     1     -32.128  -9.221  12.831 -0.10 +0.00    +0.029 A  
DOCKED: ATOM     23  F   UNL     1     -31.327  -7.847  11.077 -0.01 -0.00    -0.204 F  
DOCKED: ATOM     24  C   UNL     1     -33.197  -9.693  13.593 -0.10 +0.00    +0.001 A  
DOCKED: ENDBRANCH   2  18
DOCKED: TORSDOF 5
DOCKED: TER
DOCKED: ENDMDL
________________________________________________________________________________


    FINAL DOCKED STATE:
    ________________________


Run:   40 / 512
Time taken for this run:   0.002s

DOCKED: MODEL        40
DOCKED: USER    Run = 40
DOCKED: USER
DOCKED: USER    Estimated Free Energy of Binding    =  -4.00 kcal/mol  [=(1)+(2)+(3)-(4)]
DOCKED: USER
DOCKED: USER    (1) Final Intermolecular Energy     =  -5.50 kcal/mol
DOCKED: USER        vdW + Hbond + desolv Energy     =  -5.50 kcal/mol
DOCKED: USER        Electrostatic Energy            =  +0.00 kcal/mol
DOCKED: USER        Moving Ligand-Fixed Receptor    =  -5.50 kcal/mol
DOCKED: USER        Moving Ligand-Moving Receptor   =  +0.00 kcal/mol
DOCKED: USER    (2) Final Total Internal Energy     =  -1.53 kcal/mol
DOCKED: USER    (3) Torsional Free Energy           =  +1.49 kcal/mol
DOCKED: USER    (4) Unbound System's Energy         =  -1.53 kcal/mol
DOCKED: USER
DOCKED: USER
DOCKED: REMARK  5 active torsions:
DOCKED: REMARK  status: ('A' for Active; 'I' for Inactive)
DOCKED: REMARK    1  A    between atoms: C_2  and  C_19 
DOCKED: REMARK    2  A    between atoms: C_2  and  C_11 
DOCKED: REMARK    3  A    between atoms: C_19  and  C_20 
DOCKED: REMARK    4  A    between atoms: C_20  and  C_21 
DOCKED: REMARK    5  A    between atoms: C_21  and  N_22 
DOCKED: USER                              x       y       z     vdW  Elec       q    Type
DOCKED: USER                           _______ _______ _______ _____ _____    ______ ____
DOCKED: ROOT
DOCKED: ATOM      1  O   UNL     1     -39.717  -8.134  13.678 -0.06 -0.00    -0.346 OA 
DOCKED: ATOM      2  C   UNL     1     -38.299  -8.448  13.494 -0.14 +0.00    +0.130 C  
DOCKED: ATOM      3  C   UNL     1     -38.304  -9.874  13.026 -0.22 +0.00    +0.004 A  
DOCKED: ATOM      4  C   UNL     1     -39.612 -10.304  12.851 -0.23 +0.00    +0.006 A  
DOCKED: ATOM      5  C   UNL     1     -40.549  -9.205  13.174 -0.19 +0.00    +0.169 C  
DOCKED: ATOM      6  C   UNL     1     -37.236 -10.720  12.765 -0.27 -0.00    -0.001 A  
DOCKED: ATOM      7  C   UNL     1     -39.896 -11.587  12.415 -0.24 +0.00    +0.008 A  
DOCKED: ATOM      8  C   UNL     1     -37.507 -12.018  12.329 -0.32 +0.00    +0.010 A  
DOCKED: ATOM      9  C   UNL     1     -38.830 -12.449  12.155 -0.28 +0.00    +0.068 A  
DOCKED: ATOM     10  N   UNL     1     -39.298 -14.864  11.340 -2.58 -0.00    -0.191 NA 
DOCKED: ATOM     11  C   UNL     1     -39.088 -13.781  11.706 -0.37 +0.00    +0.101 C  
DOCKED: ENDROOT
DOCKED: BRANCH   2  12
DOCKED: ATOM     12  C   UNL     1     -37.722  -7.486  12.462 -0.16 +0.00    +0.038 C  
DOCKED: BRANCH  12  13
DOCKED: ATOM     13  C   UNL     1     -38.666  -6.312  12.206 -0.18 +0.00    +0.038 C  
DOCKED: BRANCH  13  14
DOCKED: ATOM     14  C   UNL     1     -38.586  -5.287  13.336 -0.04 +0.00    +0.251 C  
DOCKED: BRANCH  14  15
DOCKED: ATOM     15  N   UNL     1     -39.921  -4.827  13.699 -0.03 +0.00    +0.141 N  
DOCKED: ATOM     16  C   UNL     1     -40.925  -5.395  12.799 -0.07 +0.00    +0.285 C  
DOCKED: ATOM     17  C   UNL     1     -40.227  -5.179  15.087 -0.00 +0.00    +0.285 C  
DOCKED: ENDBRANCH  14  15
DOCKED: ENDBRANCH  13  14
DOCKED: ENDBRANCH  12  13
DOCKED: ENDBRANCH   2  12
DOCKED: BRANCH   2  18
DOCKED: ATOM     18  C   UNL     1     -37.638  -8.273  14.821 -0.05 +0.00    +0.006 A  
DOCKED: ATOM     19  C   UNL     1     -38.219  -8.818  15.966 -0.02 +0.00    +0.001 A  
DOCKED: ATOM     20  C   UNL     1     -37.601  -8.654  17.206 -0.00 +0.00    +0.029 A  
DOCKED: ATOM     21  C   UNL     1     -36.402  -7.947  17.299 -0.00 +0.00    +0.140 A  
DOCKED: ATOM     22  C   UNL     1     -35.821  -7.404  16.154 -0.01 +0.00    +0.029 A  
DOCKED: ATOM     23  F   UNL     1     -35.808  -7.792  18.489 +0.00 -0.00    -0.204 F  
DOCKED: ATOM     24  C   UNL     1     -36.440  -7.567  14.913 -0.03 +0.00    +0.001 A  
DOCKED: ENDBRANCH   2  18
DOCKED: TORSDOF 5
DOCKED: TER
DOCKED: ENDMDL
________________________________________________________________________________


    FINAL DOCKED STATE:
    ________________________


Run:   41 / 512
Time taken for this run:   0.002s

DOCKED: MODEL        41
DOCKED: USER    Run = 41
DOCKED: USER
DOCKED: USER    Estimated Free Energy of Binding    =  -4.47 kcal/mol  [=(1)+(2)+(3)-(4)]
DOCKED: USER
DOCKED: USER    (1) Final Intermolecular Energy     =  -5.97 kcal/mol
DOCKED: USER        vdW + Hbond + desolv Energy     =  -5.97 kcal/mol
DOCKED: USER        Electrostatic Energy            =  +0.00 kcal/mol
DOCKED: USER        Moving Ligand-Fixed Receptor    =  -5.97 kcal/mol
DOCKED: USER        Moving Ligand-Moving Receptor   =  +0.00 kcal/mol
DOCKED: USER    (2) Final Total Internal Energy     =  -1.40 kcal/mol
DOCKED: USER    (3) Torsional Free Energy           =  +1.49 kcal/mol
DOCKED: USER    (4) Unbound System's Energy         =  -1.40 kcal/mol
DOCKED: USER
DOCKED: USER
DOCKED: REMARK  5 active torsions:
DOCKED: REMARK  status: ('A' for Active; 'I' for Inactive)
DOCKED: REMARK    1  A    between atoms: C_2  and  C_19 
DOCKED: REMARK    2  A    between atoms: C_2  and  C_11 
DOCKED: REMARK    3  A    between atoms: C_19  and  C_20 
DOCKED: REMARK    4  A    between atoms: C_20  and  C_21 
DOCKED: REMARK    5  A    between atoms: C_21  and  N_22 
DOCKED: USER                              x       y       z     vdW  Elec       q    Type
DOCKED: USER                           _______ _______ _______ _____ _____    ______ ____
DOCKED: ROOT
DOCKED: ATOM      1  O   UNL     1     -33.809  -5.205   6.196 -0.03 -0.00    -0.346 OA 
DOCKED: ATOM      2  C   UNL     1     -35.155  -4.797   6.602 -0.22 +0.00    +0.130 C  
DOCKED: ATOM      3  C   UNL     1     -35.640  -3.961   5.453 -0.29 +0.00    +0.004 A  
DOCKED: ATOM      4  C   UNL     1     -34.700  -3.981   4.432 -0.28 +0.00    +0.006 A  
DOCKED: ATOM      5  C   UNL     1     -33.551  -4.827   4.823 -0.15 +0.00    +0.169 C  
DOCKED: ATOM      6  C   UNL     1     -36.823  -3.251   5.317 +0.33 -0.00    -0.001 A  
DOCKED: ATOM      7  C   UNL     1     -34.906  -3.291   3.250 -0.19 +0.00    +0.008 A  
DOCKED: ATOM      8  C   UNL     1     -37.044  -2.546   4.132 -0.19 +0.00    +0.010 A  
DOCKED: ATOM      9  C   UNL     1     -36.090  -2.567   3.104 -0.30 +0.00    +0.068 A  
DOCKED: ATOM     10  N   UNL     1     -36.534  -1.253   0.915 -2.38 -0.00    -0.191 NA 
DOCKED: ATOM     11  C   UNL     1     -36.335  -1.842   1.897 -0.30 +0.00    +0.101 C  
DOCKED: ENDROOT
DOCKED: BRANCH   2  12
DOCKED: ATOM     12  C   UNL     1     -35.994  -6.051   6.820 -0.29 +0.00    +0.038 C  
DOCKED: BRANCH  12  13
DOCKED: ATOM     13  C   UNL     1     -35.148  -7.316   6.690 -0.19 +0.00    +0.038 C  
DOCKED: BRANCH  13  14
DOCKED: ATOM     14  C   UNL     1     -34.541  -7.712   8.034 -0.13 +0.00    +0.251 C  
DOCKED: BRANCH  14  15
DOCKED: ATOM     15  N   UNL     1     -33.258  -8.375   7.836 -0.13 +0.00    +0.141 N  
DOCKED: ATOM     16  C   UNL     1     -33.138  -8.866   6.462 -0.17 +0.00    +0.285 C  
DOCKED: ATOM     17  C   UNL     1     -32.154  -7.467   8.149 -0.03 +0.00    +0.285 C  
DOCKED: ENDBRANCH  14  15
DOCKED: ENDBRANCH  13  14
DOCKED: ENDBRANCH  12  13
DOCKED: ENDBRANCH   2  12
DOCKED: BRANCH   2  18
DOCKED: ATOM     18  C   UNL     1     -35.012  -4.019   7.867 -0.21 +0.00    +0.006 A  
DOCKED: ATOM     19  C   UNL     1     -33.747  -3.628   8.305 -0.16 +0.00    +0.001 A  
DOCKED: ATOM     20  C   UNL     1     -33.615  -2.900   9.489 -0.07 +0.00    +0.029 A  
DOCKED: ATOM     21  C   UNL     1     -34.746  -2.565  10.232 -0.13 +0.00    +0.140 A  
DOCKED: ATOM     22  C   UNL     1     -36.010  -2.956   9.793 -0.18 +0.00    +0.029 A  
DOCKED: ATOM     23  F   UNL     1     -34.618  -1.865  11.366 -0.04 -0.00    -0.204 F  
DOCKED: ATOM     24  C   UNL     1     -36.144  -3.684   8.609 -0.23 +0.00    +0.001 A  
DOCKED: ENDBRANCH   2  18
DOCKED: TORSDOF 5
DOCKED: TER
DOCKED: ENDMDL
________________________________________________________________________________


    FINAL DOCKED STATE:
    ________________________


Run:   42 / 512
Time taken for this run:   0.002s

DOCKED: MODEL        42
DOCKED: USER    Run = 42
DOCKED: USER
DOCKED: USER    Estimated Free Energy of Binding    =  -4.97 kcal/mol  [=(1)+(2)+(3)-(4)]
DOCKED: USER
DOCKED: USER    (1) Final Intermolecular Energy     =  -6.46 kcal/mol
DOCKED: USER        vdW + Hbond + desolv Energy     =  -6.46 kcal/mol
DOCKED: USER        Electrostatic Energy            =  +0.00 kcal/mol
DOCKED: USER        Moving Ligand-Fixed Receptor    =  -6.46 kcal/mol
DOCKED: USER        Moving Ligand-Moving Receptor   =  +0.00 kcal/mol
DOCKED: USER    (2) Final Total Internal Energy     =  -1.10 kcal/mol
DOCKED: USER    (3) Torsional Free Energy           =  +1.49 kcal/mol
DOCKED: USER    (4) Unbound System's Energy         =  -1.10 kcal/mol
DOCKED: USER
DOCKED: USER
DOCKED: REMARK  5 active torsions:
DOCKED: REMARK  status: ('A' for Active; 'I' for Inactive)
DOCKED: REMARK    1  A    between atoms: C_2  and  C_19 
DOCKED: REMARK    2  A    between atoms: C_2  and  C_11 
DOCKED: REMARK    3  A    between atoms: C_19  and  C_20 
DOCKED: REMARK    4  A    between atoms: C_20  and  C_21 
DOCKED: REMARK    5  A    between atoms: C_21  and  N_22 
DOCKED: USER                              x       y       z     vdW  Elec       q    Type
DOCKED: USER                           _______ _______ _______ _____ _____    ______ ____
DOCKED: ROOT
DOCKED: ATOM      1  O   UNL     1     -38.637 -13.316  15.013 -0.08 -0.00    -0.346 OA 
DOCKED: ATOM      2  C   UNL     1     -38.203 -12.017  14.497 -0.13 +0.00    +0.130 C  
DOCKED: ATOM      3  C   UNL     1     -38.405 -12.133  13.014 -0.26 +0.00    +0.004 A  
DOCKED: ATOM      4  C   UNL     1     -39.005 -13.349  12.718 -0.29 +0.00    +0.006 A  
DOCKED: ATOM      5  C   UNL     1     -39.250 -14.105  13.967 -0.14 +0.00    +0.169 C  
DOCKED: ATOM      6  C   UNL     1     -38.093 -11.231  12.008 -0.33 -0.00    -0.001 A  
DOCKED: ATOM      7  C   UNL     1     -39.309 -13.705  11.415 -0.41 +0.00    +0.008 A  
DOCKED: ATOM      8  C   UNL     1     -38.389 -11.577  10.688 -0.12 +0.00    +0.010 A  
DOCKED: ATOM      9  C   UNL     1     -38.994 -12.808  10.394 -0.40 +0.00    +0.068 A  
DOCKED: ATOM     10  N   UNL     1     -39.535 -13.417   7.934 -2.58 -0.00    -0.191 NA 
DOCKED: ATOM     11  C   UNL     1     -39.292 -13.144   9.037 -0.43 +0.00    +0.101 C  
DOCKED: ENDROOT
DOCKED: BRANCH   2  12
DOCKED: ATOM     12  C   UNL     1     -39.067 -10.933  15.130 -0.08 +0.00    +0.038 C  
DOCKED: BRANCH  12  13
DOCKED: ATOM     13  C   UNL     1     -40.542 -11.327  15.134 -0.09 +0.00    +0.038 C  
DOCKED: BRANCH  13  14
DOCKED: ATOM     14  C   UNL     1     -41.209 -10.975  13.806 -0.08 +0.00    +0.251 C  
DOCKED: BRANCH  14  15
DOCKED: ATOM     15  N   UNL     1     -41.874  -9.681  13.900 -0.11 +0.00    +0.141 N  
DOCKED: ATOM     16  C   UNL     1     -42.424  -9.479  15.241 -0.01 +0.00    +0.285 C  
DOCKED: ATOM     17  C   UNL     1     -40.947  -8.599  13.564 -0.12 +0.00    +0.285 C  
DOCKED: ENDBRANCH  14  15
DOCKED: ENDBRANCH  13  14
DOCKED: ENDBRANCH  12  13
DOCKED: ENDBRANCH   2  12
DOCKED: BRANCH   2  18
DOCKED: ATOM     18  C   UNL     1     -36.769 -11.853  14.878 -0.16 +0.00    +0.006 A  
DOCKED: ATOM     19  C   UNL     1     -35.766 -12.153  13.957 -0.24 +0.00    +0.001 A  
DOCKED: ATOM     20  C   UNL     1     -34.425 -12.000  14.314 -0.13 +0.00    +0.029 A  
DOCKED: ATOM     21  C   UNL     1     -34.091 -11.548  15.590 -0.10 +0.00    +0.140 A  
DOCKED: ATOM     22  C   UNL     1     -35.095 -11.248  16.510 -0.08 +0.00    +0.029 A  
DOCKED: ATOM     23  F   UNL     1     -32.804 -11.400  15.932 -0.02 -0.00    -0.204 F  
DOCKED: ATOM     24  C   UNL     1     -36.436 -11.402  16.154 -0.09 +0.00    +0.001 A  
DOCKED: ENDBRANCH   2  18
DOCKED: TORSDOF 5
DOCKED: TER
DOCKED: ENDMDL
________________________________________________________________________________


    FINAL DOCKED STATE:
    ________________________


Run:   43 / 512
Time taken for this run:   0.002s

DOCKED: MODEL        43
DOCKED: USER    Run = 43
DOCKED: USER
DOCKED: USER    Estimated Free Energy of Binding    =  -4.37 kcal/mol  [=(1)+(2)+(3)-(4)]
DOCKED: USER
DOCKED: USER    (1) Final Intermolecular Energy     =  -5.86 kcal/mol
DOCKED: USER        vdW + Hbond + desolv Energy     =  -5.86 kcal/mol
DOCKED: USER        Electrostatic Energy            =  +0.00 kcal/mol
DOCKED: USER        Moving Ligand-Fixed Receptor    =  -5.86 kcal/mol
DOCKED: USER        Moving Ligand-Moving Receptor   =  +0.00 kcal/mol
DOCKED: USER    (2) Final Total Internal Energy     =  -1.41 kcal/mol
DOCKED: USER    (3) Torsional Free Energy           =  +1.49 kcal/mol
DOCKED: USER    (4) Unbound System's Energy         =  -1.41 kcal/mol
DOCKED: USER
DOCKED: USER
DOCKED: REMARK  5 active torsions:
DOCKED: REMARK  status: ('A' for Active; 'I' for Inactive)
DOCKED: REMARK    1  A    between atoms: C_2  and  C_19 
DOCKED: REMARK    2  A    between atoms: C_2  and  C_11 
DOCKED: REMARK    3  A    between atoms: C_19  and  C_20 
DOCKED: REMARK    4  A    between atoms: C_20  and  C_21 
DOCKED: REMARK    5  A    between atoms: C_21  and  N_22 
DOCKED: USER                              x       y       z     vdW  Elec       q    Type
DOCKED: USER                           _______ _______ _______ _____ _____    ______ ____
DOCKED: ROOT
DOCKED: ATOM      1  O   UNL     1     -35.114  -9.864  14.138 -0.07 -0.00    -0.346 OA 
DOCKED: ATOM      2  C   UNL     1     -36.328  -9.166  13.713 -0.13 +0.00    +0.130 C  
DOCKED: ATOM      3  C   UNL     1     -37.180 -10.252  13.124 -0.23 +0.00    +0.004 A  
DOCKED: ATOM      4  C   UNL     1     -36.557 -11.480  13.296 -0.24 +0.00    +0.006 A  
DOCKED: ATOM      5  C   UNL     1     -35.275 -11.296  14.012 -0.12 +0.00    +0.169 C  
DOCKED: ATOM      6  C   UNL     1     -38.414 -10.162  12.496 -0.27 -0.00    -0.001 A  
DOCKED: ATOM      7  C   UNL     1     -37.139 -12.652  12.846 -0.33 +0.00    +0.008 A  
DOCKED: ATOM      8  C   UNL     1     -39.012 -11.335  12.033 -0.27 +0.00    +0.010 A  
DOCKED: ATOM      9  C   UNL     1     -38.377 -12.574  12.207 -0.30 +0.00    +0.068 A  
DOCKED: ATOM     10  N   UNL     1     -39.517 -14.733  11.340 -2.55 -0.00    -0.191 NA 
DOCKED: ATOM     11  C   UNL     1     -39.006 -13.764  11.728 -0.37 +0.00    +0.101 C  
DOCKED: ENDROOT
DOCKED: BRANCH   2  12
DOCKED: ATOM     12  C   UNL     1     -36.960  -8.512  14.936 -0.05 +0.00    +0.038 C  
DOCKED: BRANCH  12  13
DOCKED: ATOM     13  C   UNL     1     -37.845  -9.496  15.699 -0.04 +0.00    +0.038 C  
DOCKED: BRANCH  13  14
DOCKED: ATOM     14  C   UNL     1     -37.013 -10.369  16.636 -0.01 +0.00    +0.251 C  
DOCKED: BRANCH  14  15
DOCKED: ATOM     15  N   UNL     1     -37.236 -11.781  16.346 -0.06 +0.00    +0.141 N  
DOCKED: ATOM     16  C   UNL     1     -36.378 -12.621  17.183 -0.08 +0.00    +0.285 C  
DOCKED: ATOM     17  C   UNL     1     -38.643 -12.132  16.547 -0.03 +0.00    +0.285 C  
DOCKED: ENDBRANCH  14  15
DOCKED: ENDBRANCH  13  14
DOCKED: ENDBRANCH  12  13
DOCKED: ENDBRANCH   2  12
DOCKED: BRANCH   2  18
DOCKED: ATOM     18  C   UNL     1     -35.914  -8.142  12.709 -0.16 +0.00    +0.006 A  
DOCKED: ATOM     19  C   UNL     1     -36.565  -6.910  12.661 -0.11 +0.00    +0.001 A  
DOCKED: ATOM     20  C   UNL     1     -36.177  -5.954  11.722 -0.10 +0.00    +0.029 A  
DOCKED: ATOM     21  C   UNL     1     -35.139  -6.231  10.833 -0.07 +0.00    +0.140 A  
DOCKED: ATOM     22  C   UNL     1     -34.488  -7.463  10.882 -0.14 +0.00    +0.029 A  
DOCKED: ATOM     23  F   UNL     1     -34.766  -5.312   9.932 -0.01 -0.00    -0.204 F  
DOCKED: ATOM     24  C   UNL     1     -34.876  -8.420  11.821 -0.12 +0.00    +0.001 A  
DOCKED: ENDBRANCH   2  18
DOCKED: TORSDOF 5
DOCKED: TER
DOCKED: ENDMDL
________________________________________________________________________________


    FINAL DOCKED STATE:
    ________________________


Run:   44 / 512
Time taken for this run:   0.002s

DOCKED: MODEL        44
DOCKED: USER    Run = 44
DOCKED: USER
DOCKED: USER    Estimated Free Energy of Binding    =  -4.97 kcal/mol  [=(1)+(2)+(3)-(4)]
DOCKED: USER
DOCKED: USER    (1) Final Intermolecular Energy     =  -6.46 kcal/mol
DOCKED: USER        vdW + Hbond + desolv Energy     =  -6.46 kcal/mol
DOCKED: USER        Electrostatic Energy            =  +0.00 kcal/mol
DOCKED: USER        Moving Ligand-Fixed Receptor    =  -6.46 kcal/mol
DOCKED: USER        Moving Ligand-Moving Receptor   =  +0.00 kcal/mol
DOCKED: USER    (2) Final Total Internal Energy     =  -1.07 kcal/mol
DOCKED: USER    (3) Torsional Free Energy           =  +1.49 kcal/mol
DOCKED: USER    (4) Unbound System's Energy         =  -1.07 kcal/mol
DOCKED: USER
DOCKED: USER
DOCKED: REMARK  5 active torsions:
DOCKED: REMARK  status: ('A' for Active; 'I' for Inactive)
DOCKED: REMARK    1  A    between atoms: C_2  and  C_19 
DOCKED: REMARK    2  A    between atoms: C_2  and  C_11 
DOCKED: REMARK    3  A    between atoms: C_19  and  C_20 
DOCKED: REMARK    4  A    between atoms: C_20  and  C_21 
DOCKED: REMARK    5  A    between atoms: C_21  and  N_22 
DOCKED: USER                              x       y       z     vdW  Elec       q    Type
DOCKED: USER                           _______ _______ _______ _____ _____    ______ ____
DOCKED: ROOT
DOCKED: ATOM      1  O   UNL     1     -36.701 -13.348  14.567 -0.10 -0.00    -0.346 OA 
DOCKED: ATOM      2  C   UNL     1     -36.943 -11.967  14.147 -0.20 +0.00    +0.130 C  
DOCKED: ATOM      3  C   UNL     1     -37.519 -12.106  12.768 -0.31 +0.00    +0.004 A  
DOCKED: ATOM      4  C   UNL     1     -37.694 -13.450  12.469 -0.39 +0.00    +0.006 A  
DOCKED: ATOM      5  C   UNL     1     -37.265 -14.280  13.616 -0.15 +0.00    +0.169 C  
DOCKED: ATOM      6  C   UNL     1     -37.870 -11.122  11.855 -0.31 -0.00    -0.001 A  
DOCKED: ATOM      7  C   UNL     1     -38.219 -13.855  11.253 -0.47 +0.00    +0.008 A  
DOCKED: ATOM      8  C   UNL     1     -38.397 -11.515  10.624 -0.04 +0.00    +0.010 A  
DOCKED: ATOM      9  C   UNL     1     -38.571 -12.875  10.325 -0.40 +0.00    +0.068 A  
DOCKED: ATOM     10  N   UNL     1     -39.556 -13.569   8.031 -2.39 -0.00    -0.191 NA 
DOCKED: ATOM     11  C   UNL     1     -39.113 -13.258   9.060 -0.50 +0.00    +0.101 C  
DOCKED: ENDROOT
DOCKED: BRANCH   2  12
DOCKED: ATOM     12  C   UNL     1     -37.912 -11.325  15.133 -0.11 +0.00    +0.038 C  
DOCKED: BRANCH  12  13
DOCKED: ATOM     13  C   UNL     1     -37.697 -11.854  16.550 -0.09 +0.00    +0.038 C  
DOCKED: BRANCH  13  14
DOCKED: ATOM     14  C   UNL     1     -38.743 -12.908  16.909 -0.07 +0.00    +0.251 C  
DOCKED: BRANCH  14  15
DOCKED: ATOM     15  N   UNL     1     -39.896 -12.282  17.545 -0.04 +0.00    +0.141 N  
DOCKED: ATOM     16  C   UNL     1     -40.468 -13.166  18.561 -0.03 +0.00    +0.285 C  
DOCKED: ATOM     17  C   UNL     1     -39.522 -10.998  18.141 -0.00 +0.00    +0.285 C  
DOCKED: ENDBRANCH  14  15
DOCKED: ENDBRANCH  13  14
DOCKED: ENDBRANCH  12  13
DOCKED: ENDBRANCH   2  12
DOCKED: BRANCH   2  18
DOCKED: ATOM     18  C   UNL     1     -35.624 -11.269  14.159 -0.19 +0.00    +0.006 A  
DOCKED: ATOM     19  C   UNL     1     -35.564  -9.889  13.975 -0.15 +0.00    +0.001 A  
DOCKED: ATOM     20  C   UNL     1     -34.329  -9.238  13.986 -0.11 +0.00    +0.029 A  
DOCKED: ATOM     21  C   UNL     1     -33.158  -9.968  14.181 -0.09 +0.00    +0.140 A  
DOCKED: ATOM     22  C   UNL     1     -33.218 -11.349  14.364 -0.16 +0.00    +0.029 A  
DOCKED: ATOM     23  F   UNL     1     -31.973  -9.343  14.193 -0.01 -0.00    -0.204 F  
DOCKED: ATOM     24  C   UNL     1     -34.453 -12.001  14.353 -0.16 +0.00    +0.001 A  
DOCKED: ENDBRANCH   2  18
DOCKED: TORSDOF 5
DOCKED: TER
DOCKED: ENDMDL
________________________________________________________________________________


    FINAL DOCKED STATE:
    ________________________


Run:   45 / 512
Time taken for this run:   0.002s

DOCKED: MODEL        45
DOCKED: USER    Run = 45
DOCKED: USER
DOCKED: USER    Estimated Free Energy of Binding    =  -3.54 kcal/mol  [=(1)+(2)+(3)-(4)]
DOCKED: USER
DOCKED: USER    (1) Final Intermolecular Energy     =  -5.03 kcal/mol
DOCKED: USER        vdW + Hbond + desolv Energy     =  -5.03 kcal/mol
DOCKED: USER        Electrostatic Energy            =  +0.00 kcal/mol
DOCKED: USER        Moving Ligand-Fixed Receptor    =  -5.03 kcal/mol
DOCKED: USER        Moving Ligand-Moving Receptor   =  +0.00 kcal/mol
DOCKED: USER    (2) Final Total Internal Energy     =  -1.10 kcal/mol
DOCKED: USER    (3) Torsional Free Energy           =  +1.49 kcal/mol
DOCKED: USER    (4) Unbound System's Energy         =  -1.10 kcal/mol
DOCKED: USER
DOCKED: USER
DOCKED: REMARK  5 active torsions:
DOCKED: REMARK  status: ('A' for Active; 'I' for Inactive)
DOCKED: REMARK    1  A    between atoms: C_2  and  C_19 
DOCKED: REMARK    2  A    between atoms: C_2  and  C_11 
DOCKED: REMARK    3  A    between atoms: C_19  and  C_20 
DOCKED: REMARK    4  A    between atoms: C_20  and  C_21 
DOCKED: REMARK    5  A    between atoms: C_21  and  N_22 
DOCKED: USER                              x       y       z     vdW  Elec       q    Type
DOCKED: USER                           _______ _______ _______ _____ _____    ______ ____
DOCKED: ROOT
DOCKED: ATOM      1  O   UNL     1     -37.383  -8.241  14.540 -0.01 -0.00    -0.346 OA 
DOCKED: ATOM      2  C   UNL     1     -37.377  -8.512  13.102 -0.16 +0.00    +0.130 C  
DOCKED: ATOM      3  C   UNL     1     -37.894  -9.918  12.999 -0.23 +0.00    +0.004 A  
DOCKED: ATOM      4  C   UNL     1     -38.267 -10.372  14.256 -0.11 +0.00    +0.006 A  
DOCKED: ATOM      5  C   UNL     1     -38.039  -9.310  15.262 -0.03 +0.00    +0.169 C  
DOCKED: ATOM      6  C   UNL     1     -38.033 -10.726  11.881 -0.27 -0.00    -0.001 A  
DOCKED: ATOM      7  C   UNL     1     -38.785 -11.642  14.439 -0.12 +0.00    +0.008 A  
DOCKED: ATOM      8  C   UNL     1     -38.550 -12.012  12.049 -0.34 +0.00    +0.010 A  
DOCKED: ATOM      9  C   UNL     1     -38.924 -12.467  13.322 -0.18 +0.00    +0.068 A  
DOCKED: ATOM     10  N   UNL     1     -39.885 -14.858  13.600 -1.95 -0.00    -0.191 NA 
DOCKED: ATOM     11  C   UNL     1     -39.453 -13.786  13.475 -0.22 +0.00    +0.101 C  
DOCKED: ENDROOT
DOCKED: BRANCH   2  12
DOCKED: ATOM     12  C   UNL     1     -38.281  -7.495  12.416 -0.17 +0.00    +0.038 C  
DOCKED: BRANCH  12  13
DOCKED: ATOM     13  C   UNL     1     -39.446  -7.088  13.316 -0.16 +0.00    +0.038 C  
DOCKED: BRANCH  13  14
DOCKED: ATOM     14  C   UNL     1     -40.551  -6.406  12.512 -0.15 +0.00    +0.251 C  
DOCKED: BRANCH  14  15
DOCKED: ATOM     15  N   UNL     1     -41.861  -6.832  12.987 -0.14 +0.00    +0.141 N  
DOCKED: ATOM     16  C   UNL     1     -41.740  -8.004  13.855 -0.08 +0.00    +0.285 C  
DOCKED: ATOM     17  C   UNL     1     -42.531  -5.741  13.698 -0.03 +0.00    +0.285 C  
DOCKED: ENDBRANCH  14  15
DOCKED: ENDBRANCH  13  14
DOCKED: ENDBRANCH  12  13
DOCKED: ENDBRANCH   2  12
DOCKED: BRANCH   2  18
DOCKED: ATOM     18  C   UNL     1     -35.965  -8.376  12.639 -0.17 +0.00    +0.006 A  
DOCKED: ATOM     19  C   UNL     1     -35.663  -7.545  11.560 -0.08 +0.00    +0.001 A  
DOCKED: ATOM     20  C   UNL     1     -34.342  -7.419  11.128 -0.13 +0.00    +0.029 A  
DOCKED: ATOM     21  C   UNL     1     -33.327  -8.123  11.774 -0.09 +0.00    +0.140 A  
DOCKED: ATOM     22  C   UNL     1     -33.630  -8.953  12.852 -0.08 +0.00    +0.029 A  
DOCKED: ATOM     23  F   UNL     1     -32.059  -8.000  11.359 -0.02 -0.00    -0.204 F  
DOCKED: ATOM     24  C   UNL     1     -34.950  -9.080  13.286 -0.13 +0.00    +0.001 A  
DOCKED: ENDBRANCH   2  18
DOCKED: TORSDOF 5
DOCKED: TER
DOCKED: ENDMDL
________________________________________________________________________________


    FINAL DOCKED STATE:
    ________________________


Run:   46 / 512
Time taken for this run:   0.002s

DOCKED: MODEL        46
DOCKED: USER    Run = 46
DOCKED: USER
DOCKED: USER    Estimated Free Energy of Binding    =  -3.10 kcal/mol  [=(1)+(2)+(3)-(4)]
DOCKED: USER
DOCKED: USER    (1) Final Intermolecular Energy     =  -4.59 kcal/mol
DOCKED: USER        vdW + Hbond + desolv Energy     =  -4.59 kcal/mol
DOCKED: USER        Electrostatic Energy            =  +0.00 kcal/mol
DOCKED: USER        Moving Ligand-Fixed Receptor    =  -4.59 kcal/mol
DOCKED: USER        Moving Ligand-Moving Receptor   =  +0.00 kcal/mol
DOCKED: USER    (2) Final Total Internal Energy     =  -1.40 kcal/mol
DOCKED: USER    (3) Torsional Free Energy           =  +1.49 kcal/mol
DOCKED: USER    (4) Unbound System's Energy         =  -1.40 kcal/mol
DOCKED: USER
DOCKED: USER
DOCKED: REMARK  5 active torsions:
DOCKED: REMARK  status: ('A' for Active; 'I' for Inactive)
DOCKED: REMARK    1  A    between atoms: C_2  and  C_19 
DOCKED: REMARK    2  A    between atoms: C_2  and  C_11 
DOCKED: REMARK    3  A    between atoms: C_19  and  C_20 
DOCKED: REMARK    4  A    between atoms: C_20  and  C_21 
DOCKED: REMARK    5  A    between atoms: C_21  and  N_22 
DOCKED: USER                              x       y       z     vdW  Elec       q    Type
DOCKED: USER                           _______ _______ _______ _____ _____    ______ ____
DOCKED: ROOT
DOCKED: ATOM      1  O   UNL     1     -35.541   4.331   9.078 -0.06 -0.00    -0.346 OA 
DOCKED: ATOM      2  C   UNL     1     -36.009   4.956   7.840 -0.11 +0.00    +0.130 C  
DOCKED: ATOM      3  C   UNL     1     -37.471   4.616   7.796 -0.15 +0.00    +0.004 A  
DOCKED: ATOM      4  C   UNL     1     -37.831   3.952   8.960 -0.13 +0.00    +0.006 A  
DOCKED: ATOM      5  C   UNL     1     -36.654   3.819   9.847 -0.09 +0.00    +0.169 C  
DOCKED: ATOM      6  C   UNL     1     -38.409   4.884   6.810 -0.20 -0.00    -0.001 A  
DOCKED: ATOM      7  C   UNL     1     -39.132   3.530   9.175 -0.14 +0.00    +0.008 A  
DOCKED: ATOM      8  C   UNL     1     -39.724   4.462   7.011 -0.22 +0.00    +0.010 A  
DOCKED: ATOM      9  C   UNL     1     -40.084   3.789   8.188 -0.16 +0.00    +0.068 A  
DOCKED: ATOM     10  N   UNL     1     -42.535   3.023   8.531 -1.74 -0.00    -0.191 NA 
DOCKED: ATOM     11  C   UNL     1     -41.435   3.366   8.377 -0.10 +0.00    +0.101 C  
DOCKED: ENDROOT
DOCKED: BRANCH   2  12
DOCKED: ATOM     12  C   UNL     1     -35.751   6.456   7.929 -0.05 +0.00    +0.038 C  
DOCKED: BRANCH  12  13
DOCKED: ATOM     13  C   UNL     1     -36.281   7.036   9.238 -0.02 +0.00    +0.038 C  
DOCKED: BRANCH  13  14
DOCKED: ATOM     14  C   UNL     1     -37.619   7.740   9.025 +0.00 +0.00    +0.251 C  
DOCKED: BRANCH  14  15
DOCKED: ATOM     15  N   UNL     1     -38.436   7.651  10.230 -0.00 +0.00    +0.141 N  
DOCKED: ATOM     16  C   UNL     1     -39.770   7.138   9.911 +0.01 +0.00    +0.285 C  
DOCKED: ATOM     17  C   UNL     1     -37.790   6.800  11.230 -0.00 +0.00    +0.285 C  
DOCKED: ENDBRANCH  14  15
DOCKED: ENDBRANCH  13  14
DOCKED: ENDBRANCH  12  13
DOCKED: ENDBRANCH   2  12
DOCKED: BRANCH   2  18
DOCKED: ATOM     18  C   UNL     1     -35.235   4.342   6.722 -0.20 +0.00    +0.006 A  
DOCKED: ATOM     19  C   UNL     1     -35.659   4.512   5.405 -0.31 +0.00    +0.001 A  
DOCKED: ATOM     20  C   UNL     1     -34.935   3.936   4.360 -0.18 +0.00    +0.029 A  
DOCKED: ATOM     21  C   UNL     1     -33.788   3.193   4.634 -0.24 +0.00    +0.140 A  
DOCKED: ATOM     22  C   UNL     1     -33.364   3.023   5.951 -0.25 +0.00    +0.029 A  
DOCKED: ATOM     23  F   UNL     1     -33.092   2.642   3.631 -0.05 -0.00    -0.204 F  
DOCKED: ATOM     24  C   UNL     1     -34.088   3.598   6.997 -0.18 +0.00    +0.001 A  
DOCKED: ENDBRANCH   2  18
DOCKED: TORSDOF 5
DOCKED: TER
DOCKED: ENDMDL
________________________________________________________________________________


    FINAL DOCKED STATE:
    ________________________


Run:   47 / 512
Time taken for this run:   0.002s

DOCKED: MODEL        47
DOCKED: USER    Run = 47
DOCKED: USER
DOCKED: USER    Estimated Free Energy of Binding    =  -3.84 kcal/mol  [=(1)+(2)+(3)-(4)]
DOCKED: USER
DOCKED: USER    (1) Final Intermolecular Energy     =  -5.33 kcal/mol
DOCKED: USER        vdW + Hbond + desolv Energy     =  -5.33 kcal/mol
DOCKED: USER        Electrostatic Energy            =  +0.00 kcal/mol
DOCKED: USER        Moving Ligand-Fixed Receptor    =  -5.33 kcal/mol
DOCKED: USER        Moving Ligand-Moving Receptor   =  +0.00 kcal/mol
DOCKED: USER    (2) Final Total Internal Energy     =  -1.41 kcal/mol
DOCKED: USER    (3) Torsional Free Energy           =  +1.49 kcal/mol
DOCKED: USER    (4) Unbound System's Energy         =  -1.41 kcal/mol
DOCKED: USER
DOCKED: USER
DOCKED: REMARK  5 active torsions:
DOCKED: REMARK  status: ('A' for Active; 'I' for Inactive)
DOCKED: REMARK    1  A    between atoms: C_2  and  C_19 
DOCKED: REMARK    2  A    between atoms: C_2  and  C_11 
DOCKED: REMARK    3  A    between atoms: C_19  and  C_20 
DOCKED: REMARK    4  A    between atoms: C_20  and  C_21 
DOCKED: REMARK    5  A    between atoms: C_21  and  N_22 
DOCKED: USER                              x       y       z     vdW  Elec       q    Type
DOCKED: USER                           _______ _______ _______ _____ _____    ______ ____
DOCKED: ROOT
DOCKED: ATOM      1  O   UNL     1     -36.687  -8.396  13.242 -0.05 -0.00    -0.346 OA 
DOCKED: ATOM      2  C   UNL     1     -37.967  -8.524  13.939 -0.10 +0.00    +0.130 C  
DOCKED: ATOM      3  C   UNL     1     -38.502  -9.846  13.470 -0.18 +0.00    +0.004 A  
DOCKED: ATOM      4  C   UNL     1     -37.561 -10.470  12.662 -0.27 +0.00    +0.006 A  
DOCKED: ATOM      5  C   UNL     1     -36.352  -9.624  12.553 -0.12 +0.00    +0.169 C  
DOCKED: ATOM      6  C   UNL     1     -39.719 -10.453  13.744 -0.15 -0.00    -0.001 A  
DOCKED: ATOM      7  C   UNL     1     -37.804 -11.712  12.102 -0.34 +0.00    +0.008 A  
DOCKED: ATOM      8  C   UNL     1     -39.980 -11.704  13.182 -0.19 +0.00    +0.010 A  
DOCKED: ATOM      9  C   UNL     1     -39.027 -12.330  12.366 -0.25 +0.00    +0.068 A  
DOCKED: ATOM     10  N   UNL     1     -39.542 -14.654  11.343 -2.55 -0.00    -0.191 NA 
DOCKED: ATOM     11  C   UNL     1     -39.312 -13.612  11.801 -0.35 +0.00    +0.101 C  
DOCKED: ENDROOT
DOCKED: BRANCH   2  12
DOCKED: ATOM     12  C   UNL     1     -37.705  -8.489  15.440 -0.04 +0.00    +0.038 C  
DOCKED: BRANCH  12  13
DOCKED: ATOM     13  C   UNL     1     -36.307  -9.006  15.773 -0.03 +0.00    +0.038 C  
DOCKED: BRANCH  13  14
DOCKED: ATOM     14  C   UNL     1     -35.402  -7.872  16.252 -0.00 +0.00    +0.251 C  
DOCKED: BRANCH  14  15
DOCKED: ATOM     15  N   UNL     1     -35.437  -6.761  15.309 -0.01 +0.00    +0.141 N  
DOCKED: ATOM     16  C   UNL     1     -35.622  -5.492  16.013 -0.00 +0.00    +0.285 C  
DOCKED: ATOM     17  C   UNL     1     -34.212  -6.725  14.509 -0.01 +0.00    +0.285 C  
DOCKED: ENDBRANCH  14  15
DOCKED: ENDBRANCH  13  14
DOCKED: ENDBRANCH  12  13
DOCKED: ENDBRANCH   2  12
DOCKED: BRANCH   2  18
DOCKED: ATOM     18  C   UNL     1     -38.812  -7.370  13.513 -0.13 +0.00    +0.006 A  
DOCKED: ATOM     19  C   UNL     1     -38.666  -6.132  14.137 -0.05 +0.00    +0.001 A  
DOCKED: ATOM     20  C   UNL     1     -39.457  -5.054  13.738 -0.04 +0.00    +0.029 A  
DOCKED: ATOM     21  C   UNL     1     -40.393  -5.216  12.717 -0.08 +0.00    +0.140 A  
DOCKED: ATOM     22  C   UNL     1     -40.538  -6.455  12.094 -0.16 +0.00    +0.029 A  
DOCKED: ATOM     23  F   UNL     1     -41.151  -4.181  12.333 +0.00 -0.00    -0.204 F  
DOCKED: ATOM     24  C   UNL     1     -39.748  -7.534  12.492 -0.22 +0.00    +0.001 A  
DOCKED: ENDBRANCH   2  18
DOCKED: TORSDOF 5
DOCKED: TER
DOCKED: ENDMDL
________________________________________________________________________________


    FINAL DOCKED STATE:
    ________________________


Run:   48 / 512
Time taken for this run:   0.002s

DOCKED: MODEL        48
DOCKED: USER    Run = 48
DOCKED: USER
DOCKED: USER    Estimated Free Energy of Binding    =  -4.14 kcal/mol  [=(1)+(2)+(3)-(4)]
DOCKED: USER
DOCKED: USER    (1) Final Intermolecular Energy     =  -5.63 kcal/mol
DOCKED: USER        vdW + Hbond + desolv Energy     =  -5.63 kcal/mol
DOCKED: USER        Electrostatic Energy            =  +0.00 kcal/mol
DOCKED: USER        Moving Ligand-Fixed Receptor    =  -5.63 kcal/mol
DOCKED: USER        Moving Ligand-Moving Receptor   =  +0.00 kcal/mol
DOCKED: USER    (2) Final Total Internal Energy     =  -1.33 kcal/mol
DOCKED: USER    (3) Torsional Free Energy           =  +1.49 kcal/mol
DOCKED: USER    (4) Unbound System's Energy         =  -1.33 kcal/mol
DOCKED: USER
DOCKED: USER
DOCKED: REMARK  5 active torsions:
DOCKED: REMARK  status: ('A' for Active; 'I' for Inactive)
DOCKED: REMARK    1  A    between atoms: C_2  and  C_19 
DOCKED: REMARK    2  A    between atoms: C_2  and  C_11 
DOCKED: REMARK    3  A    between atoms: C_19  and  C_20 
DOCKED: REMARK    4  A    between atoms: C_20  and  C_21 
DOCKED: REMARK    5  A    between atoms: C_21  and  N_22 
DOCKED: USER                              x       y       z     vdW  Elec       q    Type
DOCKED: USER                           _______ _______ _______ _____ _____    ______ ____
DOCKED: ROOT
DOCKED: ATOM      1  O   UNL     1     -35.996  -8.952  13.852 -0.04 -0.00    -0.346 OA 
DOCKED: ATOM      2  C   UNL     1     -37.438  -8.706  13.859 -0.11 +0.00    +0.130 C  
DOCKED: ATOM      3  C   UNL     1     -38.022  -9.972  13.302 -0.21 +0.00    +0.004 A  
DOCKED: ATOM      4  C   UNL     1     -37.012 -10.902  13.098 -0.25 +0.00    +0.006 A  
DOCKED: ATOM      5  C   UNL     1     -35.711 -10.329  13.512 -0.09 +0.00    +0.169 C  
DOCKED: ATOM      6  C   UNL     1     -39.342 -10.280  13.009 -0.22 -0.00    -0.001 A  
DOCKED: ATOM      7  C   UNL     1     -37.284 -12.162  12.594 -0.32 +0.00    +0.008 A  
DOCKED: ATOM      8  C   UNL     1     -39.632 -11.546  12.497 -0.25 +0.00    +0.010 A  
DOCKED: ATOM      9  C   UNL     1     -38.608 -12.482  12.291 -0.28 +0.00    +0.068 A  
DOCKED: ATOM     10  N   UNL     1     -39.181 -14.824  11.342 -2.58 -0.00    -0.191 NA 
DOCKED: ATOM     11  C   UNL     1     -38.924 -13.773  11.767 -0.36 +0.00    +0.101 C  
DOCKED: ENDROOT
DOCKED: BRANCH   2  12
DOCKED: ATOM     12  C   UNL     1     -37.874  -8.433  15.294 -0.04 +0.00    +0.038 C  
DOCKED: BRANCH  12  13
DOCKED: ATOM     13  C   UNL     1     -37.229  -9.415  16.269 -0.03 +0.00    +0.038 C  
DOCKED: BRANCH  13  14
DOCKED: ATOM     14  C   UNL     1     -38.259  -9.974  17.248 -0.00 +0.00    +0.251 C  
DOCKED: BRANCH  14  15
DOCKED: ATOM     15  N   UNL     1     -39.017 -11.053  16.626 -0.02 +0.00    +0.141 N  
DOCKED: ATOM     16  C   UNL     1     -39.072 -12.220  17.508 -0.02 +0.00    +0.285 C  
DOCKED: ATOM     17  C   UNL     1     -40.370 -10.606  16.291 -0.00 +0.00    +0.285 C  
DOCKED: ENDBRANCH  14  15
DOCKED: ENDBRANCH  13  14
DOCKED: ENDBRANCH  12  13
DOCKED: ENDBRANCH   2  12
DOCKED: BRANCH   2  18
DOCKED: ATOM     18  C   UNL     1     -37.682  -7.520  12.987 -0.15 +0.00    +0.006 A  
DOCKED: ATOM     19  C   UNL     1     -38.934  -6.906  12.980 -0.16 +0.00    +0.001 A  
DOCKED: ATOM     20  C   UNL     1     -39.161  -5.797  12.164 -0.16 +0.00    +0.029 A  
DOCKED: ATOM     21  C   UNL     1     -38.137  -5.304  11.357 -0.12 +0.00    +0.140 A  
DOCKED: ATOM     22  C   UNL     1     -36.885  -5.919  11.364 -0.09 +0.00    +0.029 A  
DOCKED: ATOM     23  F   UNL     1     -38.355  -4.239  10.575 -0.02 -0.00    -0.204 F  
DOCKED: ATOM     24  C   UNL     1     -36.657  -7.028  12.180 -0.12 +0.00    +0.001 A  
DOCKED: ENDBRANCH   2  18
DOCKED: TORSDOF 5
DOCKED: TER
DOCKED: ENDMDL
________________________________________________________________________________


    FINAL DOCKED STATE:
    ________________________


Run:   49 / 512
Time taken for this run:   0.002s

DOCKED: MODEL        49
DOCKED: USER    Run = 49
DOCKED: USER
DOCKED: USER    Estimated Free Energy of Binding    =  -5.24 kcal/mol  [=(1)+(2)+(3)-(4)]
DOCKED: USER
DOCKED: USER    (1) Final Intermolecular Energy     =  -6.73 kcal/mol
DOCKED: USER        vdW + Hbond + desolv Energy     =  -6.73 kcal/mol
DOCKED: USER        Electrostatic Energy            =  +0.00 kcal/mol
DOCKED: USER        Moving Ligand-Fixed Receptor    =  -6.73 kcal/mol
DOCKED: USER        Moving Ligand-Moving Receptor   =  +0.00 kcal/mol
DOCKED: USER    (2) Final Total Internal Energy     =  -1.31 kcal/mol
DOCKED: USER    (3) Torsional Free Energy           =  +1.49 kcal/mol
DOCKED: USER    (4) Unbound System's Energy         =  -1.31 kcal/mol
DOCKED: USER
DOCKED: USER
DOCKED: REMARK  5 active torsions:
DOCKED: REMARK  status: ('A' for Active; 'I' for Inactive)
DOCKED: REMARK    1  A    between atoms: C_2  and  C_19 
DOCKED: REMARK    2  A    between atoms: C_2  and  C_11 
DOCKED: REMARK    3  A    between atoms: C_19  and  C_20 
DOCKED: REMARK    4  A    between atoms: C_20  and  C_21 
DOCKED: REMARK    5  A    between atoms: C_21  and  N_22 
DOCKED: USER                              x       y       z     vdW  Elec       q    Type
DOCKED: USER                           _______ _______ _______ _____ _____    ______ ____
DOCKED: ROOT
DOCKED: ATOM      1  O   UNL     1     -38.034 -10.623  14.363 -0.02 -0.00    -0.346 OA 
DOCKED: ATOM      2  C   UNL     1     -37.377 -11.930  14.356 -0.16 +0.00    +0.130 C  
DOCKED: ATOM      3  C   UNL     1     -37.759 -12.517  13.028 -0.31 +0.00    +0.004 A  
DOCKED: ATOM      4  C   UNL     1     -38.478 -11.585  12.295 -0.31 +0.00    +0.006 A  
DOCKED: ATOM      5  C   UNL     1     -38.610 -10.330  13.068 -0.19 +0.00    +0.169 C  
DOCKED: ATOM      6  C   UNL     1     -37.481 -13.773  12.507 -0.39 -0.00    -0.001 A  
DOCKED: ATOM      7  C   UNL     1     -38.947 -11.874  11.024 -0.23 +0.00    +0.008 A  
DOCKED: ATOM      8  C   UNL     1     -37.951 -14.081  11.229 -0.43 +0.00    +0.010 A  
DOCKED: ATOM      9  C   UNL     1     -38.680 -13.136  10.491 -0.42 +0.00    +0.068 A  
DOCKED: ATOM     10  N   UNL     1     -39.532 -13.738   8.120 -2.22 -0.00    -0.191 NA 
DOCKED: ATOM     11  C   UNL     1     -39.151 -13.468   9.184 -0.52 +0.00    +0.101 C  
DOCKED: ENDROOT
DOCKED: BRANCH   2  12
DOCKED: ATOM     12  C   UNL     1     -35.875 -11.715  14.500 -0.22 +0.00    +0.038 C  
DOCKED: BRANCH  12  13
DOCKED: ATOM     13  C   UNL     1     -35.388 -10.570  13.614 -0.06 +0.00    +0.038 C  
DOCKED: BRANCH  13  14
DOCKED: ATOM     14  C   UNL     1     -35.056  -9.334  14.448 -0.07 +0.00    +0.251 C  
DOCKED: BRANCH  14  15
DOCKED: ATOM     15  N   UNL     1     -35.510  -8.126  13.768 -0.06 +0.00    +0.141 N  
DOCKED: ATOM     16  C   UNL     1     -36.028  -8.447  12.437 -0.13 +0.00    +0.285 C  
DOCKED: ATOM     17  C   UNL     1     -36.534  -7.443  14.560 -0.02 +0.00    +0.285 C  
DOCKED: ENDBRANCH  14  15
DOCKED: ENDBRANCH  13  14
DOCKED: ENDBRANCH  12  13
DOCKED: ENDBRANCH   2  12
DOCKED: BRANCH   2  18
DOCKED: ATOM     18  C   UNL     1     -37.924 -12.700  15.512 -0.16 +0.00    +0.006 A  
DOCKED: ATOM     19  C   UNL     1     -39.299 -12.728  15.741 -0.13 +0.00    +0.001 A  
DOCKED: ATOM     20  C   UNL     1     -39.809 -13.448  16.823 -0.13 +0.00    +0.029 A  
DOCKED: ATOM     21  C   UNL     1     -38.944 -14.138  17.671 -0.09 +0.00    +0.140 A  
DOCKED: ATOM     22  C   UNL     1     -37.569 -14.109  17.440 -0.22 +0.00    +0.029 A  
DOCKED: ATOM     23  F   UNL     1     -39.434 -14.830  18.708 -0.04 -0.00    -0.204 F  
DOCKED: ATOM     24  C   UNL     1     -37.058 -13.389  16.359 -0.19 +0.00    +0.001 A  
DOCKED: ENDBRANCH   2  18
DOCKED: TORSDOF 5
DOCKED: TER
DOCKED: ENDMDL
________________________________________________________________________________


    FINAL DOCKED STATE:
    ________________________


Run:   50 / 512
Time taken for this run:   0.002s

DOCKED: MODEL        50
DOCKED: USER    Run = 50
DOCKED: USER
DOCKED: USER    Estimated Free Energy of Binding    =  -5.02 kcal/mol  [=(1)+(2)+(3)-(4)]
DOCKED: USER
DOCKED: USER    (1) Final Intermolecular Energy     =  -6.51 kcal/mol
DOCKED: USER        vdW + Hbond + desolv Energy     =  -6.51 kcal/mol
DOCKED: USER        Electrostatic Energy            =  +0.00 kcal/mol
DOCKED: USER        Moving Ligand-Fixed Receptor    =  -6.51 kcal/mol
DOCKED: USER        Moving Ligand-Moving Receptor   =  +0.00 kcal/mol
DOCKED: USER    (2) Final Total Internal Energy     =  -1.06 kcal/mol
DOCKED: USER    (3) Torsional Free Energy           =  +1.49 kcal/mol
DOCKED: USER    (4) Unbound System's Energy         =  -1.06 kcal/mol
DOCKED: USER
DOCKED: USER
DOCKED: REMARK  5 active torsions:
DOCKED: REMARK  status: ('A' for Active; 'I' for Inactive)
DOCKED: REMARK    1  A    between atoms: C_2  and  C_19 
DOCKED: REMARK    2  A    between atoms: C_2  and  C_11 
DOCKED: REMARK    3  A    between atoms: C_19  and  C_20 
DOCKED: REMARK    4  A    between atoms: C_20  and  C_21 
DOCKED: REMARK    5  A    between atoms: C_21  and  N_22 
DOCKED: USER                              x       y       z     vdW  Elec       q    Type
DOCKED: USER                           _______ _______ _______ _____ _____    ______ ____
DOCKED: ROOT
DOCKED: ATOM      1  O   UNL     1     -37.446 -10.857  13.861 -0.05 -0.00    -0.346 OA 
DOCKED: ATOM      2  C   UNL     1     -38.585 -11.745  14.099 -0.13 +0.00    +0.130 C  
DOCKED: ATOM      3  C   UNL     1     -38.997 -12.178  12.722 -0.26 +0.00    +0.004 A  
DOCKED: ATOM      4  C   UNL     1     -38.106 -11.672  11.787 -0.35 +0.00    +0.006 A  
DOCKED: ATOM      5  C   UNL     1     -37.050 -10.891  12.470 -0.18 +0.00    +0.169 C  
DOCKED: ATOM      6  C   UNL     1     -40.069 -12.967  12.330 -0.29 -0.00    -0.001 A  
DOCKED: ATOM      7  C   UNL     1     -38.255 -11.931  10.435 -0.13 +0.00    +0.008 A  
DOCKED: ATOM      8  C   UNL     1     -40.236 -13.233  10.970 -0.38 +0.00    +0.010 A  
DOCKED: ATOM      9  C   UNL     1     -39.333 -12.718  10.027 -0.36 +0.00    +0.068 A  
DOCKED: ATOM     10  N   UNL     1     -39.670 -13.236   7.511 -3.08 -0.00    -0.191 NA 
DOCKED: ATOM     11  C   UNL     1     -39.519 -13.003   8.639 -0.26 +0.00    +0.101 C  
DOCKED: ENDROOT
DOCKED: BRANCH   2  12
DOCKED: ATOM     12  C   UNL     1     -38.118 -12.904  14.971 -0.21 +0.00    +0.038 C  
DOCKED: BRANCH  12  13
DOCKED: ATOM     13  C   UNL     1     -39.291 -13.566  15.692 -0.21 +0.00    +0.038 C  
DOCKED: BRANCH  13  14
DOCKED: ATOM     14  C   UNL     1     -38.856 -14.134  17.042 +0.00 +0.00    +0.251 C  
DOCKED: BRANCH  14  15
DOCKED: ATOM     15  N   UNL     1     -39.865 -13.857  18.058 -0.11 +0.00    +0.141 N  
DOCKED: ATOM     16  C   UNL     1     -41.187 -13.713  17.446 -0.05 +0.00    +0.285 C  
DOCKED: ATOM     17  C   UNL     1     -39.886 -14.917  19.067 -0.14 +0.00    +0.285 C  
DOCKED: ENDBRANCH  14  15
DOCKED: ENDBRANCH  13  14
DOCKED: ENDBRANCH  12  13
DOCKED: ENDBRANCH   2  12
DOCKED: BRANCH   2  18
DOCKED: ATOM     18  C   UNL     1     -39.631 -10.937  14.792 -0.08 +0.00    +0.006 A  
DOCKED: ATOM     19  C   UNL     1     -39.387 -10.428  16.067 -0.03 +0.00    +0.001 A  
DOCKED: ATOM     20  C   UNL     1     -40.366  -9.672  16.714 -0.02 +0.00    +0.029 A  
DOCKED: ATOM     21  C   UNL     1     -41.586  -9.427  16.085 -0.01 +0.00    +0.140 A  
DOCKED: ATOM     22  C   UNL     1     -41.829  -9.937  14.810 -0.08 +0.00    +0.029 A  
DOCKED: ATOM     23  F   UNL     1     -42.525  -8.701  16.706 +0.01 -0.00    -0.204 F  
DOCKED: ATOM     24  C   UNL     1     -40.851 -10.693  14.162 -0.12 +0.00    +0.001 A  
DOCKED: ENDBRANCH   2  18
DOCKED: TORSDOF 5
DOCKED: TER
DOCKED: ENDMDL
________________________________________________________________________________


    FINAL DOCKED STATE:
    ________________________


Run:   51 / 512
Time taken for this run:   0.002s

DOCKED: MODEL        51
DOCKED: USER    Run = 51
DOCKED: USER
DOCKED: USER    Estimated Free Energy of Binding    =  -5.70 kcal/mol  [=(1)+(2)+(3)-(4)]
DOCKED: USER
DOCKED: USER    (1) Final Intermolecular Energy     =  -7.19 kcal/mol
DOCKED: USER        vdW + Hbond + desolv Energy     =  -7.19 kcal/mol
DOCKED: USER        Electrostatic Energy            =  +0.00 kcal/mol
DOCKED: USER        Moving Ligand-Fixed Receptor    =  -7.19 kcal/mol
DOCKED: USER        Moving Ligand-Moving Receptor   =  +0.00 kcal/mol
DOCKED: USER    (2) Final Total Internal Energy     =  -1.10 kcal/mol
DOCKED: USER    (3) Torsional Free Energy           =  +1.49 kcal/mol
DOCKED: USER    (4) Unbound System's Energy         =  -1.10 kcal/mol
DOCKED: USER
DOCKED: USER
DOCKED: REMARK  5 active torsions:
DOCKED: REMARK  status: ('A' for Active; 'I' for Inactive)
DOCKED: REMARK    1  A    between atoms: C_2  and  C_19 
DOCKED: REMARK    2  A    between atoms: C_2  and  C_11 
DOCKED: REMARK    3  A    between atoms: C_19  and  C_20 
DOCKED: REMARK    4  A    between atoms: C_20  and  C_21 
DOCKED: REMARK    5  A    between atoms: C_21  and  N_22 
DOCKED: USER                              x       y       z     vdW  Elec       q    Type
DOCKED: USER                           _______ _______ _______ _____ _____    ______ ____
DOCKED: ROOT
DOCKED: ATOM      1  O   UNL     1     -37.888 -11.189  13.792 -0.04 -0.00    -0.346 OA 
DOCKED: ATOM      2  C   UNL     1     -38.261 -12.603  13.856 -0.19 +0.00    +0.130 C  
DOCKED: ATOM      3  C   UNL     1     -38.658 -12.934  12.447 -0.32 +0.00    +0.004 A  
DOCKED: ATOM      4  C   UNL     1     -38.427 -11.839  11.627 -0.36 +0.00    +0.006 A  
DOCKED: ATOM      5  C   UNL     1     -37.858 -10.728  12.422 -0.25 +0.00    +0.169 C  
DOCKED: ATOM      6  C   UNL     1     -39.172 -14.115  11.930 -0.09 -0.00    -0.001 A  
DOCKED: ATOM      7  C   UNL     1     -38.704 -11.883  10.271 -0.13 +0.00    +0.008 A  
DOCKED: ATOM      8  C   UNL     1     -39.460 -14.173  10.565 -0.43 +0.00    +0.010 A  
DOCKED: ATOM      9  C   UNL     1     -39.227 -13.063   9.740 -0.43 +0.00    +0.068 A  
DOCKED: ATOM     10  N   UNL     1     -39.769 -13.207   7.211 -3.19 -0.00    -0.191 NA 
DOCKED: ATOM     11  C   UNL     1     -39.526 -13.142   8.346 -0.28 +0.00    +0.101 C  
DOCKED: ENDROOT
DOCKED: BRANCH   2  12
DOCKED: ATOM     12  C   UNL     1     -37.053 -13.400  14.335 -0.28 +0.00    +0.038 C  
DOCKED: BRANCH  12  13
DOCKED: ATOM     13  C   UNL     1     -35.782 -12.981  13.599 -0.15 +0.00    +0.038 C  
DOCKED: BRANCH  13  14
DOCKED: ATOM     14  C   UNL     1     -35.127 -11.778  14.275 -0.13 +0.00    +0.251 C  
DOCKED: BRANCH  14  15
DOCKED: ATOM     15  N   UNL     1     -34.214 -12.219  15.323 -0.09 +0.00    +0.141 N  
DOCKED: ATOM     16  C   UNL     1     -32.823 -12.007  14.919 -0.10 +0.00    +0.285 C  
DOCKED: ATOM     17  C   UNL     1     -34.491 -11.517  16.577 -0.05 +0.00    +0.285 C  
DOCKED: ENDBRANCH  14  15
DOCKED: ENDBRANCH  13  14
DOCKED: ENDBRANCH  12  13
DOCKED: ENDBRANCH   2  12
DOCKED: BRANCH   2  18
DOCKED: ATOM     18  C   UNL     1     -39.394 -12.712  14.821 -0.15 +0.00    +0.006 A  
DOCKED: ATOM     19  C   UNL     1     -39.140 -12.950  16.171 -0.14 +0.00    +0.001 A  
DOCKED: ATOM     20  C   UNL     1     -40.201 -13.052  17.072 -0.10 +0.00    +0.029 A  
DOCKED: ATOM     21  C   UNL     1     -41.513 -12.915  16.622 -0.05 +0.00    +0.140 A  
DOCKED: ATOM     22  C   UNL     1     -41.767 -12.677  15.272 -0.10 +0.00    +0.029 A  
DOCKED: ATOM     23  F   UNL     1     -42.531 -13.011  17.487 +0.02 -0.00    -0.204 F  
DOCKED: ATOM     24  C   UNL     1     -40.706 -12.575  14.369 -0.15 +0.00    +0.001 A  
DOCKED: ENDBRANCH   2  18
DOCKED: TORSDOF 5
DOCKED: TER
DOCKED: ENDMDL
________________________________________________________________________________


    FINAL DOCKED STATE:
    ________________________


Run:   52 / 512
Time taken for this run:   0.002s

DOCKED: MODEL        52
DOCKED: USER    Run = 52
DOCKED: USER
DOCKED: USER    Estimated Free Energy of Binding    =  -4.01 kcal/mol  [=(1)+(2)+(3)-(4)]
DOCKED: USER
DOCKED: USER    (1) Final Intermolecular Energy     =  -5.51 kcal/mol
DOCKED: USER        vdW + Hbond + desolv Energy     =  -5.51 kcal/mol
DOCKED: USER        Electrostatic Energy            =  +0.00 kcal/mol
DOCKED: USER        Moving Ligand-Fixed Receptor    =  -5.51 kcal/mol
DOCKED: USER        Moving Ligand-Moving Receptor   =  +0.00 kcal/mol
DOCKED: USER    (2) Final Total Internal Energy     =  -1.30 kcal/mol
DOCKED: USER    (3) Torsional Free Energy           =  +1.49 kcal/mol
DOCKED: USER    (4) Unbound System's Energy         =  -1.30 kcal/mol
DOCKED: USER
DOCKED: USER
DOCKED: REMARK  5 active torsions:
DOCKED: REMARK  status: ('A' for Active; 'I' for Inactive)
DOCKED: REMARK    1  A    between atoms: C_2  and  C_19 
DOCKED: REMARK    2  A    between atoms: C_2  and  C_11 
DOCKED: REMARK    3  A    between atoms: C_19  and  C_20 
DOCKED: REMARK    4  A    between atoms: C_20  and  C_21 
DOCKED: REMARK    5  A    between atoms: C_21  and  N_22 
DOCKED: USER                              x       y       z     vdW  Elec       q    Type
DOCKED: USER                           _______ _______ _______ _____ _____    ______ ____
DOCKED: ROOT
DOCKED: ATOM      1  O   UNL     1     -29.628 -13.450   3.705 -0.02 -0.00    -0.346 OA 
DOCKED: ATOM      2  C   UNL     1     -29.659 -12.233   4.518 -0.10 +0.00    +0.130 C  
DOCKED: ATOM      3  C   UNL     1     -30.200 -12.697   5.839 -0.13 +0.00    +0.004 A  
DOCKED: ATOM      4  C   UNL     1     -30.360 -14.076   5.820 -0.17 +0.00    +0.006 A  
DOCKED: ATOM      5  C   UNL     1     -29.930 -14.613   4.510 -0.08 +0.00    +0.169 C  
DOCKED: ATOM      6  C   UNL     1     -30.515 -11.960   6.971 -0.13 -0.00    -0.001 A  
DOCKED: ATOM      7  C   UNL     1     -30.841 -14.760   6.923 -0.28 +0.00    +0.008 A  
DOCKED: ATOM      8  C   UNL     1     -31.005 -12.636   8.090 -0.23 +0.00    +0.010 A  
DOCKED: ATOM      9  C   UNL     1     -31.167 -14.029   8.066 -0.30 +0.00    +0.068 A  
DOCKED: ATOM     10  N   UNL     1     -32.074 -15.253  10.162 -2.62 -0.00    -0.191 NA 
DOCKED: ATOM     11  C   UNL     1     -31.668 -14.704   9.221 -0.42 +0.00    +0.101 C  
DOCKED: ENDROOT
DOCKED: BRANCH   2  12
DOCKED: ATOM     12  C   UNL     1     -28.241 -11.683   4.618 -0.03 +0.00    +0.038 C  
DOCKED: BRANCH  12  13
DOCKED: ATOM     13  C   UNL     1     -27.345 -12.250   3.519 -0.01 +0.00    +0.038 C  
DOCKED: BRANCH  13  14
DOCKED: ATOM     14  C   UNL     1     -26.318 -13.223   4.095 -0.00 +0.00    +0.251 C  
DOCKED: BRANCH  14  15
DOCKED: ATOM     15  N   UNL     1     -26.835 -13.847   5.308 -0.02 +0.00    +0.141 N  
DOCKED: ATOM     16  C   UNL     1     -26.621 -15.294   5.275 -0.03 +0.00    +0.285 C  
DOCKED: ATOM     17  C   UNL     1     -26.204 -13.267   6.495 -0.01 +0.00    +0.285 C  
DOCKED: ENDBRANCH  14  15
DOCKED: ENDBRANCH  13  14
DOCKED: ENDBRANCH  12  13
DOCKED: ENDBRANCH   2  12
DOCKED: BRANCH   2  18
DOCKED: ATOM     18  C   UNL     1     -30.563 -11.269   3.826 -0.09 +0.00    +0.006 A  
DOCKED: ATOM     19  C   UNL     1     -30.812 -11.405   2.460 -0.07 +0.00    +0.001 A  
DOCKED: ATOM     20  C   UNL     1     -31.658 -10.502   1.814 -0.18 +0.00    +0.029 A  
DOCKED: ATOM     21  C   UNL     1     -32.253  -9.466   2.533 -0.18 +0.00    +0.140 A  
DOCKED: ATOM     22  C   UNL     1     -32.003  -9.331   3.899 -0.17 +0.00    +0.029 A  
DOCKED: ATOM     23  F   UNL     1     -33.065  -8.601   1.913 -0.13 -0.00    -0.204 F  
DOCKED: ATOM     24  C   UNL     1     -31.157 -10.233   4.546 -0.10 +0.00    +0.001 A  
DOCKED: ENDBRANCH   2  18
DOCKED: TORSDOF 5
DOCKED: TER
DOCKED: ENDMDL
________________________________________________________________________________


    FINAL DOCKED STATE:
    ________________________


Run:   53 / 512
Time taken for this run:   0.002s

DOCKED: MODEL        53
DOCKED: USER    Run = 53
DOCKED: USER
DOCKED: USER    Estimated Free Energy of Binding    =  -4.33 kcal/mol  [=(1)+(2)+(3)-(4)]
DOCKED: USER
DOCKED: USER    (1) Final Intermolecular Energy     =  -5.82 kcal/mol
DOCKED: USER        vdW + Hbond + desolv Energy     =  -5.82 kcal/mol
DOCKED: USER        Electrostatic Energy            =  +0.00 kcal/mol
DOCKED: USER        Moving Ligand-Fixed Receptor    =  -5.82 kcal/mol
DOCKED: USER        Moving Ligand-Moving Receptor   =  +0.00 kcal/mol
DOCKED: USER    (2) Final Total Internal Energy     =  -1.23 kcal/mol
DOCKED: USER    (3) Torsional Free Energy           =  +1.49 kcal/mol
DOCKED: USER    (4) Unbound System's Energy         =  -1.23 kcal/mol
DOCKED: USER
DOCKED: USER
DOCKED: REMARK  5 active torsions:
DOCKED: REMARK  status: ('A' for Active; 'I' for Inactive)
DOCKED: REMARK    1  A    between atoms: C_2  and  C_19 
DOCKED: REMARK    2  A    between atoms: C_2  and  C_11 
DOCKED: REMARK    3  A    between atoms: C_19  and  C_20 
DOCKED: REMARK    4  A    between atoms: C_20  and  C_21 
DOCKED: REMARK    5  A    between atoms: C_21  and  N_22 
DOCKED: USER                              x       y       z     vdW  Elec       q    Type
DOCKED: USER                           _______ _______ _______ _____ _____    ______ ____
DOCKED: ROOT
DOCKED: ATOM      1  O   UNL     1     -37.738  -7.828  13.003 -0.07 -0.00    -0.346 OA 
DOCKED: ATOM      2  C   UNL     1     -39.127  -8.027  13.420 -0.16 +0.00    +0.130 C  
DOCKED: ATOM      3  C   UNL     1     -39.425  -9.442  13.016 -0.22 +0.00    +0.004 A  
DOCKED: ATOM      4  C   UNL     1     -38.275 -10.036  12.514 -0.26 +0.00    +0.006 A  
DOCKED: ATOM      5  C   UNL     1     -37.151  -9.074  12.562 -0.19 +0.00    +0.169 C  
DOCKED: ATOM      6  C   UNL     1     -40.615 -10.150  13.097 -0.21 -0.00    -0.001 A  
DOCKED: ATOM      7  C   UNL     1     -38.276 -11.348  12.074 -0.32 +0.00    +0.008 A  
DOCKED: ATOM      8  C   UNL     1     -40.632 -11.474  12.653 -0.23 +0.00    +0.010 A  
DOCKED: ATOM      9  C   UNL     1     -39.469 -12.069  12.145 -0.24 +0.00    +0.068 A  
DOCKED: ATOM     10  N   UNL     1     -39.535 -14.529  11.334 -2.55 -0.00    -0.191 NA 
DOCKED: ATOM     11  C   UNL     1     -39.505 -13.426  11.697 -0.35 +0.00    +0.101 C  
DOCKED: ENDROOT
DOCKED: BRANCH   2  12
DOCKED: ATOM     12  C   UNL     1     -39.215  -7.809  14.926 -0.05 +0.00    +0.038 C  
DOCKED: BRANCH  12  13
DOCKED: ATOM     13  C   UNL     1     -38.144  -8.606  15.668 -0.03 +0.00    +0.038 C  
DOCKED: BRANCH  13  14
DOCKED: ATOM     14  C   UNL     1     -38.695  -9.192  16.966 -0.00 +0.00    +0.251 C  
DOCKED: BRANCH  14  15
DOCKED: ATOM     15  N   UNL     1     -38.633 -10.648  16.932 -0.01 +0.00    +0.141 N  
DOCKED: ATOM     16  C   UNL     1     -37.855 -11.105  15.780 -0.02 +0.00    +0.285 C  
DOCKED: ATOM     17  C   UNL     1     -38.056 -11.168  18.173 -0.01 +0.00    +0.285 C  
DOCKED: ENDBRANCH  14  15
DOCKED: ENDBRANCH  13  14
DOCKED: ENDBRANCH  12  13
DOCKED: ENDBRANCH   2  12
DOCKED: BRANCH   2  18
DOCKED: ATOM     18  C   UNL     1     -39.951  -7.025  12.682 -0.21 +0.00    +0.006 A  
DOCKED: ATOM     19  C   UNL     1     -39.346  -6.158  11.774 -0.14 +0.00    +0.001 A  
DOCKED: ATOM     20  C   UNL     1     -40.118  -5.222  11.085 -0.06 +0.00    +0.029 A  
DOCKED: ATOM     21  C   UNL     1     -41.493  -5.155  11.304 -0.06 +0.00    +0.140 A  
DOCKED: ATOM     22  C   UNL     1     -42.098  -6.023  12.213 -0.18 +0.00    +0.029 A  
DOCKED: ATOM     23  F   UNL     1     -42.234  -4.258  10.641 -0.03 -0.00    -0.204 F  
DOCKED: ATOM     24  C   UNL     1     -41.327  -6.960  12.903 -0.20 +0.00    +0.001 A  
DOCKED: ENDBRANCH   2  18
DOCKED: TORSDOF 5
DOCKED: TER
DOCKED: ENDMDL
________________________________________________________________________________


    FINAL DOCKED STATE:
    ________________________


Run:   54 / 512
Time taken for this run:   0.002s

DOCKED: MODEL        54
DOCKED: USER    Run = 54
DOCKED: USER
DOCKED: USER    Estimated Free Energy of Binding    =  -4.67 kcal/mol  [=(1)+(2)+(3)-(4)]
DOCKED: USER
DOCKED: USER    (1) Final Intermolecular Energy     =  -6.16 kcal/mol
DOCKED: USER        vdW + Hbond + desolv Energy     =  -6.16 kcal/mol
DOCKED: USER        Electrostatic Energy            =  +0.00 kcal/mol
DOCKED: USER        Moving Ligand-Fixed Receptor    =  -6.16 kcal/mol
DOCKED: USER        Moving Ligand-Moving Receptor   =  +0.00 kcal/mol
DOCKED: USER    (2) Final Total Internal Energy     =  -1.44 kcal/mol
DOCKED: USER    (3) Torsional Free Energy           =  +1.49 kcal/mol
DOCKED: USER    (4) Unbound System's Energy         =  -1.44 kcal/mol
DOCKED: USER
DOCKED: USER
DOCKED: REMARK  5 active torsions:
DOCKED: REMARK  status: ('A' for Active; 'I' for Inactive)
DOCKED: REMARK    1  A    between atoms: C_2  and  C_19 
DOCKED: REMARK    2  A    between atoms: C_2  and  C_11 
DOCKED: REMARK    3  A    between atoms: C_19  and  C_20 
DOCKED: REMARK    4  A    between atoms: C_20  and  C_21 
DOCKED: REMARK    5  A    between atoms: C_21  and  N_22 
DOCKED: USER                              x       y       z     vdW  Elec       q    Type
DOCKED: USER                           _______ _______ _______ _____ _____    ______ ____
DOCKED: ROOT
DOCKED: ATOM      1  O   UNL     1     -37.556 -13.158  14.847 -0.08 -0.00    -0.346 OA 
DOCKED: ATOM      2  C   UNL     1     -37.506 -11.819  14.257 -0.16 +0.00    +0.130 C  
DOCKED: ATOM      3  C   UNL     1     -37.914 -12.040  12.829 -0.30 +0.00    +0.004 A  
DOCKED: ATOM      4  C   UNL     1     -38.273 -13.368  12.646 -0.34 +0.00    +0.006 A  
DOCKED: ATOM      5  C   UNL     1     -38.142 -14.104  13.923 -0.07 +0.00    +0.169 C  
DOCKED: ATOM      6  C   UNL     1     -37.973 -11.135  11.779 -0.32 -0.00    -0.001 A  
DOCKED: ATOM      7  C   UNL     1     -38.696 -13.836  11.414 -0.43 +0.00    +0.008 A  
DOCKED: ATOM      8  C   UNL     1     -38.395 -11.593  10.530 -0.03 +0.00    +0.010 A  
DOCKED: ATOM      9  C   UNL     1     -38.755 -12.936  10.348 -0.42 +0.00    +0.068 A  
DOCKED: ATOM     10  N   UNL     1     -39.537 -13.752   8.017 -2.31 -0.00    -0.191 NA 
DOCKED: ATOM     11  C   UNL     1     -39.185 -13.386   9.062 -0.50 +0.00    +0.101 C  
DOCKED: ENDROOT
DOCKED: BRANCH   2  12
DOCKED: ATOM     12  C   UNL     1     -38.473 -10.920  15.018 -0.09 +0.00    +0.038 C  
DOCKED: BRANCH  12  13
DOCKED: ATOM     13  C   UNL     1     -39.128 -11.664  16.181 -0.07 +0.00    +0.038 C  
DOCKED: BRANCH  13  14
DOCKED: ATOM     14  C   UNL     1     -40.534 -12.133  15.811 -0.03 +0.00    +0.251 C  
DOCKED: BRANCH  14  15
DOCKED: ATOM     15  N   UNL     1     -40.799 -11.878  14.400 -0.07 +0.00    +0.141 N  
DOCKED: ATOM     16  C   UNL     1     -41.393 -13.056  13.765 -0.07 +0.00    +0.285 C  
DOCKED: ATOM     17  C   UNL     1     -41.678 -10.718  14.242 -0.05 +0.00    +0.285 C  
DOCKED: ENDBRANCH  14  15
DOCKED: ENDBRANCH  13  14
DOCKED: ENDBRANCH  12  13
DOCKED: ENDBRANCH   2  12
DOCKED: BRANCH   2  18
DOCKED: ATOM     18  C   UNL     1     -36.101 -11.335  14.393 -0.19 +0.00    +0.006 A  
DOCKED: ATOM     19  C   UNL     1     -35.846  -9.975  14.565 -0.12 +0.00    +0.001 A  
DOCKED: ATOM     20  C   UNL     1     -34.532  -9.524  14.691 -0.09 +0.00    +0.029 A  
DOCKED: ATOM     21  C   UNL     1     -33.475 -10.433  14.646 -0.09 +0.00    +0.140 A  
DOCKED: ATOM     22  C   UNL     1     -33.731 -11.793  14.475 -0.17 +0.00    +0.029 A  
DOCKED: ATOM     23  F   UNL     1     -32.214  -9.999  14.769 -0.01 -0.00    -0.204 F  
DOCKED: ATOM     24  C   UNL     1     -35.046 -12.245  14.347 -0.16 +0.00    +0.001 A  
DOCKED: ENDBRANCH   2  18
DOCKED: TORSDOF 5
DOCKED: TER
DOCKED: ENDMDL
________________________________________________________________________________


    FINAL DOCKED STATE:
    ________________________


Run:   55 / 512
Time taken for this run:   0.002s

DOCKED: MODEL        55
DOCKED: USER    Run = 55
DOCKED: USER
DOCKED: USER    Estimated Free Energy of Binding    =  -4.32 kcal/mol  [=(1)+(2)+(3)-(4)]
DOCKED: USER
DOCKED: USER    (1) Final Intermolecular Energy     =  -5.81 kcal/mol
DOCKED: USER        vdW + Hbond + desolv Energy     =  -5.81 kcal/mol
DOCKED: USER        Electrostatic Energy            =  +0.00 kcal/mol
DOCKED: USER        Moving Ligand-Fixed Receptor    =  -5.81 kcal/mol
DOCKED: USER        Moving Ligand-Moving Receptor   =  +0.00 kcal/mol
DOCKED: USER    (2) Final Total Internal Energy     =  -1.31 kcal/mol
DOCKED: USER    (3) Torsional Free Energy           =  +1.49 kcal/mol
DOCKED: USER    (4) Unbound System's Energy         =  -1.31 kcal/mol
DOCKED: USER
DOCKED: USER
DOCKED: REMARK  5 active torsions:
DOCKED: REMARK  status: ('A' for Active; 'I' for Inactive)
DOCKED: REMARK    1  A    between atoms: C_2  and  C_19 
DOCKED: REMARK    2  A    between atoms: C_2  and  C_11 
DOCKED: REMARK    3  A    between atoms: C_19  and  C_20 
DOCKED: REMARK    4  A    between atoms: C_20  and  C_21 
DOCKED: REMARK    5  A    between atoms: C_21  and  N_22 
DOCKED: USER                              x       y       z     vdW  Elec       q    Type
DOCKED: USER                           _______ _______ _______ _____ _____    ______ ____
DOCKED: ROOT
DOCKED: ATOM      1  O   UNL     1     -35.052  -9.932  14.434 -0.06 -0.00    -0.346 OA 
DOCKED: ATOM      2  C   UNL     1     -36.118  -9.231  13.717 -0.13 +0.00    +0.130 C  
DOCKED: ATOM      3  C   UNL     1     -36.913 -10.337  13.085 -0.23 +0.00    +0.004 A  
DOCKED: ATOM      4  C   UNL     1     -36.414 -11.564  13.495 -0.22 +0.00    +0.006 A  
DOCKED: ATOM      5  C   UNL     1     -35.279 -11.360  14.423 -0.16 +0.00    +0.169 C  
DOCKED: ATOM      6  C   UNL     1     -37.999 -10.262  12.225 -0.26 -0.00    -0.001 A  
DOCKED: ATOM      7  C   UNL     1     -36.975 -12.753  13.060 -0.33 +0.00    +0.008 A  
DOCKED: ATOM      8  C   UNL     1     -38.574 -11.451  11.774 -0.32 +0.00    +0.010 A  
DOCKED: ATOM      9  C   UNL     1     -38.065 -12.690  12.190 -0.32 +0.00    +0.068 A  
DOCKED: ATOM     10  N   UNL     1     -39.158 -14.879  11.338 -2.61 -0.00    -0.191 NA 
DOCKED: ATOM     11  C   UNL     1     -38.667 -13.898  11.720 -0.31 +0.00    +0.101 C  
DOCKED: ENDROOT
DOCKED: BRANCH   2  12
DOCKED: ATOM     12  C   UNL     1     -36.925  -8.420  14.723 -0.06 +0.00    +0.038 C  
DOCKED: BRANCH  12  13
DOCKED: ATOM     13  C   UNL     1     -37.197  -9.221  15.995 -0.03 +0.00    +0.038 C  
DOCKED: BRANCH  13  14
DOCKED: ATOM     14  C   UNL     1     -38.357 -10.194  15.793 -0.02 +0.00    +0.251 C  
DOCKED: BRANCH  14  15
DOCKED: ATOM     15  N   UNL     1     -38.060 -11.475  16.423 -0.04 +0.00    +0.141 N  
DOCKED: ATOM     16  C   UNL     1     -37.719 -11.289  17.835 -0.01 +0.00    +0.285 C  
DOCKED: ATOM     17  C   UNL     1     -39.195 -12.390  16.292 -0.04 +0.00    +0.285 C  
DOCKED: ENDBRANCH  14  15
DOCKED: ENDBRANCH  13  14
DOCKED: ENDBRANCH  12  13
DOCKED: ENDBRANCH   2  12
DOCKED: BRANCH   2  18
DOCKED: ATOM     18  C   UNL     1     -35.459  -8.343  12.715 -0.15 +0.00    +0.006 A  
DOCKED: ATOM     19  C   UNL     1     -34.151  -8.604  12.307 -0.09 +0.00    +0.001 A  
DOCKED: ATOM     20  C   UNL     1     -33.535  -7.773  11.370 -0.11 +0.00    +0.029 A  
DOCKED: ATOM     21  C   UNL     1     -34.228  -6.684  10.842 -0.07 +0.00    +0.140 A  
DOCKED: ATOM     22  C   UNL     1     -35.536  -6.424  11.251 -0.09 +0.00    +0.029 A  
DOCKED: ATOM     23  F   UNL     1     -33.637  -5.887   9.942 -0.00 -0.00    -0.204 F  
DOCKED: ATOM     24  C   UNL     1     -36.152  -7.254  12.188 -0.13 +0.00    +0.001 A  
DOCKED: ENDBRANCH   2  18
DOCKED: TORSDOF 5
DOCKED: TER
DOCKED: ENDMDL
________________________________________________________________________________


    FINAL DOCKED STATE:
    ________________________


Run:   56 / 512
Time taken for this run:   0.002s

DOCKED: MODEL        56
DOCKED: USER    Run = 56
DOCKED: USER
DOCKED: USER    Estimated Free Energy of Binding    =  -3.84 kcal/mol  [=(1)+(2)+(3)-(4)]
DOCKED: USER
DOCKED: USER    (1) Final Intermolecular Energy     =  -5.34 kcal/mol
DOCKED: USER        vdW + Hbond + desolv Energy     =  -5.34 kcal/mol
DOCKED: USER        Electrostatic Energy            =  +0.00 kcal/mol
DOCKED: USER        Moving Ligand-Fixed Receptor    =  -5.34 kcal/mol
DOCKED: USER        Moving Ligand-Moving Receptor   =  +0.00 kcal/mol
DOCKED: USER    (2) Final Total Internal Energy     =  -1.38 kcal/mol
DOCKED: USER    (3) Torsional Free Energy           =  +1.49 kcal/mol
DOCKED: USER    (4) Unbound System's Energy         =  -1.38 kcal/mol
DOCKED: USER
DOCKED: USER
DOCKED: REMARK  5 active torsions:
DOCKED: REMARK  status: ('A' for Active; 'I' for Inactive)
DOCKED: REMARK    1  A    between atoms: C_2  and  C_19 
DOCKED: REMARK    2  A    between atoms: C_2  and  C_11 
DOCKED: REMARK    3  A    between atoms: C_19  and  C_20 
DOCKED: REMARK    4  A    between atoms: C_20  and  C_21 
DOCKED: REMARK    5  A    between atoms: C_21  and  N_22 
DOCKED: USER                              x       y       z     vdW  Elec       q    Type
DOCKED: USER                           _______ _______ _______ _____ _____    ______ ____
DOCKED: ROOT
DOCKED: ATOM      1  O   UNL     1     -39.781  -8.569  14.628 -0.01 -0.00    -0.346 OA 
DOCKED: ATOM      2  C   UNL     1     -38.728  -8.452  13.618 -0.14 +0.00    +0.130 C  
DOCKED: ATOM      3  C   UNL     1     -38.673  -9.818  12.997 -0.22 +0.00    +0.004 A  
DOCKED: ATOM      4  C   UNL     1     -39.679 -10.613  13.527 -0.17 +0.00    +0.006 A  
DOCKED: ATOM      5  C   UNL     1     -40.467  -9.837  14.511 -0.07 +0.00    +0.169 C  
DOCKED: ATOM      6  C   UNL     1     -37.808 -10.314  12.032 -0.22 -0.00    -0.001 A  
DOCKED: ATOM      7  C   UNL     1     -39.853 -11.924  13.117 -0.20 +0.00    +0.008 A  
DOCKED: ATOM      8  C   UNL     1     -37.968 -11.636  11.611 -0.33 +0.00    +0.010 A  
DOCKED: ATOM      9  C   UNL     1     -38.986 -12.436  12.151 -0.27 +0.00    +0.068 A  
DOCKED: ATOM     10  N   UNL     1     -39.258 -14.883  11.345 -2.60 -0.00    -0.191 NA 
DOCKED: ATOM     11  C   UNL     1     -39.136 -13.786  11.707 -0.36 +0.00    +0.101 C  
DOCKED: ENDROOT
DOCKED: BRANCH   2  12
DOCKED: ATOM     12  C   UNL     1     -39.128  -7.366  12.627 -0.22 +0.00    +0.038 C  
DOCKED: BRANCH  12  13
DOCKED: ATOM     13  C   UNL     1     -40.601  -7.478  12.241 -0.15 +0.00    +0.038 C  
DOCKED: BRANCH  13  14
DOCKED: ATOM     14  C   UNL     1     -41.479  -6.653  13.180 -0.11 +0.00    +0.251 C  
DOCKED: BRANCH  14  15
DOCKED: ATOM     15  N   UNL     1     -40.653  -5.908  14.123 -0.04 +0.00    +0.141 N  
DOCKED: ATOM     16  C   UNL     1     -40.417  -4.547  13.637 -0.01 +0.00    +0.285 C  
DOCKED: ATOM     17  C   UNL     1     -41.282  -5.873  15.444 -0.00 +0.00    +0.285 C  
DOCKED: ENDBRANCH  14  15
DOCKED: ENDBRANCH  13  14
DOCKED: ENDBRANCH  12  13
DOCKED: ENDBRANCH   2  12
DOCKED: BRANCH   2  18
DOCKED: ATOM     18  C   UNL     1     -37.472  -8.090  14.337 -0.07 +0.00    +0.006 A  
DOCKED: ATOM     19  C   UNL     1     -36.371  -7.620  13.622 -0.09 +0.00    +0.001 A  
DOCKED: ATOM     20  C   UNL     1     -35.196  -7.281  14.296 -0.03 +0.00    +0.029 A  
DOCKED: ATOM     21  C   UNL     1     -35.125  -7.412  15.682 -0.01 +0.00    +0.140 A  
DOCKED: ATOM     22  C   UNL     1     -36.227  -7.882  16.396 -0.01 +0.00    +0.029 A  
DOCKED: ATOM     23  F   UNL     1     -33.999  -7.085  16.328 +0.00 -0.00    -0.204 F  
DOCKED: ATOM     24  C   UNL     1     -37.402  -8.221  15.723 -0.02 +0.00    +0.001 A  
DOCKED: ENDBRANCH   2  18
DOCKED: TORSDOF 5
DOCKED: TER
DOCKED: ENDMDL
________________________________________________________________________________


    FINAL DOCKED STATE:
    ________________________


Run:   57 / 512
Time taken for this run:   0.002s

DOCKED: MODEL        57
DOCKED: USER    Run = 57
DOCKED: USER
DOCKED: USER    Estimated Free Energy of Binding    =  -4.76 kcal/mol  [=(1)+(2)+(3)-(4)]
DOCKED: USER
DOCKED: USER    (1) Final Intermolecular Energy     =  -6.25 kcal/mol
DOCKED: USER        vdW + Hbond + desolv Energy     =  -6.25 kcal/mol
DOCKED: USER        Electrostatic Energy            =  +0.00 kcal/mol
DOCKED: USER        Moving Ligand-Fixed Receptor    =  -6.25 kcal/mol
DOCKED: USER        Moving Ligand-Moving Receptor   =  +0.00 kcal/mol
DOCKED: USER    (2) Final Total Internal Energy     =  -1.10 kcal/mol
DOCKED: USER    (3) Torsional Free Energy           =  +1.49 kcal/mol
DOCKED: USER    (4) Unbound System's Energy         =  -1.10 kcal/mol
DOCKED: USER
DOCKED: USER
DOCKED: REMARK  5 active torsions:
DOCKED: REMARK  status: ('A' for Active; 'I' for Inactive)
DOCKED: REMARK    1  A    between atoms: C_2  and  C_19 
DOCKED: REMARK    2  A    between atoms: C_2  and  C_11 
DOCKED: REMARK    3  A    between atoms: C_19  and  C_20 
DOCKED: REMARK    4  A    between atoms: C_20  and  C_21 
DOCKED: REMARK    5  A    between atoms: C_21  and  N_22 
DOCKED: USER                              x       y       z     vdW  Elec       q    Type
DOCKED: USER                           _______ _______ _______ _____ _____    ______ ____
DOCKED: ROOT
DOCKED: ATOM      1  O   UNL     1     -36.025  -4.361   7.300 -0.11 -0.00    -0.346 OA 
DOCKED: ATOM      2  C   UNL     1     -34.722  -4.504   6.649 -0.20 +0.00    +0.130 C  
DOCKED: ATOM      3  C   UNL     1     -34.921  -3.866   5.304 -0.27 +0.00    +0.004 A  
DOCKED: ATOM      4  C   UNL     1     -36.190  -3.309   5.234 -0.11 +0.00    +0.006 A  
DOCKED: ATOM      5  C   UNL     1     -36.904  -3.525   6.513 -0.14 +0.00    +0.169 C  
DOCKED: ATOM      6  C   UNL     1     -34.044  -3.776   4.233 -0.24 -0.00    -0.001 A  
DOCKED: ATOM      7  C   UNL     1     -36.626  -2.651   4.097 -0.14 +0.00    +0.008 A  
DOCKED: ATOM      8  C   UNL     1     -34.471  -3.120   3.077 -0.26 +0.00    +0.010 A  
DOCKED: ATOM      9  C   UNL     1     -35.755  -2.559   3.011 -0.28 +0.00    +0.068 A  
DOCKED: ATOM     10  N   UNL     1     -36.514  -1.342   0.853 -2.48 -0.00    -0.191 NA 
DOCKED: ATOM     11  C   UNL     1     -36.174  -1.889   1.820 -0.33 +0.00    +0.101 C  
DOCKED: ENDROOT
DOCKED: BRANCH   2  12
DOCKED: ATOM     12  C   UNL     1     -33.677  -3.788   7.496 -0.17 +0.00    +0.038 C  
DOCKED: BRANCH  12  13
DOCKED: ATOM     13  C   UNL     1     -34.318  -3.071   8.683 -0.13 +0.00    +0.038 C  
DOCKED: BRANCH  13  14
DOCKED: ATOM     14  C   UNL     1     -33.350  -2.983   9.861 -0.08 +0.00    +0.251 C  
DOCKED: BRANCH  14  15
DOCKED: ATOM     15  N   UNL     1     -33.872  -3.724  11.003 -0.05 +0.00    +0.141 N  
DOCKED: ATOM     16  C   UNL     1     -34.713  -2.862  11.836 -0.04 +0.00    +0.285 C  
DOCKED: ATOM     17  C   UNL     1     -34.630  -4.894  10.556 -0.04 +0.00    +0.285 C  
DOCKED: ENDBRANCH  14  15
DOCKED: ENDBRANCH  13  14
DOCKED: ENDBRANCH  12  13
DOCKED: ENDBRANCH   2  12
DOCKED: BRANCH   2  18
DOCKED: ATOM     18  C   UNL     1     -34.436  -5.966   6.563 -0.17 +0.00    +0.006 A  
DOCKED: ATOM     19  C   UNL     1     -33.398  -6.426   5.753 -0.14 +0.00    +0.001 A  
DOCKED: ATOM     20  C   UNL     1     -33.132  -7.794   5.673 -0.18 +0.00    +0.029 A  
DOCKED: ATOM     21  C   UNL     1     -33.902  -8.698   6.402 -0.17 +0.00    +0.140 A  
DOCKED: ATOM     22  C   UNL     1     -34.940  -8.237   7.212 -0.25 +0.00    +0.029 A  
DOCKED: ATOM     23  F   UNL     1     -33.645 -10.010   6.327 -0.08 -0.00    -0.204 F  
DOCKED: ATOM     24  C   UNL     1     -35.208  -6.869   7.292 -0.21 +0.00    +0.001 A  
DOCKED: ENDBRANCH   2  18
DOCKED: TORSDOF 5
DOCKED: TER
DOCKED: ENDMDL
________________________________________________________________________________


    FINAL DOCKED STATE:
    ________________________


Run:   58 / 512
Time taken for this run:   0.002s

DOCKED: MODEL        58
DOCKED: USER    Run = 58
DOCKED: USER
DOCKED: USER    Estimated Free Energy of Binding    =  -5.30 kcal/mol  [=(1)+(2)+(3)-(4)]
DOCKED: USER
DOCKED: USER    (1) Final Intermolecular Energy     =  -6.79 kcal/mol
DOCKED: USER        vdW + Hbond + desolv Energy     =  -6.79 kcal/mol
DOCKED: USER        Electrostatic Energy            =  +0.00 kcal/mol
DOCKED: USER        Moving Ligand-Fixed Receptor    =  -6.79 kcal/mol
DOCKED: USER        Moving Ligand-Moving Receptor   =  +0.00 kcal/mol
DOCKED: USER    (2) Final Total Internal Energy     =  -1.26 kcal/mol
DOCKED: USER    (3) Torsional Free Energy           =  +1.49 kcal/mol
DOCKED: USER    (4) Unbound System's Energy         =  -1.26 kcal/mol
DOCKED: USER
DOCKED: USER
DOCKED: REMARK  5 active torsions:
DOCKED: REMARK  status: ('A' for Active; 'I' for Inactive)
DOCKED: REMARK    1  A    between atoms: C_2  and  C_19 
DOCKED: REMARK    2  A    between atoms: C_2  and  C_11 
DOCKED: REMARK    3  A    between atoms: C_19  and  C_20 
DOCKED: REMARK    4  A    between atoms: C_20  and  C_21 
DOCKED: REMARK    5  A    between atoms: C_21  and  N_22 
DOCKED: USER                              x       y       z     vdW  Elec       q    Type
DOCKED: USER                           _______ _______ _______ _____ _____    ______ ____
DOCKED: ROOT
DOCKED: ATOM      1  O   UNL     1     -37.733 -10.581  14.333 -0.02 -0.00    -0.346 OA 
DOCKED: ATOM      2  C   UNL     1     -37.127 -11.911  14.256 -0.18 +0.00    +0.130 C  
DOCKED: ATOM      3  C   UNL     1     -37.569 -12.431  12.919 -0.32 +0.00    +0.004 A  
DOCKED: ATOM      4  C   UNL     1     -38.273 -11.444  12.243 -0.32 +0.00    +0.006 A  
DOCKED: ATOM      5  C   UNL     1     -38.334 -10.217  13.068 -0.19 +0.00    +0.169 C  
DOCKED: ATOM      6  C   UNL     1     -37.356 -13.674  12.341 -0.42 -0.00    -0.001 A  
DOCKED: ATOM      7  C   UNL     1     -38.789 -11.665  10.978 -0.14 +0.00    +0.008 A  
DOCKED: ATOM      8  C   UNL     1     -37.873 -13.914  11.067 -0.40 +0.00    +0.010 A  
DOCKED: ATOM      9  C   UNL     1     -38.586 -12.913  10.389 -0.40 +0.00    +0.068 A  
DOCKED: ATOM     10  N   UNL     1     -39.529 -13.389   8.023 -2.49 -0.00    -0.191 NA 
DOCKED: ATOM     11  C   UNL     1     -39.106 -13.176   9.084 -0.50 +0.00    +0.101 C  
DOCKED: ENDROOT
DOCKED: BRANCH   2  12
DOCKED: ATOM     12  C   UNL     1     -35.614 -11.759  14.363 -0.24 +0.00    +0.038 C  
DOCKED: BRANCH  12  13
DOCKED: ATOM     13  C   UNL     1     -35.148 -10.418  13.801 -0.09 +0.00    +0.038 C  
DOCKED: BRANCH  13  14
DOCKED: ATOM     14  C   UNL     1     -35.117  -9.347  14.890 -0.05 +0.00    +0.251 C  
DOCKED: BRANCH  14  15
DOCKED: ATOM     15  N   UNL     1     -35.058  -8.018  14.293 -0.04 +0.00    +0.141 N  
DOCKED: ATOM     16  C   UNL     1     -35.550  -8.049  12.915 -0.10 +0.00    +0.285 C  
DOCKED: ATOM     17  C   UNL     1     -35.831  -7.062  15.087 -0.01 +0.00    +0.285 C  
DOCKED: ENDBRANCH  14  15
DOCKED: ENDBRANCH  13  14
DOCKED: ENDBRANCH  12  13
DOCKED: ENDBRANCH   2  12
DOCKED: BRANCH   2  18
DOCKED: ATOM     18  C   UNL     1     -37.670 -12.705  15.397 -0.17 +0.00    +0.006 A  
DOCKED: ATOM     19  C   UNL     1     -36.804 -13.417  16.225 -0.11 +0.00    +0.001 A  
DOCKED: ATOM     20  C   UNL     1     -37.313 -14.159  17.292 -0.24 +0.00    +0.029 A  
DOCKED: ATOM     21  C   UNL     1     -38.687 -14.187  17.528 -0.05 +0.00    +0.140 A  
DOCKED: ATOM     22  C   UNL     1     -39.553 -13.475  16.700 -0.14 +0.00    +0.029 A  
DOCKED: ATOM     23  F   UNL     1     -39.175 -14.898  18.553 -0.04 -0.00    -0.204 F  
DOCKED: ATOM     24  C   UNL     1     -39.044 -12.733  15.632 -0.14 +0.00    +0.001 A  
DOCKED: ENDBRANCH   2  18
DOCKED: TORSDOF 5
DOCKED: TER
DOCKED: ENDMDL
________________________________________________________________________________


    FINAL DOCKED STATE:
    ________________________


Run:   59 / 512
Time taken for this run:   0.002s

DOCKED: MODEL        59
DOCKED: USER    Run = 59
DOCKED: USER
DOCKED: USER    Estimated Free Energy of Binding    =  -5.66 kcal/mol  [=(1)+(2)+(3)-(4)]
DOCKED: USER
DOCKED: USER    (1) Final Intermolecular Energy     =  -7.15 kcal/mol
DOCKED: USER        vdW + Hbond + desolv Energy     =  -7.15 kcal/mol
DOCKED: USER        Electrostatic Energy            =  +0.00 kcal/mol
DOCKED: USER        Moving Ligand-Fixed Receptor    =  -7.15 kcal/mol
DOCKED: USER        Moving Ligand-Moving Receptor   =  +0.00 kcal/mol
DOCKED: USER    (2) Final Total Internal Energy     =  -1.15 kcal/mol
DOCKED: USER    (3) Torsional Free Energy           =  +1.49 kcal/mol
DOCKED: USER    (4) Unbound System's Energy         =  -1.15 kcal/mol
DOCKED: USER
DOCKED: USER
DOCKED: REMARK  5 active torsions:
DOCKED: REMARK  status: ('A' for Active; 'I' for Inactive)
DOCKED: REMARK    1  A    between atoms: C_2  and  C_19 
DOCKED: REMARK    2  A    between atoms: C_2  and  C_11 
DOCKED: REMARK    3  A    between atoms: C_19  and  C_20 
DOCKED: REMARK    4  A    between atoms: C_20  and  C_21 
DOCKED: REMARK    5  A    between atoms: C_21  and  N_22 
DOCKED: USER                              x       y       z     vdW  Elec       q    Type
DOCKED: USER                           _______ _______ _______ _____ _____    ______ ____
DOCKED: ROOT
DOCKED: ATOM      1  O   UNL     1     -36.518 -13.743  14.247 -0.12 -0.00    -0.346 OA 
DOCKED: ATOM      2  C   UNL     1     -37.094 -12.407  14.090 -0.22 +0.00    +0.130 C  
DOCKED: ATOM      3  C   UNL     1     -37.684 -12.430  12.710 -0.33 +0.00    +0.004 A  
DOCKED: ATOM      4  C   UNL     1     -37.555 -13.701  12.168 -0.41 +0.00    +0.006 A  
DOCKED: ATOM      5  C   UNL     1     -36.893 -14.597  13.141 -0.11 +0.00    +0.169 C  
DOCKED: ATOM      6  C   UNL     1     -38.296 -11.410  11.995 -0.33 -0.00    -0.001 A  
DOCKED: ATOM      7  C   UNL     1     -38.027 -13.995  10.900 -0.45 +0.00    +0.008 A  
DOCKED: ATOM      8  C   UNL     1     -38.773 -11.690  10.714 +0.02 +0.00    +0.010 A  
DOCKED: ATOM      9  C   UNL     1     -38.639 -12.976  10.169 -0.42 +0.00    +0.068 A  
DOCKED: ATOM     10  N   UNL     1     -39.540 -13.462   7.789 -2.70 -0.00    -0.191 NA 
DOCKED: ATOM     11  C   UNL     1     -39.136 -13.244   8.856 -0.45 +0.00    +0.101 C  
DOCKED: ENDROOT
DOCKED: BRANCH   2  12
DOCKED: ATOM     12  C   UNL     1     -38.139 -12.201  15.179 -0.14 +0.00    +0.038 C  
DOCKED: BRANCH  12  13
DOCKED: ATOM     13  C   UNL     1     -38.323 -13.463  16.020 -0.22 +0.00    +0.038 C  
DOCKED: BRANCH  13  14
DOCKED: ATOM     14  C   UNL     1     -38.541 -13.115  17.492 -0.08 +0.00    +0.251 C  
DOCKED: BRANCH  14  15
DOCKED: ATOM     15  N   UNL     1     -37.704 -13.954  18.341 -0.14 +0.00    +0.141 N  
DOCKED: ATOM     16  C   UNL     1     -38.491 -15.037  18.933 -0.12 +0.00    +0.285 C  
DOCKED: ATOM     17  C   UNL     1     -36.581 -14.502  17.578 -0.11 +0.00    +0.285 C  
DOCKED: ENDBRANCH  14  15
DOCKED: ENDBRANCH  13  14
DOCKED: ENDBRANCH  12  13
DOCKED: ENDBRANCH   2  12
DOCKED: BRANCH   2  18
DOCKED: ATOM     18  C   UNL     1     -35.974 -11.430  14.227 -0.20 +0.00    +0.006 A  
DOCKED: ATOM     19  C   UNL     1     -36.245 -10.065  14.302 -0.13 +0.00    +0.001 A  
DOCKED: ATOM     20  C   UNL     1     -35.197  -9.153  14.430 -0.09 +0.00    +0.029 A  
DOCKED: ATOM     21  C   UNL     1     -33.880  -9.607  14.483 -0.07 +0.00    +0.140 A  
DOCKED: ATOM     22  C   UNL     1     -33.609 -10.973  14.408 -0.14 +0.00    +0.029 A  
DOCKED: ATOM     23  F   UNL     1     -32.874  -8.731  14.608 -0.01 -0.00    -0.204 F  
DOCKED: ATOM     24  C   UNL     1     -34.657 -11.886  14.280 -0.16 +0.00    +0.001 A  
DOCKED: ENDBRANCH   2  18
DOCKED: TORSDOF 5
DOCKED: TER
DOCKED: ENDMDL
________________________________________________________________________________


    FINAL DOCKED STATE:
    ________________________


Run:   60 / 512
Time taken for this run:   0.002s

DOCKED: MODEL        60
DOCKED: USER    Run = 60
DOCKED: USER
DOCKED: USER    Estimated Free Energy of Binding    =  -3.72 kcal/mol  [=(1)+(2)+(3)-(4)]
DOCKED: USER
DOCKED: USER    (1) Final Intermolecular Energy     =  -5.21 kcal/mol
DOCKED: USER        vdW + Hbond + desolv Energy     =  -5.21 kcal/mol
DOCKED: USER        Electrostatic Energy            =  +0.00 kcal/mol
DOCKED: USER        Moving Ligand-Fixed Receptor    =  -5.21 kcal/mol
DOCKED: USER        Moving Ligand-Moving Receptor   =  +0.00 kcal/mol
DOCKED: USER    (2) Final Total Internal Energy     =  -1.29 kcal/mol
DOCKED: USER    (3) Torsional Free Energy           =  +1.49 kcal/mol
DOCKED: USER    (4) Unbound System's Energy         =  -1.29 kcal/mol
DOCKED: USER
DOCKED: USER
DOCKED: REMARK  5 active torsions:
DOCKED: REMARK  status: ('A' for Active; 'I' for Inactive)
DOCKED: REMARK    1  A    between atoms: C_2  and  C_19 
DOCKED: REMARK    2  A    between atoms: C_2  and  C_11 
DOCKED: REMARK    3  A    between atoms: C_19  and  C_20 
DOCKED: REMARK    4  A    between atoms: C_20  and  C_21 
DOCKED: REMARK    5  A    between atoms: C_21  and  N_22 
DOCKED: USER                              x       y       z     vdW  Elec       q    Type
DOCKED: USER                           _______ _______ _______ _____ _____    ______ ____
DOCKED: ROOT
DOCKED: ATOM      1  O   UNL     1     -33.112  -4.161   6.654 -0.05 -0.00    -0.346 OA 
DOCKED: ATOM      2  C   UNL     1     -34.458  -4.402   6.132 -0.20 +0.00    +0.130 C  
DOCKED: ATOM      3  C   UNL     1     -34.548  -3.496   4.939 -0.22 +0.00    +0.004 A  
DOCKED: ATOM      4  C   UNL     1     -33.325  -2.874   4.730 -0.14 +0.00    +0.006 A  
DOCKED: ATOM      5  C   UNL     1     -32.351  -3.328   5.748 -0.12 +0.00    +0.169 C  
DOCKED: ATOM      6  C   UNL     1     -35.624  -3.250   4.098 -0.33 -0.00    -0.001 A  
DOCKED: ATOM      7  C   UNL     1     -33.137  -1.988   3.683 -0.19 +0.00    +0.008 A  
DOCKED: ATOM      8  C   UNL     1     -35.451  -2.355   3.040 -0.39 +0.00    +0.010 A  
DOCKED: ATOM      9  C   UNL     1     -34.213  -1.728   2.834 -0.28 +0.00    +0.068 A  
DOCKED: ATOM     10  N   UNL     1     -33.924  -0.077   0.858 -0.83 -0.00    -0.191 NA 
DOCKED: ATOM     11  C   UNL     1     -34.054  -0.817   1.745 -0.31 +0.00    +0.101 C  
DOCKED: ENDROOT
DOCKED: BRANCH   2  12
DOCKED: ATOM     12  C   UNL     1     -34.577  -5.877   5.768 -0.23 +0.00    +0.038 C  
DOCKED: BRANCH  12  13
DOCKED: ATOM     13  C   UNL     1     -34.187  -6.125   4.313 -0.20 +0.00    +0.038 C  
DOCKED: BRANCH  13  14
DOCKED: ATOM     14  C   UNL     1     -33.298  -7.360   4.185 -0.15 +0.00    +0.251 C  
DOCKED: BRANCH  14  15
DOCKED: ATOM     15  N   UNL     1     -32.174  -7.087   3.297 -0.10 +0.00    +0.141 N  
DOCKED: ATOM     16  C   UNL     1     -32.546  -6.100   2.282 -0.11 +0.00    +0.285 C  
DOCKED: ATOM     17  C   UNL     1     -31.016  -6.617   4.061 -0.01 +0.00    +0.285 C  
DOCKED: ENDBRANCH  14  15
DOCKED: ENDBRANCH  13  14
DOCKED: ENDBRANCH  12  13
DOCKED: ENDBRANCH   2  12
DOCKED: BRANCH   2  18
DOCKED: ATOM     18  C   UNL     1     -35.418  -4.035   7.215 -0.25 +0.00    +0.006 A  
DOCKED: ATOM     19  C   UNL     1     -36.786  -4.229   7.028 -0.27 +0.00    +0.001 A  
DOCKED: ATOM     20  C   UNL     1     -37.682  -3.885   8.041 -0.28 +0.00    +0.029 A  
DOCKED: ATOM     21  C   UNL     1     -37.209  -3.349   9.238 -0.15 +0.00    +0.140 A  
DOCKED: ATOM     22  C   UNL     1     -35.841  -3.156   9.424 -0.19 +0.00    +0.029 A  
DOCKED: ATOM     23  F   UNL     1     -38.069  -3.021  10.211 -0.00 -0.00    -0.204 F  
DOCKED: ATOM     24  C   UNL     1     -34.943  -3.499   8.411 -0.20 +0.00    +0.001 A  
DOCKED: ENDBRANCH   2  18
DOCKED: TORSDOF 5
DOCKED: TER
DOCKED: ENDMDL
________________________________________________________________________________


    FINAL DOCKED STATE:
    ________________________


Run:   61 / 512
Time taken for this run:   0.002s

DOCKED: MODEL        61
DOCKED: USER    Run = 61
DOCKED: USER
DOCKED: USER    Estimated Free Energy of Binding    =  -4.14 kcal/mol  [=(1)+(2)+(3)-(4)]
DOCKED: USER
DOCKED: USER    (1) Final Intermolecular Energy     =  -5.63 kcal/mol
DOCKED: USER        vdW + Hbond + desolv Energy     =  -5.63 kcal/mol
DOCKED: USER        Electrostatic Energy            =  +0.00 kcal/mol
DOCKED: USER        Moving Ligand-Fixed Receptor    =  -5.63 kcal/mol
DOCKED: USER        Moving Ligand-Moving Receptor   =  +0.00 kcal/mol
DOCKED: USER    (2) Final Total Internal Energy     =  -1.33 kcal/mol
DOCKED: USER    (3) Torsional Free Energy           =  +1.49 kcal/mol
DOCKED: USER    (4) Unbound System's Energy         =  -1.33 kcal/mol
DOCKED: USER
DOCKED: USER
DOCKED: REMARK  5 active torsions:
DOCKED: REMARK  status: ('A' for Active; 'I' for Inactive)
DOCKED: REMARK    1  A    between atoms: C_2  and  C_19 
DOCKED: REMARK    2  A    between atoms: C_2  and  C_11 
DOCKED: REMARK    3  A    between atoms: C_19  and  C_20 
DOCKED: REMARK    4  A    between atoms: C_20  and  C_21 
DOCKED: REMARK    5  A    between atoms: C_21  and  N_22 
DOCKED: USER                              x       y       z     vdW  Elec       q    Type
DOCKED: USER                           _______ _______ _______ _____ _____    ______ ____
DOCKED: ROOT
DOCKED: ATOM      1  O   UNL     1     -37.167  -8.226  13.674 -0.03 -0.00    -0.346 OA 
DOCKED: ATOM      2  C   UNL     1     -38.629  -8.166  13.651 -0.13 +0.00    +0.130 C  
DOCKED: ATOM      3  C   UNL     1     -39.036  -9.516  13.134 -0.21 +0.00    +0.004 A  
DOCKED: ATOM      4  C   UNL     1     -37.913 -10.315  12.980 -0.24 +0.00    +0.006 A  
DOCKED: ATOM      5  C   UNL     1     -36.704  -9.567  13.391 -0.16 +0.00    +0.169 C  
DOCKED: ATOM      6  C   UNL     1     -40.301 -10.001  12.834 -0.22 -0.00    -0.001 A  
DOCKED: ATOM      7  C   UNL     1     -38.012 -11.618  12.521 -0.31 +0.00    +0.008 A  
DOCKED: ATOM      8  C   UNL     1     -40.418 -11.311  12.366 -0.19 +0.00    +0.010 A  
DOCKED: ATOM      9  C   UNL     1     -39.279 -12.115  12.211 -0.25 +0.00    +0.068 A  
DOCKED: ATOM     10  N   UNL     1     -39.531 -14.543  11.344 -2.56 -0.00    -0.191 NA 
DOCKED: ATOM     11  C   UNL     1     -39.417 -13.454  11.732 -0.35 +0.00    +0.101 C  
DOCKED: ENDROOT
DOCKED: BRANCH   2  12
DOCKED: ATOM     12  C   UNL     1     -39.124  -7.899  15.067 -0.04 +0.00    +0.038 C  
DOCKED: BRANCH  12  13
DOCKED: ATOM     13  C   UNL     1     -39.043  -9.156  15.932 -0.03 +0.00    +0.038 C  
DOCKED: BRANCH  13  14
DOCKED: ATOM     14  C   UNL     1     -40.398  -9.480  16.559 -0.00 +0.00    +0.251 C  
DOCKED: BRANCH  14  15
DOCKED: ATOM     15  N   UNL     1     -41.464  -8.783  15.850 -0.02 +0.00    +0.141 N  
DOCKED: ATOM     16  C   UNL     1     -42.478  -9.730  15.383 -0.01 +0.00    +0.285 C  
DOCKED: ATOM     17  C   UNL     1     -42.076  -7.767  16.708 +0.00 +0.00    +0.285 C  
DOCKED: ENDBRANCH  14  15
DOCKED: ENDBRANCH  13  14
DOCKED: ENDBRANCH  12  13
DOCKED: ENDBRANCH   2  12
DOCKED: BRANCH   2  18
DOCKED: ATOM     18  C   UNL     1     -39.006  -7.053  12.730 -0.18 +0.00    +0.006 A  
DOCKED: ATOM     19  C   UNL     1     -38.078  -6.565  11.812 -0.07 +0.00    +0.001 A  
DOCKED: ATOM     20  C   UNL     1     -38.431  -5.524  10.952 -0.13 +0.00    +0.029 A  
DOCKED: ATOM     21  C   UNL     1     -39.710  -4.974  11.012 -0.11 +0.00    +0.140 A  
DOCKED: ATOM     22  C   UNL     1     -40.638  -5.463  11.931 -0.16 +0.00    +0.029 A  
DOCKED: ATOM     23  F   UNL     1     -40.049  -3.976  10.185 -0.03 -0.00    -0.204 F  
DOCKED: ATOM     24  C   UNL     1     -40.286  -6.504  12.792 -0.18 +0.00    +0.001 A  
DOCKED: ENDBRANCH   2  18
DOCKED: TORSDOF 5
DOCKED: TER
DOCKED: ENDMDL
________________________________________________________________________________


    FINAL DOCKED STATE:
    ________________________


Run:   62 / 512
Time taken for this run:   0.002s

DOCKED: MODEL        62
DOCKED: USER    Run = 62
DOCKED: USER
DOCKED: USER    Estimated Free Energy of Binding    =  -4.30 kcal/mol  [=(1)+(2)+(3)-(4)]
DOCKED: USER
DOCKED: USER    (1) Final Intermolecular Energy     =  -5.79 kcal/mol
DOCKED: USER        vdW + Hbond + desolv Energy     =  -5.79 kcal/mol
DOCKED: USER        Electrostatic Energy            =  +0.00 kcal/mol
DOCKED: USER        Moving Ligand-Fixed Receptor    =  -5.79 kcal/mol
DOCKED: USER        Moving Ligand-Moving Receptor   =  +0.00 kcal/mol
DOCKED: USER    (2) Final Total Internal Energy     =  -1.25 kcal/mol
DOCKED: USER    (3) Torsional Free Energy           =  +1.49 kcal/mol
DOCKED: USER    (4) Unbound System's Energy         =  -1.25 kcal/mol
DOCKED: USER
DOCKED: USER
DOCKED: REMARK  5 active torsions:
DOCKED: REMARK  status: ('A' for Active; 'I' for Inactive)
DOCKED: REMARK    1  A    between atoms: C_2  and  C_19 
DOCKED: REMARK    2  A    between atoms: C_2  and  C_11 
DOCKED: REMARK    3  A    between atoms: C_19  and  C_20 
DOCKED: REMARK    4  A    between atoms: C_20  and  C_21 
DOCKED: REMARK    5  A    between atoms: C_21  and  N_22 
DOCKED: USER                              x       y       z     vdW  Elec       q    Type
DOCKED: USER                           _______ _______ _______ _____ _____    ______ ____
DOCKED: ROOT
DOCKED: ATOM      1  O   UNL     1     -35.124 -10.806  15.472 -0.04 -0.00    -0.346 OA 
DOCKED: ATOM      2  C   UNL     1     -35.547  -9.936  14.374 -0.12 +0.00    +0.130 C  
DOCKED: ATOM      3  C   UNL     1     -36.453 -10.808  13.553 -0.21 +0.00    +0.004 A  
DOCKED: ATOM      4  C   UNL     1     -36.621 -12.032  14.184 -0.23 +0.00    +0.006 A  
DOCKED: ATOM      5  C   UNL     1     -35.860 -12.051  15.453 -0.12 +0.00    +0.169 C  
DOCKED: ATOM      6  C   UNL     1     -37.086 -10.535  12.349 -0.19 -0.00    -0.001 A  
DOCKED: ATOM      7  C   UNL     1     -37.419 -13.021  13.636 -0.30 +0.00    +0.008 A  
DOCKED: ATOM      8  C   UNL     1     -37.891 -11.524  11.782 -0.33 +0.00    +0.010 A  
DOCKED: ATOM      9  C   UNL     1     -38.057 -12.761  12.422 -0.31 +0.00    +0.068 A  
DOCKED: ATOM     10  N   UNL     1     -39.562 -14.573  11.344 -2.55 -0.00    -0.191 NA 
DOCKED: ATOM     11  C   UNL     1     -38.886 -13.761  11.827 -0.35 +0.00    +0.101 C  
DOCKED: ENDROOT
DOCKED: BRANCH   2  12
DOCKED: ATOM     12  C   UNL     1     -36.263  -8.727  14.965 -0.05 +0.00    +0.038 C  
DOCKED: BRANCH  12  13
DOCKED: ATOM     13  C   UNL     1     -37.737  -9.027  15.231 -0.05 +0.00    +0.038 C  
DOCKED: BRANCH  13  14
DOCKED: ATOM     14  C   UNL     1     -38.635  -7.959  14.611 -0.03 +0.00    +0.251 C  
DOCKED: BRANCH  14  15
DOCKED: ATOM     15  N   UNL     1     -39.676  -8.580  13.800 -0.10 +0.00    +0.141 N  
DOCKED: ATOM     16  C   UNL     1     -40.975  -8.485  14.466 -0.04 +0.00    +0.285 C  
DOCKED: ATOM     17  C   UNL     1     -39.738  -7.957  12.476 -0.14 +0.00    +0.285 C  
DOCKED: ENDBRANCH  14  15
DOCKED: ENDBRANCH  13  14
DOCKED: ENDBRANCH  12  13
DOCKED: ENDBRANCH   2  12
DOCKED: BRANCH   2  18
DOCKED: ATOM     18  C   UNL     1     -34.313  -9.526  13.641 -0.10 +0.00    +0.006 A  
DOCKED: ATOM     19  C   UNL     1     -33.096 -10.144  13.926 -0.11 +0.00    +0.001 A  
DOCKED: ATOM     20  C   UNL     1     -31.943  -9.760  13.240 -0.10 +0.00    +0.029 A  
DOCKED: ATOM     21  C   UNL     1     -32.009  -8.759  12.272 -0.07 +0.00    +0.140 A  
DOCKED: ATOM     22  C   UNL     1     -33.226  -8.141  11.988 -0.10 +0.00    +0.029 A  
DOCKED: ATOM     23  F   UNL     1     -30.902  -8.392  11.613 -0.01 -0.00    -0.204 F  
DOCKED: ATOM     24  C   UNL     1     -34.380  -8.525  12.673 -0.13 +0.00    +0.001 A  
DOCKED: ENDBRANCH   2  18
DOCKED: TORSDOF 5
DOCKED: TER
DOCKED: ENDMDL
________________________________________________________________________________


    FINAL DOCKED STATE:
    ________________________


Run:   63 / 512
Time taken for this run:   0.002s

DOCKED: MODEL        63
DOCKED: USER    Run = 63
DOCKED: USER
DOCKED: USER    Estimated Free Energy of Binding    =  -3.75 kcal/mol  [=(1)+(2)+(3)-(4)]
DOCKED: USER
DOCKED: USER    (1) Final Intermolecular Energy     =  -5.24 kcal/mol
DOCKED: USER        vdW + Hbond + desolv Energy     =  -5.24 kcal/mol
DOCKED: USER        Electrostatic Energy            =  +0.00 kcal/mol
DOCKED: USER        Moving Ligand-Fixed Receptor    =  -5.24 kcal/mol
DOCKED: USER        Moving Ligand-Moving Receptor   =  +0.00 kcal/mol
DOCKED: USER    (2) Final Total Internal Energy     =  -1.24 kcal/mol
DOCKED: USER    (3) Torsional Free Energy           =  +1.49 kcal/mol
DOCKED: USER    (4) Unbound System's Energy         =  -1.24 kcal/mol
DOCKED: USER
DOCKED: USER
DOCKED: REMARK  5 active torsions:
DOCKED: REMARK  status: ('A' for Active; 'I' for Inactive)
DOCKED: REMARK    1  A    between atoms: C_2  and  C_19 
DOCKED: REMARK    2  A    between atoms: C_2  and  C_11 
DOCKED: REMARK    3  A    between atoms: C_19  and  C_20 
DOCKED: REMARK    4  A    between atoms: C_20  and  C_21 
DOCKED: REMARK    5  A    between atoms: C_21  and  N_22 
DOCKED: USER                              x       y       z     vdW  Elec       q    Type
DOCKED: USER                           _______ _______ _______ _____ _____    ______ ____
DOCKED: ROOT
DOCKED: ATOM      1  O   UNL     1     -30.870  -0.098   4.456 -0.03 -0.00    -0.346 OA 
DOCKED: ATOM      2  C   UNL     1     -30.502  -0.350   3.062 -0.06 +0.00    +0.130 C  
DOCKED: ATOM      3  C   UNL     1     -31.814  -0.631   2.389 -0.14 +0.00    +0.004 A  
DOCKED: ATOM      4  C   UNL     1     -32.851  -0.447   3.293 -0.22 +0.00    +0.006 A  
DOCKED: ATOM      5  C   UNL     1     -32.307  -0.026   4.603 -0.17 +0.00    +0.169 C  
DOCKED: ATOM      6  C   UNL     1     -32.070  -1.008   1.079 -0.16 -0.00    -0.001 A  
DOCKED: ATOM      7  C   UNL     1     -34.171  -0.637   2.922 -0.32 +0.00    +0.008 A  
DOCKED: ATOM      8  C   UNL     1     -33.396  -1.207   0.691 -0.27 +0.00    +0.010 A  
DOCKED: ATOM      9  C   UNL     1     -34.441  -1.022   1.609 -0.35 +0.00    +0.068 A  
DOCKED: ATOM     10  N   UNL     1     -36.892  -1.396   0.855 -2.54 -0.00    -0.191 NA 
DOCKED: ATOM     11  C   UNL     1     -35.793  -1.229   1.193 -0.36 +0.00    +0.101 C  
DOCKED: ENDROOT
DOCKED: BRANCH   2  12
DOCKED: ATOM     12  C   UNL     1     -29.808   0.891   2.515 -0.08 +0.00    +0.038 C  
DOCKED: BRANCH  12  13
DOCKED: ATOM     13  C   UNL     1     -30.717   2.116   2.590 -0.15 +0.00    +0.038 C  
DOCKED: BRANCH  13  14
DOCKED: ATOM     14  C   UNL     1     -30.593   2.811   3.945 -0.05 +0.00    +0.251 C  
DOCKED: BRANCH  14  15
DOCKED: ATOM     15  N   UNL     1     -31.643   3.810   4.101 -0.10 +0.00    +0.141 N  
DOCKED: ATOM     16  C   UNL     1     -31.650   4.732   2.964 -0.03 +0.00    +0.285 C  
DOCKED: ATOM     17  C   UNL     1     -32.950   3.167   4.241 -0.15 +0.00    +0.285 C  
DOCKED: ENDBRANCH  14  15
DOCKED: ENDBRANCH  13  14
DOCKED: ENDBRANCH  12  13
DOCKED: ENDBRANCH   2  12
DOCKED: BRANCH   2  18
DOCKED: ATOM     18  C   UNL     1     -29.583  -1.526   3.059 -0.02 +0.00    +0.006 A  
DOCKED: ATOM     19  C   UNL     1     -28.253  -1.370   2.670 -0.01 +0.00    +0.001 A  
DOCKED: ATOM     20  C   UNL     1     -27.395  -2.471   2.667 -0.00 +0.00    +0.029 A  
DOCKED: ATOM     21  C   UNL     1     -27.868  -3.724   3.054 -0.00 +0.00    +0.140 A  
DOCKED: ATOM     22  C   UNL     1     -29.197  -3.879   3.445 -0.01 +0.00    +0.029 A  
DOCKED: ATOM     23  F   UNL     1     -27.043  -4.780   3.054 +0.00 -0.00    -0.204 F  
DOCKED: ATOM     24  C   UNL     1     -30.057  -2.779   3.447 -0.02 +0.00    +0.001 A  
DOCKED: ENDBRANCH   2  18
DOCKED: TORSDOF 5
DOCKED: TER
DOCKED: ENDMDL
________________________________________________________________________________


    FINAL DOCKED STATE:
    ________________________


Run:   64 / 512
Time taken for this run:   0.002s

DOCKED: MODEL        64
DOCKED: USER    Run = 64
DOCKED: USER
DOCKED: USER    Estimated Free Energy of Binding    =  -3.30 kcal/mol  [=(1)+(2)+(3)-(4)]
DOCKED: USER
DOCKED: USER    (1) Final Intermolecular Energy     =  -4.79 kcal/mol
DOCKED: USER        vdW + Hbond + desolv Energy     =  -4.79 kcal/mol
DOCKED: USER        Electrostatic Energy            =  +0.00 kcal/mol
DOCKED: USER        Moving Ligand-Fixed Receptor    =  -4.79 kcal/mol
DOCKED: USER        Moving Ligand-Moving Receptor   =  +0.00 kcal/mol
DOCKED: USER    (2) Final Total Internal Energy     =  -1.30 kcal/mol
DOCKED: USER    (3) Torsional Free Energy           =  +1.49 kcal/mol
DOCKED: USER    (4) Unbound System's Energy         =  -1.30 kcal/mol
DOCKED: USER
DOCKED: USER
DOCKED: REMARK  5 active torsions:
DOCKED: REMARK  status: ('A' for Active; 'I' for Inactive)
DOCKED: REMARK    1  A    between atoms: C_2  and  C_19 
DOCKED: REMARK    2  A    between atoms: C_2  and  C_11 
DOCKED: REMARK    3  A    between atoms: C_19  and  C_20 
DOCKED: REMARK    4  A    between atoms: C_20  and  C_21 
DOCKED: REMARK    5  A    between atoms: C_21  and  N_22 
DOCKED: USER                              x       y       z     vdW  Elec       q    Type
DOCKED: USER                           _______ _______ _______ _____ _____    ______ ____
DOCKED: ROOT
DOCKED: ATOM      1  O   UNL     1     -32.038  -8.978   6.572 -0.00 -0.00    -0.346 OA 
DOCKED: ATOM      2  C   UNL     1     -30.781  -9.078   7.315 -0.05 +0.00    +0.130 C  
DOCKED: ATOM      3  C   UNL     1     -30.873 -10.410   8.001 -0.11 +0.00    +0.004 A  
DOCKED: ATOM      4  C   UNL     1     -32.030 -11.063   7.599 -0.26 +0.00    +0.006 A  
DOCKED: ATOM      5  C   UNL     1     -32.765 -10.227   6.624 -0.16 +0.00    +0.169 C  
DOCKED: ATOM      6  C   UNL     1     -29.998 -11.001   8.900 -0.08 -0.00    -0.001 A  
DOCKED: ATOM      7  C   UNL     1     -32.352 -12.319   8.082 -0.33 +0.00    +0.008 A  
DOCKED: ATOM      8  C   UNL     1     -30.311 -12.266   9.400 -0.17 +0.00    +0.010 A  
DOCKED: ATOM      9  C   UNL     1     -31.483 -12.922   8.992 -0.27 +0.00    +0.068 A  
DOCKED: ATOM     10  N   UNL     1     -32.032 -15.272   9.935 -2.58 -0.00    -0.191 NA 
DOCKED: ATOM     11  C   UNL     1     -31.786 -14.218   9.512 -0.31 +0.00    +0.101 C  
DOCKED: ENDROOT
DOCKED: BRANCH   2  12
DOCKED: ATOM     12  C   UNL     1     -29.626  -9.000   6.322 -0.02 +0.00    +0.038 C  
DOCKED: BRANCH  12  13
DOCKED: ATOM     13  C   UNL     1     -30.123  -9.097   4.881 -0.05 +0.00    +0.038 C  
DOCKED: BRANCH  13  14
DOCKED: ATOM     14  C   UNL     1     -29.205  -9.983   4.042 -0.03 +0.00    +0.251 C  
DOCKED: BRANCH  14  15
DOCKED: ATOM     15  N   UNL     1     -29.956 -11.094   3.470 -0.10 +0.00    +0.141 N  
DOCKED: ATOM     16  C   UNL     1     -30.162 -12.145   4.468 -0.07 +0.00    +0.285 C  
DOCKED: ATOM     17  C   UNL     1     -31.242 -10.632   2.946 -0.07 +0.00    +0.285 C  
DOCKED: ENDBRANCH  14  15
DOCKED: ENDBRANCH  13  14
DOCKED: ENDBRANCH  12  13
DOCKED: ENDBRANCH   2  12
DOCKED: BRANCH   2  18
DOCKED: ATOM     18  C   UNL     1     -30.747  -7.932   8.270 -0.03 +0.00    +0.006 A  
DOCKED: ATOM     19  C   UNL     1     -31.936  -7.422   8.789 -0.05 +0.00    +0.001 A  
DOCKED: ATOM     20  C   UNL     1     -31.903  -6.350   9.682 -0.02 +0.00    +0.029 A  
DOCKED: ATOM     21  C   UNL     1     -30.682  -5.791  10.056 -0.01 +0.00    +0.140 A  
DOCKED: ATOM     22  C   UNL     1     -29.492  -6.303   9.537 -0.00 +0.00    +0.029 A  
DOCKED: ATOM     23  F   UNL     1     -30.650  -4.764  10.915 +0.00 -0.00    -0.204 F  
DOCKED: ATOM     24  C   UNL     1     -29.524  -7.374   8.643 -0.01 +0.00    +0.001 A  
DOCKED: ENDBRANCH   2  18
DOCKED: TORSDOF 5
DOCKED: TER
DOCKED: ENDMDL
________________________________________________________________________________


    FINAL DOCKED STATE:
    ________________________


Run:   65 / 512
Time taken for this run:   0.002s

DOCKED: MODEL        65
DOCKED: USER    Run = 65
DOCKED: USER
DOCKED: USER    Estimated Free Energy of Binding    =  -3.85 kcal/mol  [=(1)+(2)+(3)-(4)]
DOCKED: USER
DOCKED: USER    (1) Final Intermolecular Energy     =  -5.35 kcal/mol
DOCKED: USER        vdW + Hbond + desolv Energy     =  -5.35 kcal/mol
DOCKED: USER        Electrostatic Energy            =  +0.00 kcal/mol
DOCKED: USER        Moving Ligand-Fixed Receptor    =  -5.35 kcal/mol
DOCKED: USER        Moving Ligand-Moving Receptor   =  +0.00 kcal/mol
DOCKED: USER    (2) Final Total Internal Energy     =  -1.42 kcal/mol
DOCKED: USER    (3) Torsional Free Energy           =  +1.49 kcal/mol
DOCKED: USER    (4) Unbound System's Energy         =  -1.42 kcal/mol
DOCKED: USER
DOCKED: USER
DOCKED: REMARK  5 active torsions:
DOCKED: REMARK  status: ('A' for Active; 'I' for Inactive)
DOCKED: REMARK    1  A    between atoms: C_2  and  C_19 
DOCKED: REMARK    2  A    between atoms: C_2  and  C_11 
DOCKED: REMARK    3  A    between atoms: C_19  and  C_20 
DOCKED: REMARK    4  A    between atoms: C_20  and  C_21 
DOCKED: REMARK    5  A    between atoms: C_21  and  N_22 
DOCKED: USER                              x       y       z     vdW  Elec       q    Type
DOCKED: USER                           _______ _______ _______ _____ _____    ______ ____
DOCKED: ROOT
DOCKED: ATOM      1  O   UNL     1     -38.126  -9.679  15.676 -0.00 -0.00    -0.346 OA 
DOCKED: ATOM      2  C   UNL     1     -37.581  -9.266  14.383 -0.08 +0.00    +0.130 C  
DOCKED: ATOM      3  C   UNL     1     -37.901 -10.417  13.473 -0.19 +0.00    +0.004 A  
DOCKED: ATOM      4  C   UNL     1     -38.660 -11.356  14.158 -0.13 +0.00    +0.006 A  
DOCKED: ATOM      5  C   UNL     1     -38.902 -10.893  15.543 -0.04 +0.00    +0.169 C  
DOCKED: ATOM      6  C   UNL     1     -37.558 -10.612  12.143 -0.28 -0.00    -0.001 A  
DOCKED: ATOM      7  C   UNL     1     -39.096 -12.517  13.542 -0.19 +0.00    +0.008 A  
DOCKED: ATOM      8  C   UNL     1     -37.987 -11.779  11.510 -0.33 +0.00    +0.010 A  
DOCKED: ATOM      9  C   UNL     1     -38.752 -12.727  12.206 -0.28 +0.00    +0.068 A  
DOCKED: ATOM     10  N   UNL     1     -39.536 -14.881  10.999 -2.37 -0.00    -0.191 NA 
DOCKED: ATOM     11  C   UNL     1     -39.184 -13.915  11.541 -0.36 +0.00    +0.101 C  
DOCKED: ENDROOT
DOCKED: BRANCH   2  12
DOCKED: ATOM     12  C   UNL     1     -38.263  -7.970  13.963 -0.11 +0.00    +0.038 C  
DOCKED: BRANCH  12  13
DOCKED: ATOM     13  C   UNL     1     -39.769  -8.027  14.212 -0.10 +0.00    +0.038 C  
DOCKED: BRANCH  13  14
DOCKED: ATOM     14  C   UNL     1     -40.527  -8.350  12.925 -0.17 +0.00    +0.251 C  
DOCKED: BRANCH  14  15
DOCKED: ATOM     15  N   UNL     1     -41.817  -8.954  13.235 -0.17 +0.00    +0.141 N  
DOCKED: ATOM     16  C   UNL     1     -41.834 -10.364  12.844 -0.13 +0.00    +0.285 C  
DOCKED: ATOM     17  C   UNL     1     -42.121  -8.819  14.660 -0.03 +0.00    +0.285 C  
DOCKED: ENDBRANCH  14  15
DOCKED: ENDBRANCH  13  14
DOCKED: ENDBRANCH  12  13
DOCKED: ENDBRANCH   2  12
DOCKED: BRANCH   2  18
DOCKED: ATOM     18  C   UNL     1     -36.114  -9.065  14.572 -0.08 +0.00    +0.006 A  
DOCKED: ATOM     19  C   UNL     1     -35.283 -10.164  14.791 -0.11 +0.00    +0.001 A  
DOCKED: ATOM     20  C   UNL     1     -33.912  -9.975  14.969 -0.09 +0.00    +0.029 A  
DOCKED: ATOM     21  C   UNL     1     -33.374  -8.689  14.926 -0.03 +0.00    +0.140 A  
DOCKED: ATOM     22  C   UNL     1     -34.206  -7.591  14.707 -0.03 +0.00    +0.029 A  
DOCKED: ATOM     23  F   UNL     1     -32.058  -8.508  15.095 -0.00 -0.00    -0.204 F  
DOCKED: ATOM     24  C   UNL     1     -35.577  -7.779  14.530 -0.04 +0.00    +0.001 A  
DOCKED: ENDBRANCH   2  18
DOCKED: TORSDOF 5
DOCKED: TER
DOCKED: ENDMDL
________________________________________________________________________________


    FINAL DOCKED STATE:
    ________________________


Run:   66 / 512
Time taken for this run:   0.002s

DOCKED: MODEL        66
DOCKED: USER    Run = 66
DOCKED: USER
DOCKED: USER    Estimated Free Energy of Binding    =  -4.31 kcal/mol  [=(1)+(2)+(3)-(4)]
DOCKED: USER
DOCKED: USER    (1) Final Intermolecular Energy     =  -5.80 kcal/mol
DOCKED: USER        vdW + Hbond + desolv Energy     =  -5.80 kcal/mol
DOCKED: USER        Electrostatic Energy            =  +0.00 kcal/mol
DOCKED: USER        Moving Ligand-Fixed Receptor    =  -5.80 kcal/mol
DOCKED: USER        Moving Ligand-Moving Receptor   =  +0.00 kcal/mol
DOCKED: USER    (2) Final Total Internal Energy     =  -1.27 kcal/mol
DOCKED: USER    (3) Torsional Free Energy           =  +1.49 kcal/mol
DOCKED: USER    (4) Unbound System's Energy         =  -1.27 kcal/mol
DOCKED: USER
DOCKED: USER
DOCKED: REMARK  5 active torsions:
DOCKED: REMARK  status: ('A' for Active; 'I' for Inactive)
DOCKED: REMARK    1  A    between atoms: C_2  and  C_19 
DOCKED: REMARK    2  A    between atoms: C_2  and  C_11 
DOCKED: REMARK    3  A    between atoms: C_19  and  C_20 
DOCKED: REMARK    4  A    between atoms: C_20  and  C_21 
DOCKED: REMARK    5  A    between atoms: C_21  and  N_22 
DOCKED: USER                              x       y       z     vdW  Elec       q    Type
DOCKED: USER                           _______ _______ _______ _____ _____    ______ ____
DOCKED: ROOT
DOCKED: ATOM      1  O   UNL     1     -36.453  -8.560  13.408 -0.05 -0.00    -0.346 OA 
DOCKED: ATOM      2  C   UNL     1     -37.899  -8.392  13.554 -0.13 +0.00    +0.130 C  
DOCKED: ATOM      3  C   UNL     1     -38.462  -9.702  13.082 -0.22 +0.00    +0.004 A  
DOCKED: ATOM      4  C   UNL     1     -37.426 -10.580  12.798 -0.27 +0.00    +0.006 A  
DOCKED: ATOM      5  C   UNL     1     -36.125  -9.927  13.069 -0.13 +0.00    +0.169 C  
DOCKED: ATOM      6  C   UNL     1     -39.785 -10.089  12.929 -0.22 -0.00    -0.001 A  
DOCKED: ATOM      7  C   UNL     1     -37.674 -11.866  12.349 -0.33 +0.00    +0.008 A  
DOCKED: ATOM      8  C   UNL     1     -40.052 -11.381  12.472 -0.23 +0.00    +0.010 A  
DOCKED: ATOM      9  C   UNL     1     -39.001 -12.265  12.184 -0.26 +0.00    +0.068 A  
DOCKED: ATOM     10  N   UNL     1     -39.530 -14.658  11.344 -2.56 -0.00    -0.191 NA 
DOCKED: ATOM     11  C   UNL     1     -39.293 -13.584  11.720 -0.36 +0.00    +0.101 C  
DOCKED: ENDROOT
DOCKED: BRANCH   2  12
DOCKED: ATOM     12  C   UNL     1     -38.207  -8.107  15.019 -0.04 +0.00    +0.038 C  
DOCKED: BRANCH  12  13
DOCKED: ATOM     13  C   UNL     1     -37.058  -8.543  15.925 -0.02 +0.00    +0.038 C  
DOCKED: BRANCH  13  14
DOCKED: ATOM     14  C   UNL     1     -37.583  -9.199  17.200 -0.00 +0.00    +0.251 C  
DOCKED: BRANCH  14  15
DOCKED: ATOM     15  N   UNL     1     -38.223 -10.472  16.890 -0.01 +0.00    +0.141 N  
DOCKED: ATOM     16  C   UNL     1     -37.309 -11.342  16.149 -0.03 +0.00    +0.285 C  
DOCKED: ATOM     17  C   UNL     1     -38.673 -11.135  18.115 -0.00 +0.00    +0.285 C  
DOCKED: ENDBRANCH  14  15
DOCKED: ENDBRANCH  13  14
DOCKED: ENDBRANCH  12  13
DOCKED: ENDBRANCH   2  12
DOCKED: BRANCH   2  18
DOCKED: ATOM     18  C   UNL     1     -38.295  -7.244  12.686 -0.17 +0.00    +0.006 A  
DOCKED: ATOM     19  C   UNL     1     -39.641  -6.912  12.541 -0.21 +0.00    +0.001 A  
DOCKED: ATOM     20  C   UNL     1     -40.010  -5.838  11.730 -0.14 +0.00    +0.029 A  
DOCKED: ATOM     21  C   UNL     1     -39.032  -5.098  11.066 -0.13 +0.00    +0.140 A  
DOCKED: ATOM     22  C   UNL     1     -37.686  -5.430  11.213 -0.13 +0.00    +0.029 A  
DOCKED: ATOM     23  F   UNL     1     -39.386  -4.066  10.289 -0.03 -0.00    -0.204 F  
DOCKED: ATOM     24  C   UNL     1     -37.316  -6.504  12.023 -0.11 +0.00    +0.001 A  
DOCKED: ENDBRANCH   2  18
DOCKED: TORSDOF 5
DOCKED: TER
DOCKED: ENDMDL
________________________________________________________________________________


    FINAL DOCKED STATE:
    ________________________


Run:   67 / 512
Time taken for this run:   0.002s

DOCKED: MODEL        67
DOCKED: USER    Run = 67
DOCKED: USER
DOCKED: USER    Estimated Free Energy of Binding    =  -4.02 kcal/mol  [=(1)+(2)+(3)-(4)]
DOCKED: USER
DOCKED: USER    (1) Final Intermolecular Energy     =  -5.51 kcal/mol
DOCKED: USER        vdW + Hbond + desolv Energy     =  -5.51 kcal/mol
DOCKED: USER        Electrostatic Energy            =  +0.00 kcal/mol
DOCKED: USER        Moving Ligand-Fixed Receptor    =  -5.51 kcal/mol
DOCKED: USER        Moving Ligand-Moving Receptor   =  +0.00 kcal/mol
DOCKED: USER    (2) Final Total Internal Energy     =  -1.24 kcal/mol
DOCKED: USER    (3) Torsional Free Energy           =  +1.49 kcal/mol
DOCKED: USER    (4) Unbound System's Energy         =  -1.24 kcal/mol
DOCKED: USER
DOCKED: USER
DOCKED: REMARK  5 active torsions:
DOCKED: REMARK  status: ('A' for Active; 'I' for Inactive)
DOCKED: REMARK    1  A    between atoms: C_2  and  C_19 
DOCKED: REMARK    2  A    between atoms: C_2  and  C_11 
DOCKED: REMARK    3  A    between atoms: C_19  and  C_20 
DOCKED: REMARK    4  A    between atoms: C_20  and  C_21 
DOCKED: REMARK    5  A    between atoms: C_21  and  N_22 
DOCKED: USER                              x       y       z     vdW  Elec       q    Type
DOCKED: USER                           _______ _______ _______ _____ _____    ______ ____
DOCKED: ROOT
DOCKED: ATOM      1  O   UNL     1     -31.181  -4.932   3.384 +0.01 -0.00    -0.346 OA 
DOCKED: ATOM      2  C   UNL     1     -32.247  -4.898   4.386 -0.07 +0.00    +0.130 C  
DOCKED: ATOM      3  C   UNL     1     -33.314  -4.056   3.747 -0.18 +0.00    +0.004 A  
DOCKED: ATOM      4  C   UNL     1     -32.938  -3.730   2.452 -0.15 +0.00    +0.006 A  
DOCKED: ATOM      5  C   UNL     1     -31.623  -4.334   2.143 -0.05 +0.00    +0.169 C  
DOCKED: ATOM      6  C   UNL     1     -34.525  -3.624   4.267 -0.28 -0.00    -0.001 A  
DOCKED: ATOM      7  C   UNL     1     -33.752  -2.961   1.637 -0.22 +0.00    +0.008 A  
DOCKED: ATOM      8  C   UNL     1     -35.355  -2.844   3.459 -0.35 +0.00    +0.010 A  
DOCKED: ATOM      9  C   UNL     1     -34.970  -2.515   2.151 -0.21 +0.00    +0.068 A  
DOCKED: ATOM     10  N   UNL     1     -36.536  -1.070   0.677 -2.46 -0.00    -0.191 NA 
DOCKED: ATOM     11  C   UNL     1     -35.834  -1.718   1.338 -0.38 +0.00    +0.101 C  
DOCKED: ENDROOT
DOCKED: BRANCH   2  12
DOCKED: ATOM     12  C   UNL     1     -32.702  -6.327   4.655 -0.13 +0.00    +0.038 C  
DOCKED: BRANCH  12  13
DOCKED: ATOM     13  C   UNL     1     -32.906  -7.102   3.355 -0.22 +0.00    +0.038 C  
DOCKED: BRANCH  13  14
DOCKED: ATOM     14  C   UNL     1     -31.615  -7.789   2.916 -0.09 +0.00    +0.251 C  
DOCKED: BRANCH  14  15
DOCKED: ATOM     15  N   UNL     1     -31.738  -8.273   1.546 -0.11 +0.00    +0.141 N  
DOCKED: ATOM     16  C   UNL     1     -33.146  -8.360   1.154 -0.18 +0.00    +0.285 C  
DOCKED: ATOM     17  C   UNL     1     -31.007  -7.403   0.624 -0.03 +0.00    +0.285 C  
DOCKED: ENDBRANCH  14  15
DOCKED: ENDBRANCH  13  14
DOCKED: ENDBRANCH  12  13
DOCKED: ENDBRANCH   2  12
DOCKED: BRANCH   2  18
DOCKED: ATOM     18  C   UNL     1     -31.673  -4.275   5.614 -0.06 +0.00    +0.006 A  
DOCKED: ATOM     19  C   UNL     1     -32.306  -4.448   6.844 -0.09 +0.00    +0.001 A  
DOCKED: ATOM     20  C   UNL     1     -31.767  -3.864   7.992 -0.09 +0.00    +0.029 A  
DOCKED: ATOM     21  C   UNL     1     -30.598  -3.110   7.908 -0.06 +0.00    +0.140 A  
DOCKED: ATOM     22  C   UNL     1     -29.965  -2.938   6.677 -0.05 +0.00    +0.029 A  
DOCKED: ATOM     23  F   UNL     1     -30.081  -2.552   9.010 -0.02 -0.00    -0.204 F  
DOCKED: ATOM     24  C   UNL     1     -30.503  -3.521   5.528 -0.04 +0.00    +0.001 A  
DOCKED: ENDBRANCH   2  18
DOCKED: TORSDOF 5
DOCKED: TER
DOCKED: ENDMDL
________________________________________________________________________________


    FINAL DOCKED STATE:
    ________________________


Run:   68 / 512
Time taken for this run:   0.002s

DOCKED: MODEL        68
DOCKED: USER    Run = 68
DOCKED: USER
DOCKED: USER    Estimated Free Energy of Binding    =  -5.59 kcal/mol  [=(1)+(2)+(3)-(4)]
DOCKED: USER
DOCKED: USER    (1) Final Intermolecular Energy     =  -7.09 kcal/mol
DOCKED: USER        vdW + Hbond + desolv Energy     =  -7.09 kcal/mol
DOCKED: USER        Electrostatic Energy            =  +0.00 kcal/mol
DOCKED: USER        Moving Ligand-Fixed Receptor    =  -7.09 kcal/mol
DOCKED: USER        Moving Ligand-Moving Receptor   =  +0.00 kcal/mol
DOCKED: USER    (2) Final Total Internal Energy     =  -1.26 kcal/mol
DOCKED: USER    (3) Torsional Free Energy           =  +1.49 kcal/mol
DOCKED: USER    (4) Unbound System's Energy         =  -1.26 kcal/mol
DOCKED: USER
DOCKED: USER
DOCKED: REMARK  5 active torsions:
DOCKED: REMARK  status: ('A' for Active; 'I' for Inactive)
DOCKED: REMARK    1  A    between atoms: C_2  and  C_19 
DOCKED: REMARK    2  A    between atoms: C_2  and  C_11 
DOCKED: REMARK    3  A    between atoms: C_19  and  C_20 
DOCKED: REMARK    4  A    between atoms: C_20  and  C_21 
DOCKED: REMARK    5  A    between atoms: C_21  and  N_22 
DOCKED: USER                              x       y       z     vdW  Elec       q    Type
DOCKED: USER                           _______ _______ _______ _____ _____    ______ ____
DOCKED: ROOT
DOCKED: ATOM      1  O   UNL     1     -37.404 -12.287  14.095 -0.06 -0.00    -0.346 OA 
DOCKED: ATOM      2  C   UNL     1     -38.737 -12.889  14.130 -0.17 +0.00    +0.130 C  
DOCKED: ATOM      3  C   UNL     1     -39.127 -12.984  12.683 -0.28 +0.00    +0.004 A  
DOCKED: ATOM      4  C   UNL     1     -38.068 -12.576  11.886 -0.38 +0.00    +0.006 A  
DOCKED: ATOM      5  C   UNL     1     -36.915 -12.200  12.736 -0.24 +0.00    +0.169 C  
DOCKED: ATOM      6  C   UNL     1     -40.321 -13.409  12.118 -0.27 -0.00    -0.001 A  
DOCKED: ATOM      7  C   UNL     1     -38.164 -12.574  10.505 -0.23 +0.00    +0.008 A  
DOCKED: ATOM      8  C   UNL     1     -40.435 -13.409  10.727 -0.36 +0.00    +0.010 A  
DOCKED: ATOM      9  C   UNL     1     -39.362 -12.994   9.925 -0.40 +0.00    +0.068 A  
DOCKED: ATOM     10  N   UNL     1     -39.605 -13.010   7.345 -3.16 -0.00    -0.191 NA 
DOCKED: ATOM     11  C   UNL     1     -39.496 -13.002   8.502 -0.27 +0.00    +0.101 C  
DOCKED: ENDROOT
DOCKED: BRANCH   2  12
DOCKED: ATOM     12  C   UNL     1     -38.634 -14.250  14.808 -0.27 +0.00    +0.038 C  
DOCKED: BRANCH  12  13
DOCKED: ATOM     13  C   UNL     1     -37.375 -14.350  15.667 -0.19 +0.00    +0.038 C  
DOCKED: BRANCH  13  14
DOCKED: ATOM     14  C   UNL     1     -37.444 -13.394  16.856 -0.13 +0.00    +0.251 C  
DOCKED: BRANCH  14  15
DOCKED: ATOM     15  N   UNL     1     -37.813 -14.116  18.068 -0.16 +0.00    +0.141 N  
DOCKED: ATOM     16  C   UNL     1     -36.644 -14.316  18.926 -0.13 +0.00    +0.285 C  
DOCKED: ATOM     17  C   UNL     1     -38.861 -13.399  18.796 -0.05 +0.00    +0.285 C  
DOCKED: ENDBRANCH  14  15
DOCKED: ENDBRANCH  13  14
DOCKED: ENDBRANCH  12  13
DOCKED: ENDBRANCH   2  12
DOCKED: BRANCH   2  18
DOCKED: ATOM     18  C   UNL     1     -39.613 -11.964  14.909 -0.10 +0.00    +0.006 A  
DOCKED: ATOM     19  C   UNL     1     -40.925 -12.331  15.204 -0.10 +0.00    +0.001 A  
DOCKED: ATOM     20  C   UNL     1     -41.743 -11.466  15.932 -0.05 +0.00    +0.029 A  
DOCKED: ATOM     21  C   UNL     1     -41.247 -10.237  16.364 -0.01 +0.00    +0.140 A  
DOCKED: ATOM     22  C   UNL     1     -39.935  -9.870  16.068 -0.03 +0.00    +0.029 A  
DOCKED: ATOM     23  F   UNL     1     -42.032  -9.407  17.064 +0.01 -0.00    -0.204 F  
DOCKED: ATOM     24  C   UNL     1     -39.116 -10.735  15.340 -0.06 +0.00    +0.001 A  
DOCKED: ENDBRANCH   2  18
DOCKED: TORSDOF 5
DOCKED: TER
DOCKED: ENDMDL
________________________________________________________________________________


    FINAL DOCKED STATE:
    ________________________


Run:   69 / 512
Time taken for this run:   0.002s

DOCKED: MODEL        69
DOCKED: USER    Run = 69
DOCKED: USER
DOCKED: USER    Estimated Free Energy of Binding    =  -4.13 kcal/mol  [=(1)+(2)+(3)-(4)]
DOCKED: USER
DOCKED: USER    (1) Final Intermolecular Energy     =  -5.62 kcal/mol
DOCKED: USER        vdW + Hbond + desolv Energy     =  -5.62 kcal/mol
DOCKED: USER        Electrostatic Energy            =  +0.00 kcal/mol
DOCKED: USER        Moving Ligand-Fixed Receptor    =  -5.62 kcal/mol
DOCKED: USER        Moving Ligand-Moving Receptor   =  +0.00 kcal/mol
DOCKED: USER    (2) Final Total Internal Energy     =  -1.16 kcal/mol
DOCKED: USER    (3) Torsional Free Energy           =  +1.49 kcal/mol
DOCKED: USER    (4) Unbound System's Energy         =  -1.16 kcal/mol
DOCKED: USER
DOCKED: USER
DOCKED: REMARK  5 active torsions:
DOCKED: REMARK  status: ('A' for Active; 'I' for Inactive)
DOCKED: REMARK    1  A    between atoms: C_2  and  C_19 
DOCKED: REMARK    2  A    between atoms: C_2  and  C_11 
DOCKED: REMARK    3  A    between atoms: C_19  and  C_20 
DOCKED: REMARK    4  A    between atoms: C_20  and  C_21 
DOCKED: REMARK    5  A    between atoms: C_21  and  N_22 
DOCKED: USER                              x       y       z     vdW  Elec       q    Type
DOCKED: USER                           _______ _______ _______ _____ _____    ______ ____
DOCKED: ROOT
DOCKED: ATOM      1  O   UNL     1     -33.347  -5.325   5.518 -0.02 -0.00    -0.346 OA 
DOCKED: ATOM      2  C   UNL     1     -32.492  -5.266   4.332 -0.08 +0.00    +0.130 C  
DOCKED: ATOM      3  C   UNL     1     -33.243  -4.366   3.393 -0.17 +0.00    +0.004 A  
DOCKED: ATOM      4  C   UNL     1     -34.371  -3.866   4.028 -0.26 +0.00    +0.006 A  
DOCKED: ATOM      5  C   UNL     1     -34.439  -4.382   5.413 -0.21 +0.00    +0.169 C  
DOCKED: ATOM      6  C   UNL     1     -32.944  -4.008   2.087 -0.16 -0.00    -0.001 A  
DOCKED: ATOM      7  C   UNL     1     -35.238  -3.001   3.381 -0.28 +0.00    +0.008 A  
DOCKED: ATOM      8  C   UNL     1     -33.810  -3.141   1.420 -0.19 +0.00    +0.010 A  
DOCKED: ATOM      9  C   UNL     1     -34.951  -2.639   2.064 -0.04 +0.00    +0.068 A  
DOCKED: ATOM     10  N   UNL     1     -36.535  -1.026   0.799 -2.39 -0.00    -0.191 NA 
DOCKED: ATOM     11  C   UNL     1     -35.825  -1.750   1.366 -0.38 +0.00    +0.101 C  
DOCKED: ENDROOT
DOCKED: BRANCH   2  12
DOCKED: ATOM     12  C   UNL     1     -31.138  -4.700   4.741 -0.03 +0.00    +0.038 C  
DOCKED: BRANCH  12  13
DOCKED: ATOM     13  C   UNL     1     -31.246  -3.859   6.011 -0.07 +0.00    +0.038 C  
DOCKED: BRANCH  13  14
DOCKED: ATOM     14  C   UNL     1     -31.722  -2.442   5.693 -0.10 +0.00    +0.251 C  
DOCKED: BRANCH  14  15
DOCKED: ATOM     15  N   UNL     1     -30.721  -1.737   4.901 -0.06 +0.00    +0.141 N  
DOCKED: ATOM     16  C   UNL     1     -31.361  -0.796   3.981 -0.07 +0.00    +0.285 C  
DOCKED: ATOM     17  C   UNL     1     -29.778  -1.033   5.771 -0.05 +0.00    +0.285 C  
DOCKED: ENDBRANCH  14  15
DOCKED: ENDBRANCH  13  14
DOCKED: ENDBRANCH  12  13
DOCKED: ENDBRANCH   2  12
DOCKED: BRANCH   2  18
DOCKED: ATOM     18  C   UNL     1     -32.360  -6.661   3.819 -0.12 +0.00    +0.006 A  
DOCKED: ATOM     19  C   UNL     1     -32.431  -7.737   4.702 -0.16 +0.00    +0.001 A  
DOCKED: ATOM     20  C   UNL     1     -32.307  -9.041   4.221 -0.16 +0.00    +0.029 A  
DOCKED: ATOM     21  C   UNL     1     -32.114  -9.267   2.859 -0.20 +0.00    +0.140 A  
DOCKED: ATOM     22  C   UNL     1     -32.044  -8.189   1.976 -0.18 +0.00    +0.029 A  
DOCKED: ATOM     23  F   UNL     1     -31.997 -10.519   2.397 -0.10 -0.00    -0.204 F  
DOCKED: ATOM     24  C   UNL     1     -32.167  -6.884   2.456 -0.14 +0.00    +0.001 A  
DOCKED: ENDBRANCH   2  18
DOCKED: TORSDOF 5
DOCKED: TER
DOCKED: ENDMDL
________________________________________________________________________________


    FINAL DOCKED STATE:
    ________________________


Run:   70 / 512
Time taken for this run:   0.002s

DOCKED: MODEL        70
DOCKED: USER    Run = 70
DOCKED: USER
DOCKED: USER    Estimated Free Energy of Binding    =  -5.30 kcal/mol  [=(1)+(2)+(3)-(4)]
DOCKED: USER
DOCKED: USER    (1) Final Intermolecular Energy     =  -6.79 kcal/mol
DOCKED: USER        vdW + Hbond + desolv Energy     =  -6.79 kcal/mol
DOCKED: USER        Electrostatic Energy            =  +0.00 kcal/mol
DOCKED: USER        Moving Ligand-Fixed Receptor    =  -6.79 kcal/mol
DOCKED: USER        Moving Ligand-Moving Receptor   =  +0.00 kcal/mol
DOCKED: USER    (2) Final Total Internal Energy     =  -1.50 kcal/mol
DOCKED: USER    (3) Torsional Free Energy           =  +1.49 kcal/mol
DOCKED: USER    (4) Unbound System's Energy         =  -1.50 kcal/mol
DOCKED: USER
DOCKED: USER
DOCKED: REMARK  5 active torsions:
DOCKED: REMARK  status: ('A' for Active; 'I' for Inactive)
DOCKED: REMARK    1  A    between atoms: C_2  and  C_19 
DOCKED: REMARK    2  A    between atoms: C_2  and  C_11 
DOCKED: REMARK    3  A    between atoms: C_19  and  C_20 
DOCKED: REMARK    4  A    between atoms: C_20  and  C_21 
DOCKED: REMARK    5  A    between atoms: C_21  and  N_22 
DOCKED: USER                              x       y       z     vdW  Elec       q    Type
DOCKED: USER                           _______ _______ _______ _____ _____    ______ ____
DOCKED: ROOT
DOCKED: ATOM      1  O   UNL     1     -37.853 -10.629  13.913 -0.04 -0.00    -0.346 OA 
DOCKED: ATOM      2  C   UNL     1     -37.248 -11.961  13.899 -0.21 +0.00    +0.130 C  
DOCKED: ATOM      3  C   UNL     1     -37.702 -12.549  12.595 -0.34 +0.00    +0.004 A  
DOCKED: ATOM      4  C   UNL     1     -38.412 -11.598  11.876 -0.34 +0.00    +0.006 A  
DOCKED: ATOM      5  C   UNL     1     -38.465 -10.330  12.637 -0.22 +0.00    +0.169 C  
DOCKED: ATOM      6  C   UNL     1     -37.494 -13.821  12.081 -0.41 -0.00    -0.001 A  
DOCKED: ATOM      7  C   UNL     1     -38.939 -11.883  10.628 -0.09 +0.00    +0.008 A  
DOCKED: ATOM      8  C   UNL     1     -38.023 -14.125  10.825 -0.44 +0.00    +0.010 A  
DOCKED: ATOM      9  C   UNL     1     -38.742 -13.161  10.103 -0.44 +0.00    +0.068 A  
DOCKED: ATOM     10  N   UNL     1     -39.706 -13.758   7.773 -2.56 -0.00    -0.191 NA 
DOCKED: ATOM     11  C   UNL     1     -39.274 -13.490   8.818 -0.40 +0.00    +0.101 C  
DOCKED: ENDROOT
DOCKED: BRANCH   2  12
DOCKED: ATOM     12  C   UNL     1     -35.734 -11.805  13.984 -0.25 +0.00    +0.038 C  
DOCKED: BRANCH  12  13
DOCKED: ATOM     13  C   UNL     1     -35.341 -10.367  14.317 -0.16 +0.00    +0.038 C  
DOCKED: BRANCH  13  14
DOCKED: ATOM     14  C   UNL     1     -34.725 -10.274  15.712 -0.05 +0.00    +0.251 C  
DOCKED: BRANCH  14  15
DOCKED: ATOM     15  N   UNL     1     -35.597 -10.905  16.694 -0.04 +0.00    +0.141 N  
DOCKED: ATOM     16  C   UNL     1     -34.811 -11.645  17.683 -0.04 +0.00    +0.285 C  
DOCKED: ATOM     17  C   UNL     1     -36.436  -9.905  17.358 -0.01 +0.00    +0.285 C  
DOCKED: ENDBRANCH  14  15
DOCKED: ENDBRANCH  13  14
DOCKED: ENDBRANCH  12  13
DOCKED: ENDBRANCH   2  12
DOCKED: BRANCH   2  18
DOCKED: ATOM     18  C   UNL     1     -37.780 -12.694  15.085 -0.18 +0.00    +0.006 A  
DOCKED: ATOM     19  C   UNL     1     -37.023 -13.703  15.679 -0.07 +0.00    +0.001 A  
DOCKED: ATOM     20  C   UNL     1     -37.522 -14.388  16.787 -0.19 +0.00    +0.029 A  
DOCKED: ATOM     21  C   UNL     1     -38.777 -14.064  17.300 -0.07 +0.00    +0.140 A  
DOCKED: ATOM     22  C   UNL     1     -39.535 -13.055  16.705 -0.12 +0.00    +0.029 A  
DOCKED: ATOM     23  F   UNL     1     -39.256 -14.720  18.365 -0.03 -0.00    -0.204 F  
DOCKED: ATOM     24  C   UNL     1     -39.036 -12.369  15.596 -0.11 +0.00    +0.001 A  
DOCKED: ENDBRANCH   2  18
DOCKED: TORSDOF 5
DOCKED: TER
DOCKED: ENDMDL
________________________________________________________________________________


    FINAL DOCKED STATE:
    ________________________


Run:   71 / 512
Time taken for this run:   0.002s

DOCKED: MODEL        71
DOCKED: USER    Run = 71
DOCKED: USER
DOCKED: USER    Estimated Free Energy of Binding    =  -5.29 kcal/mol  [=(1)+(2)+(3)-(4)]
DOCKED: USER
DOCKED: USER    (1) Final Intermolecular Energy     =  -6.78 kcal/mol
DOCKED: USER        vdW + Hbond + desolv Energy     =  -6.78 kcal/mol
DOCKED: USER        Electrostatic Energy            =  +0.00 kcal/mol
DOCKED: USER        Moving Ligand-Fixed Receptor    =  -6.78 kcal/mol
DOCKED: USER        Moving Ligand-Moving Receptor   =  +0.00 kcal/mol
DOCKED: USER    (2) Final Total Internal Energy     =  -1.38 kcal/mol
DOCKED: USER    (3) Torsional Free Energy           =  +1.49 kcal/mol
DOCKED: USER    (4) Unbound System's Energy         =  -1.38 kcal/mol
DOCKED: USER
DOCKED: USER
DOCKED: REMARK  5 active torsions:
DOCKED: REMARK  status: ('A' for Active; 'I' for Inactive)
DOCKED: REMARK    1  A    between atoms: C_2  and  C_19 
DOCKED: REMARK    2  A    between atoms: C_2  and  C_11 
DOCKED: REMARK    3  A    between atoms: C_19  and  C_20 
DOCKED: REMARK    4  A    between atoms: C_20  and  C_21 
DOCKED: REMARK    5  A    between atoms: C_21  and  N_22 
DOCKED: USER                              x       y       z     vdW  Elec       q    Type
DOCKED: USER                           _______ _______ _______ _____ _____    ______ ____
DOCKED: ROOT
DOCKED: ATOM      1  O   UNL     1     -36.686 -13.251  14.493 -0.10 -0.00    -0.346 OA 
DOCKED: ATOM      2  C   UNL     1     -36.949 -11.882  14.048 -0.21 +0.00    +0.130 C  
DOCKED: ATOM      3  C   UNL     1     -37.522 -12.055  12.671 -0.32 +0.00    +0.004 A  
DOCKED: ATOM      4  C   UNL     1     -37.678 -13.407  12.397 -0.40 +0.00    +0.006 A  
DOCKED: ATOM      5  C   UNL     1     -37.237 -14.209  13.560 -0.20 +0.00    +0.169 C  
DOCKED: ATOM      6  C   UNL     1     -37.888 -11.094  11.741 -0.30 -0.00    -0.001 A  
DOCKED: ATOM      7  C   UNL     1     -38.197 -13.842  11.190 -0.47 +0.00    +0.008 A  
DOCKED: ATOM      8  C   UNL     1     -38.409 -11.517  10.517 +0.04 +0.00    +0.010 A  
DOCKED: ATOM      9  C   UNL     1     -38.563 -12.884  10.243 -0.40 +0.00    +0.068 A  
DOCKED: ATOM     10  N   UNL     1     -39.538 -13.636   7.963 -2.42 -0.00    -0.191 NA 
DOCKED: ATOM     11  C   UNL     1     -39.100 -13.299   8.986 -0.47 +0.00    +0.101 C  
DOCKED: ENDROOT
DOCKED: BRANCH   2  12
DOCKED: ATOM     12  C   UNL     1     -37.927 -11.236  15.022 -0.11 +0.00    +0.038 C  
DOCKED: BRANCH  12  13
DOCKED: ATOM     13  C   UNL     1     -39.244 -12.008  15.081 -0.12 +0.00    +0.038 C  
DOCKED: BRANCH  13  14
DOCKED: ATOM     14  C   UNL     1     -40.430 -11.095  14.773 -0.03 +0.00    +0.251 C  
DOCKED: BRANCH  14  15
DOCKED: ATOM     15  N   UNL     1     -40.419 -10.708  13.367 -0.13 +0.00    +0.141 N  
DOCKED: ATOM     16  C   UNL     1     -41.460 -11.423  12.627 -0.12 +0.00    +0.285 C  
DOCKED: ATOM     17  C   UNL     1     -40.602  -9.262  13.229 -0.14 +0.00    +0.285 C  
DOCKED: ENDBRANCH  14  15
DOCKED: ENDBRANCH  13  14
DOCKED: ENDBRANCH  12  13
DOCKED: ENDBRANCH   2  12
DOCKED: BRANCH   2  18
DOCKED: ATOM     18  C   UNL     1     -35.639 -11.165  14.046 -0.19 +0.00    +0.006 A  
DOCKED: ATOM     19  C   UNL     1     -34.488 -11.817  14.485 -0.19 +0.00    +0.001 A  
DOCKED: ATOM     20  C   UNL     1     -33.264 -11.146  14.483 -0.15 +0.00    +0.029 A  
DOCKED: ATOM     21  C   UNL     1     -33.194  -9.825  14.042 -0.09 +0.00    +0.140 A  
DOCKED: ATOM     22  C   UNL     1     -34.347  -9.174  13.603 -0.11 +0.00    +0.029 A  
DOCKED: ATOM     23  F   UNL     1     -32.020  -9.182  14.039 -0.01 -0.00    -0.204 F  
DOCKED: ATOM     24  C   UNL     1     -35.571  -9.844  13.605 -0.15 +0.00    +0.001 A  
DOCKED: ENDBRANCH   2  18
DOCKED: TORSDOF 5
DOCKED: TER
DOCKED: ENDMDL
________________________________________________________________________________


    FINAL DOCKED STATE:
    ________________________


Run:   72 / 512
Time taken for this run:   0.002s

DOCKED: MODEL        72
DOCKED: USER    Run = 72
DOCKED: USER
DOCKED: USER    Estimated Free Energy of Binding    =  -5.17 kcal/mol  [=(1)+(2)+(3)-(4)]
DOCKED: USER
DOCKED: USER    (1) Final Intermolecular Energy     =  -6.67 kcal/mol
DOCKED: USER        vdW + Hbond + desolv Energy     =  -6.67 kcal/mol
DOCKED: USER        Electrostatic Energy            =  +0.00 kcal/mol
DOCKED: USER        Moving Ligand-Fixed Receptor    =  -6.67 kcal/mol
DOCKED: USER        Moving Ligand-Moving Receptor   =  +0.00 kcal/mol
DOCKED: USER    (2) Final Total Internal Energy     =  -1.18 kcal/mol
DOCKED: USER    (3) Torsional Free Energy           =  +1.49 kcal/mol
DOCKED: USER    (4) Unbound System's Energy         =  -1.18 kcal/mol
DOCKED: USER
DOCKED: USER
DOCKED: REMARK  5 active torsions:
DOCKED: REMARK  status: ('A' for Active; 'I' for Inactive)
DOCKED: REMARK    1  A    between atoms: C_2  and  C_19 
DOCKED: REMARK    2  A    between atoms: C_2  and  C_11 
DOCKED: REMARK    3  A    between atoms: C_19  and  C_20 
DOCKED: REMARK    4  A    between atoms: C_20  and  C_21 
DOCKED: REMARK    5  A    between atoms: C_21  and  N_22 
DOCKED: USER                              x       y       z     vdW  Elec       q    Type
DOCKED: USER                           _______ _______ _______ _____ _____    ______ ____
DOCKED: ROOT
DOCKED: ATOM      1  O   UNL     1     -38.138 -10.614  14.073 -0.03 -0.00    -0.346 OA 
DOCKED: ATOM      2  C   UNL     1     -37.498 -11.930  14.093 -0.18 +0.00    +0.130 C  
DOCKED: ATOM      3  C   UNL     1     -37.859 -12.525  12.762 -0.32 +0.00    +0.004 A  
DOCKED: ATOM      4  C   UNL     1     -38.549 -11.590  12.004 -0.33 +0.00    +0.006 A  
DOCKED: ATOM      5  C   UNL     1     -38.680 -10.326  12.763 -0.21 +0.00    +0.169 C  
DOCKED: ATOM      6  C   UNL     1     -37.587 -13.789  12.259 -0.39 -0.00    -0.001 A  
DOCKED: ATOM      7  C   UNL     1     -38.993 -11.885  10.726 -0.09 +0.00    +0.008 A  
DOCKED: ATOM      8  C   UNL     1     -38.032 -14.103  10.974 -0.46 +0.00    +0.010 A  
DOCKED: ATOM      9  C   UNL     1     -38.731 -13.155  10.211 -0.44 +0.00    +0.068 A  
DOCKED: ATOM     10  N   UNL     1     -39.538 -13.769   7.827 -2.43 -0.00    -0.191 NA 
DOCKED: ATOM     11  C   UNL     1     -39.177 -13.494   8.897 -0.45 +0.00    +0.101 C  
DOCKED: ENDROOT
DOCKED: BRANCH   2  12
DOCKED: ATOM     12  C   UNL     1     -35.997 -11.735  14.269 -0.24 +0.00    +0.038 C  
DOCKED: BRANCH  12  13
DOCKED: ATOM     13  C   UNL     1     -35.681 -10.371  14.880 -0.12 +0.00    +0.038 C  
DOCKED: BRANCH  13  14
DOCKED: ATOM     14  C   UNL     1     -36.092 -10.320  16.350 -0.02 +0.00    +0.251 C  
DOCKED: BRANCH  14  15
DOCKED: ATOM     15  N   UNL     1     -34.975  -9.872  17.174 -0.01 +0.00    +0.141 N  
DOCKED: ATOM     16  C   UNL     1     -35.446  -9.440  18.491 -0.00 +0.00    +0.285 C  
DOCKED: ATOM     17  C   UNL     1     -33.980 -10.936  17.315 -0.03 +0.00    +0.285 C  
DOCKED: ENDBRANCH  14  15
DOCKED: ENDBRANCH  13  14
DOCKED: ENDBRANCH  12  13
DOCKED: ENDBRANCH   2  12
DOCKED: BRANCH   2  18
DOCKED: ATOM     18  C   UNL     1     -38.082 -12.681  15.243 -0.16 +0.00    +0.006 A  
DOCKED: ATOM     19  C   UNL     1     -37.257 -13.450  16.063 -0.21 +0.00    +0.001 A  
DOCKED: ATOM     20  C   UNL     1     -37.804 -14.152  17.138 -0.21 +0.00    +0.029 A  
DOCKED: ATOM     21  C   UNL     1     -39.174 -14.084  17.391 -0.05 +0.00    +0.140 A  
DOCKED: ATOM     22  C   UNL     1     -39.998 -13.314  16.571 -0.13 +0.00    +0.029 A  
DOCKED: ATOM     23  F   UNL     1     -39.698 -14.756  18.424 -0.04 -0.00    -0.204 F  
DOCKED: ATOM     24  C   UNL     1     -39.451 -12.612  15.495 -0.12 +0.00    +0.001 A  
DOCKED: ENDBRANCH   2  18
DOCKED: TORSDOF 5
DOCKED: TER
DOCKED: ENDMDL
________________________________________________________________________________


    FINAL DOCKED STATE:
    ________________________


Run:   73 / 512
Time taken for this run:   0.002s

DOCKED: MODEL        73
DOCKED: USER    Run = 73
DOCKED: USER
DOCKED: USER    Estimated Free Energy of Binding    =  -4.23 kcal/mol  [=(1)+(2)+(3)-(4)]
DOCKED: USER
DOCKED: USER    (1) Final Intermolecular Energy     =  -5.72 kcal/mol
DOCKED: USER        vdW + Hbond + desolv Energy     =  -5.72 kcal/mol
DOCKED: USER        Electrostatic Energy            =  +0.00 kcal/mol
DOCKED: USER        Moving Ligand-Fixed Receptor    =  -5.72 kcal/mol
DOCKED: USER        Moving Ligand-Moving Receptor   =  +0.00 kcal/mol
DOCKED: USER    (2) Final Total Internal Energy     =  -1.24 kcal/mol
DOCKED: USER    (3) Torsional Free Energy           =  +1.49 kcal/mol
DOCKED: USER    (4) Unbound System's Energy         =  -1.24 kcal/mol
DOCKED: USER
DOCKED: USER
DOCKED: REMARK  5 active torsions:
DOCKED: REMARK  status: ('A' for Active; 'I' for Inactive)
DOCKED: REMARK    1  A    between atoms: C_2  and  C_19 
DOCKED: REMARK    2  A    between atoms: C_2  and  C_11 
DOCKED: REMARK    3  A    between atoms: C_19  and  C_20 
DOCKED: REMARK    4  A    between atoms: C_20  and  C_21 
DOCKED: REMARK    5  A    between atoms: C_21  and  N_22 
DOCKED: USER                              x       y       z     vdW  Elec       q    Type
DOCKED: USER                           _______ _______ _______ _____ _____    ______ ____
DOCKED: ROOT
DOCKED: ATOM      1  O   UNL     1     -34.607 -10.527  14.459 -0.08 -0.00    -0.346 OA 
DOCKED: ATOM      2  C   UNL     1     -35.698  -9.654  14.025 -0.12 +0.00    +0.130 C  
DOCKED: ATOM      3  C   UNL     1     -36.671 -10.593  13.370 -0.22 +0.00    +0.004 A  
DOCKED: ATOM      4  C   UNL     1     -36.228 -11.900  13.515 -0.22 +0.00    +0.006 A  
DOCKED: ATOM      5  C   UNL     1     -34.958 -11.919  14.275 -0.15 +0.00    +0.169 C  
DOCKED: ATOM      6  C   UNL     1     -37.858 -10.313  12.710 -0.27 -0.00    -0.001 A  
DOCKED: ATOM      7  C   UNL     1     -36.949 -12.966  13.005 -0.35 +0.00    +0.008 A  
DOCKED: ATOM      8  C   UNL     1     -38.594 -11.376  12.185 -0.31 +0.00    +0.010 A  
DOCKED: ATOM      9  C   UNL     1     -38.142 -12.696  12.333 -0.31 +0.00    +0.068 A  
DOCKED: ATOM     10  N   UNL     1     -39.535 -14.648  11.352 -2.56 -0.00    -0.191 NA 
DOCKED: ATOM     11  C   UNL     1     -38.910 -13.772  11.791 -0.35 +0.00    +0.101 C  
DOCKED: ENDROOT
DOCKED: BRANCH   2  12
DOCKED: ATOM     12  C   UNL     1     -36.278  -8.960  15.251 -0.05 +0.00    +0.038 C  
DOCKED: BRANCH  12  13
DOCKED: ATOM     13  C   UNL     1     -37.226  -9.881  16.017 -0.04 +0.00    +0.038 C  
DOCKED: BRANCH  13  14
DOCKED: ATOM     14  C   UNL     1     -38.177  -9.078  16.902 -0.00 +0.00    +0.251 C  
DOCKED: BRANCH  14  15
DOCKED: ATOM     15  N   UNL     1     -39.481  -8.951  16.262 -0.01 +0.00    +0.141 N  
DOCKED: ATOM     16  C   UNL     1     -39.507  -7.792  15.368 -0.01 +0.00    +0.285 C  
DOCKED: ATOM     17  C   UNL     1     -39.812 -10.170  15.522 -0.01 +0.00    +0.285 C  
DOCKED: ENDBRANCH  14  15
DOCKED: ENDBRANCH  13  14
DOCKED: ENDBRANCH  12  13
DOCKED: ENDBRANCH   2  12
DOCKED: BRANCH   2  18
DOCKED: ATOM     18  C   UNL     1     -35.113  -8.666  13.072 -0.14 +0.00    +0.006 A  
DOCKED: ATOM     19  C   UNL     1     -33.732  -8.599  12.898 -0.11 +0.00    +0.001 A  
DOCKED: ATOM     20  C   UNL     1     -33.186  -7.674  12.007 -0.09 +0.00    +0.029 A  
DOCKED: ATOM     21  C   UNL     1     -34.022  -6.818  11.292 -0.07 +0.00    +0.140 A  
DOCKED: ATOM     22  C   UNL     1     -35.404  -6.885  11.467 -0.11 +0.00    +0.029 A  
DOCKED: ATOM     23  F   UNL     1     -33.498  -5.931  10.436 -0.00 -0.00    -0.204 F  
DOCKED: ATOM     24  C   UNL     1     -35.951  -7.810  12.358 -0.15 +0.00    +0.001 A  
DOCKED: ENDBRANCH   2  18
DOCKED: TORSDOF 5
DOCKED: TER
DOCKED: ENDMDL
________________________________________________________________________________


    FINAL DOCKED STATE:
    ________________________


Run:   74 / 512
Time taken for this run:   0.002s

DOCKED: MODEL        74
DOCKED: USER    Run = 74
DOCKED: USER
DOCKED: USER    Estimated Free Energy of Binding    =  -3.55 kcal/mol  [=(1)+(2)+(3)-(4)]
DOCKED: USER
DOCKED: USER    (1) Final Intermolecular Energy     =  -5.04 kcal/mol
DOCKED: USER        vdW + Hbond + desolv Energy     =  -5.04 kcal/mol
DOCKED: USER        Electrostatic Energy            =  +0.00 kcal/mol
DOCKED: USER        Moving Ligand-Fixed Receptor    =  -5.04 kcal/mol
DOCKED: USER        Moving Ligand-Moving Receptor   =  +0.00 kcal/mol
DOCKED: USER    (2) Final Total Internal Energy     =  -1.51 kcal/mol
DOCKED: USER    (3) Torsional Free Energy           =  +1.49 kcal/mol
DOCKED: USER    (4) Unbound System's Energy         =  -1.51 kcal/mol
DOCKED: USER
DOCKED: USER
DOCKED: REMARK  5 active torsions:
DOCKED: REMARK  status: ('A' for Active; 'I' for Inactive)
DOCKED: REMARK    1  A    between atoms: C_2  and  C_19 
DOCKED: REMARK    2  A    between atoms: C_2  and  C_11 
DOCKED: REMARK    3  A    between atoms: C_19  and  C_20 
DOCKED: REMARK    4  A    between atoms: C_20  and  C_21 
DOCKED: REMARK    5  A    between atoms: C_21  and  N_22 
DOCKED: USER                              x       y       z     vdW  Elec       q    Type
DOCKED: USER                           _______ _______ _______ _____ _____    ______ ____
DOCKED: ROOT
DOCKED: ATOM      1  O   UNL     1     -35.685  -9.190  14.024 -0.05 -0.00    -0.346 OA 
DOCKED: ATOM      2  C   UNL     1     -35.380 -10.399  14.791 -0.11 +0.00    +0.130 C  
DOCKED: ATOM      3  C   UNL     1     -36.246 -11.452  14.163 -0.21 +0.00    +0.004 A  
DOCKED: ATOM      4  C   UNL     1     -36.905 -10.920  13.064 -0.25 +0.00    +0.006 A  
DOCKED: ATOM      5  C   UNL     1     -36.517  -9.503  12.883 -0.19 +0.00    +0.169 C  
DOCKED: ATOM      6  C   UNL     1     -36.428 -12.777  14.529 -0.18 -0.00    -0.001 A  
DOCKED: ATOM      7  C   UNL     1     -37.766 -11.687  12.299 -0.33 +0.00    +0.008 A  
DOCKED: ATOM      8  C   UNL     1     -37.297 -13.564  13.770 -0.33 +0.00    +0.010 A  
DOCKED: ATOM      9  C   UNL     1     -37.962 -13.021  12.661 -0.30 +0.00    +0.068 A  
DOCKED: ATOM     10  N   UNL     1     -39.564 -14.509  11.271 -2.46 -0.00    -0.191 NA 
DOCKED: ATOM     11  C   UNL     1     -38.846 -13.842  11.894 -0.25 +0.00    +0.101 C  
DOCKED: ENDROOT
DOCKED: BRANCH   2  12
DOCKED: ATOM     12  C   UNL     1     -33.891 -10.695  14.653 -0.15 +0.00    +0.038 C  
DOCKED: BRANCH  12  13
DOCKED: ATOM     13  C   UNL     1     -33.092  -9.421  14.385 -0.09 +0.00    +0.038 C  
DOCKED: BRANCH  13  14
DOCKED: ATOM     14  C   UNL     1     -32.561  -8.822  15.686 -0.01 +0.00    +0.251 C  
DOCKED: BRANCH  14  15
DOCKED: ATOM     15  N   UNL     1     -33.604  -8.050  16.352 -0.01 +0.00    +0.141 N  
DOCKED: ATOM     16  C   UNL     1     -33.084  -7.423  17.568 -0.00 +0.00    +0.285 C  
DOCKED: ATOM     17  C   UNL     1     -34.149  -7.034  15.450 -0.00 +0.00    +0.285 C  
DOCKED: ENDBRANCH  14  15
DOCKED: ENDBRANCH  13  14
DOCKED: ENDBRANCH  12  13
DOCKED: ENDBRANCH   2  12
DOCKED: BRANCH   2  18
DOCKED: ATOM     18  C   UNL     1     -35.743 -10.117  16.211 -0.04 +0.00    +0.006 A  
DOCKED: ATOM     19  C   UNL     1     -34.965 -10.636  17.245 -0.04 +0.00    +0.001 A  
DOCKED: ATOM     20  C   UNL     1     -35.306 -10.372  18.572 -0.01 +0.00    +0.029 A  
DOCKED: ATOM     21  C   UNL     1     -36.423  -9.591  18.863 -0.00 +0.00    +0.140 A  
DOCKED: ATOM     22  C   UNL     1     -37.201  -9.072  17.828 -0.00 +0.00    +0.029 A  
DOCKED: ATOM     23  F   UNL     1     -36.749  -9.336  20.137 +0.00 -0.00    -0.204 F  
DOCKED: ATOM     24  C   UNL     1     -36.861  -9.336  16.500 -0.02 +0.00    +0.001 A  
DOCKED: ENDBRANCH   2  18
DOCKED: TORSDOF 5
DOCKED: TER
DOCKED: ENDMDL
________________________________________________________________________________


    FINAL DOCKED STATE:
    ________________________


Run:   75 / 512
Time taken for this run:   0.002s

DOCKED: MODEL        75
DOCKED: USER    Run = 75
DOCKED: USER
DOCKED: USER    Estimated Free Energy of Binding    =  -3.98 kcal/mol  [=(1)+(2)+(3)-(4)]
DOCKED: USER
DOCKED: USER    (1) Final Intermolecular Energy     =  -5.47 kcal/mol
DOCKED: USER        vdW + Hbond + desolv Energy     =  -5.47 kcal/mol
DOCKED: USER        Electrostatic Energy            =  +0.00 kcal/mol
DOCKED: USER        Moving Ligand-Fixed Receptor    =  -5.47 kcal/mol
DOCKED: USER        Moving Ligand-Moving Receptor   =  +0.00 kcal/mol
DOCKED: USER    (2) Final Total Internal Energy     =  -1.31 kcal/mol
DOCKED: USER    (3) Torsional Free Energy           =  +1.49 kcal/mol
DOCKED: USER    (4) Unbound System's Energy         =  -1.31 kcal/mol
DOCKED: USER
DOCKED: USER
DOCKED: REMARK  5 active torsions:
DOCKED: REMARK  status: ('A' for Active; 'I' for Inactive)
DOCKED: REMARK    1  A    between atoms: C_2  and  C_19 
DOCKED: REMARK    2  A    between atoms: C_2  and  C_11 
DOCKED: REMARK    3  A    between atoms: C_19  and  C_20 
DOCKED: REMARK    4  A    between atoms: C_20  and  C_21 
DOCKED: REMARK    5  A    between atoms: C_21  and  N_22 
DOCKED: USER                              x       y       z     vdW  Elec       q    Type
DOCKED: USER                           _______ _______ _______ _____ _____    ______ ____
DOCKED: ROOT
DOCKED: ATOM      1  O   UNL     1     -28.983 -12.106   4.543 +0.00 -0.00    -0.346 OA 
DOCKED: ATOM      2  C   UNL     1     -29.655 -11.063   5.319 -0.07 +0.00    +0.130 C  
DOCKED: ATOM      3  C   UNL     1     -30.281 -11.811   6.460 -0.11 +0.00    +0.004 A  
DOCKED: ATOM      4  C   UNL     1     -29.908 -13.147   6.403 -0.12 +0.00    +0.006 A  
DOCKED: ATOM      5  C   UNL     1     -29.013 -13.370   5.246 -0.06 +0.00    +0.169 C  
DOCKED: ATOM      6  C   UNL     1     -31.105 -11.345   7.474 -0.17 -0.00    -0.001 A  
DOCKED: ATOM      7  C   UNL     1     -30.347 -14.058   7.349 -0.22 +0.00    +0.008 A  
DOCKED: ATOM      8  C   UNL     1     -31.559 -12.252   8.432 -0.28 +0.00    +0.010 A  
DOCKED: ATOM      9  C   UNL     1     -31.181 -13.602   8.370 -0.29 +0.00    +0.068 A  
DOCKED: ATOM     10  N   UNL     1     -32.038 -15.259  10.169 -2.66 -0.00    -0.191 NA 
DOCKED: ATOM     11  C   UNL     1     -31.654 -14.516   9.362 -0.41 +0.00    +0.101 C  
DOCKED: ENDROOT
DOCKED: BRANCH   2  12
DOCKED: ATOM     12  C   UNL     1     -28.609 -10.052   5.775 -0.01 +0.00    +0.038 C  
DOCKED: BRANCH  12  13
DOCKED: ATOM     13  C   UNL     1     -27.200 -10.635   5.696 -0.01 +0.00    +0.038 C  
DOCKED: BRANCH  13  14
DOCKED: ATOM     14  C   UNL     1     -26.637 -10.523   4.280 +0.00 +0.00    +0.251 C  
DOCKED: BRANCH  14  15
DOCKED: ATOM     15  N   UNL     1     -27.240  -9.393   3.583 -0.00 +0.00    +0.141 N  
DOCKED: ATOM     16  C   UNL     1     -26.630  -8.135   4.013 +0.00 +0.00    +0.285 C  
DOCKED: ATOM     17  C   UNL     1     -27.108  -9.552   2.133 +0.00 +0.00    +0.285 C  
DOCKED: ENDBRANCH  14  15
DOCKED: ENDBRANCH  13  14
DOCKED: ENDBRANCH  12  13
DOCKED: ENDBRANCH   2  12
DOCKED: BRANCH   2  18
DOCKED: ATOM     18  C   UNL     1     -30.661 -10.429   4.418 -0.12 +0.00    +0.006 A  
DOCKED: ATOM     19  C   UNL     1     -31.445  -9.374   4.883 -0.14 +0.00    +0.001 A  
DOCKED: ATOM     20  C   UNL     1     -32.386  -8.781   4.039 -0.20 +0.00    +0.029 A  
DOCKED: ATOM     21  C   UNL     1     -32.540  -9.244   2.733 -0.16 +0.00    +0.140 A  
DOCKED: ATOM     22  C   UNL     1     -31.755 -10.299   2.269 -0.16 +0.00    +0.029 A  
DOCKED: ATOM     23  F   UNL     1     -33.442  -8.674   1.923 -0.14 -0.00    -0.204 F  
DOCKED: ATOM     24  C   UNL     1     -30.815 -10.893   3.112 -0.13 +0.00    +0.001 A  
DOCKED: ENDBRANCH   2  18
DOCKED: TORSDOF 5
DOCKED: TER
DOCKED: ENDMDL
________________________________________________________________________________


    FINAL DOCKED STATE:
    ________________________


Run:   76 / 512
Time taken for this run:   0.002s

DOCKED: MODEL        76
DOCKED: USER    Run = 76
DOCKED: USER
DOCKED: USER    Estimated Free Energy of Binding    =  -4.15 kcal/mol  [=(1)+(2)+(3)-(4)]
DOCKED: USER
DOCKED: USER    (1) Final Intermolecular Energy     =  -5.64 kcal/mol
DOCKED: USER        vdW + Hbond + desolv Energy     =  -5.64 kcal/mol
DOCKED: USER        Electrostatic Energy            =  +0.00 kcal/mol
DOCKED: USER        Moving Ligand-Fixed Receptor    =  -5.64 kcal/mol
DOCKED: USER        Moving Ligand-Moving Receptor   =  +0.00 kcal/mol
DOCKED: USER    (2) Final Total Internal Energy     =  -1.24 kcal/mol
DOCKED: USER    (3) Torsional Free Energy           =  +1.49 kcal/mol
DOCKED: USER    (4) Unbound System's Energy         =  -1.24 kcal/mol
DOCKED: USER
DOCKED: USER
DOCKED: REMARK  5 active torsions:
DOCKED: REMARK  status: ('A' for Active; 'I' for Inactive)
DOCKED: REMARK    1  A    between atoms: C_2  and  C_19 
DOCKED: REMARK    2  A    between atoms: C_2  and  C_11 
DOCKED: REMARK    3  A    between atoms: C_19  and  C_20 
DOCKED: REMARK    4  A    between atoms: C_20  and  C_21 
DOCKED: REMARK    5  A    between atoms: C_21  and  N_22 
DOCKED: USER                              x       y       z     vdW  Elec       q    Type
DOCKED: USER                           _______ _______ _______ _____ _____    ______ ____
DOCKED: ROOT
DOCKED: ATOM      1  O   UNL     1     -40.192  -7.799  13.680 -0.05 -0.00    -0.346 OA 
DOCKED: ATOM      2  C   UNL     1     -38.826  -7.953  13.176 -0.17 +0.00    +0.130 C  
DOCKED: ATOM      3  C   UNL     1     -38.767  -9.386  12.730 -0.22 +0.00    +0.004 A  
DOCKED: ATOM      4  C   UNL     1     -40.020  -9.968  12.864 -0.22 +0.00    +0.006 A  
DOCKED: ATOM      5  C   UNL     1     -40.983  -8.973  13.387 -0.17 +0.00    +0.169 C  
DOCKED: ATOM      6  C   UNL     1     -37.694 -10.112  12.236 -0.25 -0.00    -0.001 A  
DOCKED: ATOM      7  C   UNL     1     -40.242 -11.289  12.514 -0.23 +0.00    +0.008 A  
DOCKED: ATOM      8  C   UNL     1     -37.900 -11.447  11.882 -0.33 +0.00    +0.010 A  
DOCKED: ATOM      9  C   UNL     1     -39.168 -12.032  12.020 -0.26 +0.00    +0.068 A  
DOCKED: ATOM     10  N   UNL     1     -39.518 -14.510  11.351 -2.56 -0.00    -0.191 NA 
DOCKED: ATOM     11  C   UNL     1     -39.361 -13.399  11.652 -0.37 +0.00    +0.101 C  
DOCKED: ENDROOT
DOCKED: BRANCH   2  12
DOCKED: ATOM     12  C   UNL     1     -38.618  -6.967  12.033 -0.13 +0.00    +0.038 C  
DOCKED: BRANCH  12  13
DOCKED: ATOM     13  C   UNL     1     -39.215  -5.600  12.362 -0.16 +0.00    +0.038 C  
DOCKED: BRANCH  13  14
DOCKED: ATOM     14  C   UNL     1     -40.251  -5.187  11.318 -0.09 +0.00    +0.251 C  
DOCKED: BRANCH  14  15
DOCKED: ATOM     15  N   UNL     1     -41.574  -5.098  11.924 -0.13 +0.00    +0.141 N  
DOCKED: ATOM     16  C   UNL     1     -41.482  -4.580  13.290 -0.02 +0.00    +0.285 C  
DOCKED: ATOM     17  C   UNL     1     -42.454  -4.250  11.118 -0.12 +0.00    +0.285 C  
DOCKED: ENDBRANCH  14  15
DOCKED: ENDBRANCH  13  14
DOCKED: ENDBRANCH  12  13
DOCKED: ENDBRANCH   2  12
DOCKED: BRANCH   2  18
DOCKED: ATOM     18  C   UNL     1     -37.906  -7.660  14.314 -0.06 +0.00    +0.006 A  
DOCKED: ATOM     19  C   UNL     1     -38.418  -7.499  15.601 -0.02 +0.00    +0.001 A  
DOCKED: ATOM     20  C   UNL     1     -37.557  -7.225  16.664 -0.00 +0.00    +0.029 A  
DOCKED: ATOM     21  C   UNL     1     -36.186  -7.113  16.439 -0.00 +0.00    +0.140 A  
DOCKED: ATOM     22  C   UNL     1     -35.674  -7.274  15.152 -0.02 +0.00    +0.029 A  
DOCKED: ATOM     23  F   UNL     1     -35.359  -6.851  17.460 -0.00 -0.00    -0.204 F  
DOCKED: ATOM     24  C   UNL     1     -36.535  -7.548  14.087 -0.06 +0.00    +0.001 A  
DOCKED: ENDBRANCH   2  18
DOCKED: TORSDOF 5
DOCKED: TER
DOCKED: ENDMDL
________________________________________________________________________________


    FINAL DOCKED STATE:
    ________________________


Run:   77 / 512
Time taken for this run:   0.002s

DOCKED: MODEL        77
DOCKED: USER    Run = 77
DOCKED: USER
DOCKED: USER    Estimated Free Energy of Binding    =  -3.90 kcal/mol  [=(1)+(2)+(3)-(4)]
DOCKED: USER
DOCKED: USER    (1) Final Intermolecular Energy     =  -5.39 kcal/mol
DOCKED: USER        vdW + Hbond + desolv Energy     =  -5.39 kcal/mol
DOCKED: USER        Electrostatic Energy            =  +0.00 kcal/mol
DOCKED: USER        Moving Ligand-Fixed Receptor    =  -5.39 kcal/mol
DOCKED: USER        Moving Ligand-Moving Receptor   =  +0.00 kcal/mol
DOCKED: USER    (2) Final Total Internal Energy     =  -1.27 kcal/mol
DOCKED: USER    (3) Torsional Free Energy           =  +1.49 kcal/mol
DOCKED: USER    (4) Unbound System's Energy         =  -1.27 kcal/mol
DOCKED: USER
DOCKED: USER
DOCKED: REMARK  5 active torsions:
DOCKED: REMARK  status: ('A' for Active; 'I' for Inactive)
DOCKED: REMARK    1  A    between atoms: C_2  and  C_19 
DOCKED: REMARK    2  A    between atoms: C_2  and  C_11 
DOCKED: REMARK    3  A    between atoms: C_19  and  C_20 
DOCKED: REMARK    4  A    between atoms: C_20  and  C_21 
DOCKED: REMARK    5  A    between atoms: C_21  and  N_22 
DOCKED: USER                              x       y       z     vdW  Elec       q    Type
DOCKED: USER                           _______ _______ _______ _____ _____    ______ ____
DOCKED: ROOT
DOCKED: ATOM      1  O   UNL     1     -39.259  -8.077  13.672 -0.05 -0.00    -0.346 OA 
DOCKED: ATOM      2  C   UNL     1     -37.886  -8.487  13.373 -0.15 +0.00    +0.130 C  
DOCKED: ATOM      3  C   UNL     1     -38.027  -9.909  12.915 -0.24 +0.00    +0.004 A  
DOCKED: ATOM      4  C   UNL     1     -39.371 -10.249  12.851 -0.23 +0.00    +0.006 A  
DOCKED: ATOM      5  C   UNL     1     -40.201  -9.088  13.244 -0.18 +0.00    +0.169 C  
DOCKED: ATOM      6  C   UNL     1     -37.044 -10.826  12.571 -0.23 -0.00    -0.001 A  
DOCKED: ATOM      7  C   UNL     1     -39.777 -11.509  12.448 -0.25 +0.00    +0.008 A  
DOCKED: ATOM      8  C   UNL     1     -37.438 -12.103  12.167 -0.31 +0.00    +0.010 A  
DOCKED: ATOM      9  C   UNL     1     -38.798 -12.443  12.105 -0.28 +0.00    +0.068 A  
DOCKED: ATOM     10  N   UNL     1     -39.494 -14.820  11.346 -2.55 -0.00    -0.191 NA 
DOCKED: ATOM     11  C   UNL     1     -39.182 -13.754  11.687 -0.37 +0.00    +0.101 C  
DOCKED: ENDROOT
DOCKED: BRANCH   2  12
DOCKED: ATOM     12  C   UNL     1     -37.333  -7.567  12.291 -0.10 +0.00    +0.038 C  
DOCKED: BRANCH  12  13
DOCKED: ATOM     13  C   UNL     1     -38.230  -6.348  12.084 -0.17 +0.00    +0.038 C  
DOCKED: BRANCH  13  14
DOCKED: ATOM     14  C   UNL     1     -37.432  -5.163  11.544 -0.09 +0.00    +0.251 C  
DOCKED: BRANCH  14  15
DOCKED: ATOM     15  N   UNL     1     -36.748  -4.474  12.632 -0.03 +0.00    +0.141 N  
DOCKED: ATOM     16  C   UNL     1     -37.462  -4.667  13.894 -0.01 +0.00    +0.285 C  
DOCKED: ATOM     17  C   UNL     1     -35.367  -4.945  12.753 -0.01 +0.00    +0.285 C  
DOCKED: ENDBRANCH  14  15
DOCKED: ENDBRANCH  13  14
DOCKED: ENDBRANCH  12  13
DOCKED: ENDBRANCH   2  12
DOCKED: BRANCH   2  18
DOCKED: ATOM     18  C   UNL     1     -37.107  -8.358  14.639 -0.05 +0.00    +0.006 A  
DOCKED: ATOM     19  C   UNL     1     -37.698  -8.692  15.858 -0.02 +0.00    +0.001 A  
DOCKED: ATOM     20  C   UNL     1     -36.968  -8.571  17.041 -0.00 +0.00    +0.029 A  
DOCKED: ATOM     21  C   UNL     1     -35.651  -8.117  17.005 -0.00 +0.00    +0.140 A  
DOCKED: ATOM     22  C   UNL     1     -35.061  -7.783  15.786 -0.01 +0.00    +0.029 A  
DOCKED: ATOM     23  F   UNL     1     -34.950  -8.002  18.140 -0.00 -0.00    -0.204 F  
DOCKED: ATOM     24  C   UNL     1     -35.790  -7.903  14.601 -0.04 +0.00    +0.001 A  
DOCKED: ENDBRANCH   2  18
DOCKED: TORSDOF 5
DOCKED: TER
DOCKED: ENDMDL
________________________________________________________________________________


    FINAL DOCKED STATE:
    ________________________


Run:   78 / 512
Time taken for this run:   0.002s

DOCKED: MODEL        78
DOCKED: USER    Run = 78
DOCKED: USER
DOCKED: USER    Estimated Free Energy of Binding    =  -4.36 kcal/mol  [=(1)+(2)+(3)-(4)]
DOCKED: USER
DOCKED: USER    (1) Final Intermolecular Energy     =  -5.85 kcal/mol
DOCKED: USER        vdW + Hbond + desolv Energy     =  -5.85 kcal/mol
DOCKED: USER        Electrostatic Energy            =  +0.00 kcal/mol
DOCKED: USER        Moving Ligand-Fixed Receptor    =  -5.85 kcal/mol
DOCKED: USER        Moving Ligand-Moving Receptor   =  +0.00 kcal/mol
DOCKED: USER    (2) Final Total Internal Energy     =  -1.05 kcal/mol
DOCKED: USER    (3) Torsional Free Energy           =  +1.49 kcal/mol
DOCKED: USER    (4) Unbound System's Energy         =  -1.05 kcal/mol
DOCKED: USER
DOCKED: USER
DOCKED: REMARK  5 active torsions:
DOCKED: REMARK  status: ('A' for Active; 'I' for Inactive)
DOCKED: REMARK    1  A    between atoms: C_2  and  C_19 
DOCKED: REMARK    2  A    between atoms: C_2  and  C_11 
DOCKED: REMARK    3  A    between atoms: C_19  and  C_20 
DOCKED: REMARK    4  A    between atoms: C_20  and  C_21 
DOCKED: REMARK    5  A    between atoms: C_21  and  N_22 
DOCKED: USER                              x       y       z     vdW  Elec       q    Type
DOCKED: USER                           _______ _______ _______ _____ _____    ______ ____
DOCKED: ROOT
DOCKED: ATOM      1  O   UNL     1     -42.092  -8.719  13.425 -0.08 -0.00    -0.346 OA 
DOCKED: ATOM      2  C   UNL     1     -40.639  -8.544  13.445 -0.18 +0.00    +0.130 C  
DOCKED: ATOM      3  C   UNL     1     -40.110  -9.882  13.016 -0.22 +0.00    +0.004 A  
DOCKED: ATOM      4  C   UNL     1     -41.167 -10.714  12.674 -0.20 +0.00    +0.006 A  
DOCKED: ATOM      5  C   UNL     1     -42.448  -9.992  12.838 -0.23 +0.00    +0.169 C  
DOCKED: ATOM      6  C   UNL     1     -38.798 -10.323  12.924 -0.24 -0.00    -0.001 A  
DOCKED: ATOM      7  C   UNL     1     -40.951 -12.009  12.235 -0.26 +0.00    +0.008 A  
DOCKED: ATOM      8  C   UNL     1     -38.564 -11.629  12.488 -0.29 +0.00    +0.010 A  
DOCKED: ATOM      9  C   UNL     1     -39.636 -12.467  12.145 -0.24 +0.00    +0.068 A  
DOCKED: ATOM     10  N   UNL     1     -39.167 -14.883  11.334 -2.61 -0.00    -0.191 NA 
DOCKED: ATOM     11  C   UNL     1     -39.377 -13.799  11.698 -0.35 +0.00    +0.101 C  
DOCKED: ENDROOT
DOCKED: BRANCH   2  12
DOCKED: ATOM     12  C   UNL     1     -40.275  -7.424  12.478 -0.24 +0.00    +0.038 C  
DOCKED: BRANCH  12  13
DOCKED: ATOM     13  C   UNL     1     -40.695  -6.060  13.023 -0.15 +0.00    +0.038 C  
DOCKED: BRANCH  13  14
DOCKED: ATOM     14  C   UNL     1     -40.341  -4.944  12.041 -0.09 +0.00    +0.251 C  
DOCKED: BRANCH  14  15
DOCKED: ATOM     15  N   UNL     1     -39.204  -5.335  11.217 -0.15 +0.00    +0.141 N  
DOCKED: ATOM     16  C   UNL     1     -39.199  -4.590   9.957 -0.10 +0.00    +0.285 C  
DOCKED: ATOM     17  C   UNL     1     -37.947  -5.123  11.937 -0.08 +0.00    +0.285 C  
DOCKED: ENDBRANCH  14  15
DOCKED: ENDBRANCH  13  14
DOCKED: ENDBRANCH  12  13
DOCKED: ENDBRANCH   2  12
DOCKED: BRANCH   2  18
DOCKED: ATOM     18  C   UNL     1     -40.261  -8.191  14.845 -0.06 +0.00    +0.006 A  
DOCKED: ATOM     19  C   UNL     1     -41.230  -8.185  15.848 -0.03 +0.00    +0.001 A  
DOCKED: ATOM     20  C   UNL     1     -40.876  -7.854  17.156 -0.01 +0.00    +0.029 A  
DOCKED: ATOM     21  C   UNL     1     -39.554  -7.532  17.460 -0.00 +0.00    +0.140 A  
DOCKED: ATOM     22  C   UNL     1     -38.585  -7.539  16.457 -0.01 +0.00    +0.029 A  
DOCKED: ATOM     23  F   UNL     1     -39.213  -7.216  18.717 +0.00 -0.00    -0.204 F  
DOCKED: ATOM     24  C   UNL     1     -38.939  -7.868  15.147 -0.04 +0.00    +0.001 A  
DOCKED: ENDBRANCH   2  18
DOCKED: TORSDOF 5
DOCKED: TER
DOCKED: ENDMDL
________________________________________________________________________________


    FINAL DOCKED STATE:
    ________________________


Run:   79 / 512
Time taken for this run:   0.002s

DOCKED: MODEL        79
DOCKED: USER    Run = 79
DOCKED: USER
DOCKED: USER    Estimated Free Energy of Binding    =  -4.18 kcal/mol  [=(1)+(2)+(3)-(4)]
DOCKED: USER
DOCKED: USER    (1) Final Intermolecular Energy     =  -5.67 kcal/mol
DOCKED: USER        vdW + Hbond + desolv Energy     =  -5.67 kcal/mol
DOCKED: USER        Electrostatic Energy            =  +0.00 kcal/mol
DOCKED: USER        Moving Ligand-Fixed Receptor    =  -5.67 kcal/mol
DOCKED: USER        Moving Ligand-Moving Receptor   =  +0.00 kcal/mol
DOCKED: USER    (2) Final Total Internal Energy     =  -1.04 kcal/mol
DOCKED: USER    (3) Torsional Free Energy           =  +1.49 kcal/mol
DOCKED: USER    (4) Unbound System's Energy         =  -1.04 kcal/mol
DOCKED: USER
DOCKED: USER
DOCKED: REMARK  5 active torsions:
DOCKED: REMARK  status: ('A' for Active; 'I' for Inactive)
DOCKED: REMARK    1  A    between atoms: C_2  and  C_19 
DOCKED: REMARK    2  A    between atoms: C_2  and  C_11 
DOCKED: REMARK    3  A    between atoms: C_19  and  C_20 
DOCKED: REMARK    4  A    between atoms: C_20  and  C_21 
DOCKED: REMARK    5  A    between atoms: C_21  and  N_22 
DOCKED: USER                              x       y       z     vdW  Elec       q    Type
DOCKED: USER                           _______ _______ _______ _____ _____    ______ ____
DOCKED: ROOT
DOCKED: ATOM      1  O   UNL     1     -35.203  -9.834  14.443 -0.05 -0.00    -0.346 OA 
DOCKED: ATOM      2  C   UNL     1     -36.383  -9.179  13.878 -0.12 +0.00    +0.130 C  
DOCKED: ATOM      3  C   UNL     1     -37.140 -10.301  13.228 -0.22 +0.00    +0.004 A  
DOCKED: ATOM      4  C   UNL     1     -36.507 -11.507  13.493 -0.24 +0.00    +0.006 A  
DOCKED: ATOM      5  C   UNL     1     -35.313 -11.272  14.335 -0.16 +0.00    +0.169 C  
DOCKED: ATOM      6  C   UNL     1     -38.303 -10.259  12.472 -0.27 -0.00    -0.001 A  
DOCKED: ATOM      7  C   UNL     1     -37.008 -12.704  13.012 -0.33 +0.00    +0.008 A  
DOCKED: ATOM      8  C   UNL     1     -38.818 -11.458  11.976 -0.30 +0.00    +0.010 A  
DOCKED: ATOM      9  C   UNL     1     -38.173 -12.674  12.245 -0.31 +0.00    +0.068 A  
DOCKED: ATOM     10  N   UNL     1     -39.158 -14.882  11.313 -2.60 -0.00    -0.191 NA 
DOCKED: ATOM     11  C   UNL     1     -38.716 -13.892  11.731 -0.30 +0.00    +0.101 C  
DOCKED: ENDROOT
DOCKED: BRANCH   2  12
DOCKED: ATOM     12  C   UNL     1     -37.159  -8.518  15.011 -0.05 +0.00    +0.038 C  
DOCKED: BRANCH  12  13
DOCKED: ATOM     13  C   UNL     1     -36.230  -8.088  16.145 -0.02 +0.00    +0.038 C  
DOCKED: BRANCH  13  14
DOCKED: ATOM     14  C   UNL     1     -37.026  -7.674  17.381 -0.00 +0.00    +0.251 C  
DOCKED: BRANCH  14  15
DOCKED: ATOM     15  N   UNL     1     -36.154  -7.020  18.350 +0.00 +0.00    +0.141 N  
DOCKED: ATOM     16  C   UNL     1     -34.820  -7.621  18.331 -0.00 +0.00    +0.285 C  
DOCKED: ATOM     17  C   UNL     1     -36.068  -5.584  18.081 +0.00 +0.00    +0.285 C  
DOCKED: ENDBRANCH  14  15
DOCKED: ENDBRANCH  13  14
DOCKED: ENDBRANCH  12  13
DOCKED: ENDBRANCH   2  12
DOCKED: BRANCH   2  18
DOCKED: ATOM     18  C   UNL     1     -35.892  -8.165  12.899 -0.15 +0.00    +0.006 A  
DOCKED: ATOM     19  C   UNL     1     -34.780  -8.444  12.105 -0.14 +0.00    +0.001 A  
DOCKED: ATOM     20  C   UNL     1     -34.322  -7.495  11.191 -0.13 +0.00    +0.029 A  
DOCKED: ATOM     21  C   UNL     1     -34.976  -6.270  11.071 -0.07 +0.00    +0.140 A  
DOCKED: ATOM     22  C   UNL     1     -36.088  -5.991  11.864 -0.09 +0.00    +0.029 A  
DOCKED: ATOM     23  F   UNL     1     -34.537  -5.360  10.191 -0.01 -0.00    -0.204 F  
DOCKED: ATOM     24  C   UNL     1     -36.547  -6.940  12.780 -0.11 +0.00    +0.001 A  
DOCKED: ENDBRANCH   2  18
DOCKED: TORSDOF 5
DOCKED: TER
DOCKED: ENDMDL
________________________________________________________________________________


    FINAL DOCKED STATE:
    ________________________


Run:   80 / 512
Time taken for this run:   0.002s

DOCKED: MODEL        80
DOCKED: USER    Run = 80
DOCKED: USER
DOCKED: USER    Estimated Free Energy of Binding    =  -6.02 kcal/mol  [=(1)+(2)+(3)-(4)]
DOCKED: USER
DOCKED: USER    (1) Final Intermolecular Energy     =  -7.51 kcal/mol
DOCKED: USER        vdW + Hbond + desolv Energy     =  -7.51 kcal/mol
DOCKED: USER        Electrostatic Energy            =  +0.00 kcal/mol
DOCKED: USER        Moving Ligand-Fixed Receptor    =  -7.51 kcal/mol
DOCKED: USER        Moving Ligand-Moving Receptor   =  +0.00 kcal/mol
DOCKED: USER    (2) Final Total Internal Energy     =  -1.01 kcal/mol
DOCKED: USER    (3) Torsional Free Energy           =  +1.49 kcal/mol
DOCKED: USER    (4) Unbound System's Energy         =  -1.01 kcal/mol
DOCKED: USER
DOCKED: USER
DOCKED: REMARK  5 active torsions:
DOCKED: REMARK  status: ('A' for Active; 'I' for Inactive)
DOCKED: REMARK    1  A    between atoms: C_2  and  C_19 
DOCKED: REMARK    2  A    between atoms: C_2  and  C_11 
DOCKED: REMARK    3  A    between atoms: C_19  and  C_20 
DOCKED: REMARK    4  A    between atoms: C_20  and  C_21 
DOCKED: REMARK    5  A    between atoms: C_21  and  N_22 
DOCKED: USER                              x       y       z     vdW  Elec       q    Type
DOCKED: USER                           _______ _______ _______ _____ _____    ______ ____
DOCKED: ROOT
DOCKED: ATOM      1  O   UNL     1     -37.551 -10.724  14.054 -0.04 -0.00    -0.346 OA 
DOCKED: ATOM      2  C   UNL     1     -37.293 -12.164  14.002 -0.21 +0.00    +0.130 C  
DOCKED: ATOM      3  C   UNL     1     -37.754 -12.563  12.630 -0.34 +0.00    +0.004 A  
DOCKED: ATOM      4  C   UNL     1     -38.138 -11.435  11.920 -0.34 +0.00    +0.006 A  
DOCKED: ATOM      5  C   UNL     1     -37.949 -10.227  12.755 -0.22 +0.00    +0.169 C  
DOCKED: ATOM      6  C   UNL     1     -37.818 -13.823  12.053 -0.35 -0.00    -0.001 A  
DOCKED: ATOM      7  C   UNL     1     -38.601 -11.525  10.618 +0.16 +0.00    +0.008 A  
DOCKED: ATOM      8  C   UNL     1     -38.286 -13.931  10.742 -0.48 +0.00    +0.010 A  
DOCKED: ATOM      9  C   UNL     1     -38.675 -12.788  10.029 -0.41 +0.00    +0.068 A  
DOCKED: ATOM     10  N   UNL     1     -39.534 -13.024   7.596 -3.17 -0.00    -0.191 NA 
DOCKED: ATOM     11  C   UNL     1     -39.150 -12.918   8.687 -0.43 +0.00    +0.101 C  
DOCKED: ENDROOT
DOCKED: BRANCH   2  12
DOCKED: ATOM     12  C   UNL     1     -35.802 -12.395  14.218 -0.23 +0.00    +0.038 C  
DOCKED: BRANCH  12  13
DOCKED: ATOM     13  C   UNL     1     -35.066 -11.081  14.472 -0.19 +0.00    +0.038 C  
DOCKED: BRANCH  13  14
DOCKED: ATOM     14  C   UNL     1     -34.218 -11.164  15.740 -0.08 +0.00    +0.251 C  
DOCKED: BRANCH  14  15
DOCKED: ATOM     15  N   UNL     1     -33.231 -12.231  15.622 -0.11 +0.00    +0.141 N  
DOCKED: ATOM     16  C   UNL     1     -32.666 -12.264  14.272 -0.11 +0.00    +0.285 C  
DOCKED: ATOM     17  C   UNL     1     -32.168 -12.062  16.613 -0.05 +0.00    +0.285 C  
DOCKED: ENDBRANCH  14  15
DOCKED: ENDBRANCH  13  14
DOCKED: ENDBRANCH  12  13
DOCKED: ENDBRANCH   2  12
DOCKED: BRANCH   2  18
DOCKED: ATOM     18  C   UNL     1     -38.098 -12.791  15.091 -0.18 +0.00    +0.006 A  
DOCKED: ATOM     19  C   UNL     1     -37.459 -13.484  16.119 -0.21 +0.00    +0.001 A  
DOCKED: ATOM     20  C   UNL     1     -38.213 -14.070  17.136 -0.17 +0.00    +0.029 A  
DOCKED: ATOM     21  C   UNL     1     -39.603 -13.961  17.126 -0.05 +0.00    +0.140 A  
DOCKED: ATOM     22  C   UNL     1     -40.241 -13.267  16.098 -0.13 +0.00    +0.029 A  
DOCKED: ATOM     23  F   UNL     1     -40.326 -14.522  18.104 -0.03 -0.00    -0.204 F  
DOCKED: ATOM     24  C   UNL     1     -39.488 -12.682  15.079 -0.14 +0.00    +0.001 A  
DOCKED: ENDBRANCH   2  18
DOCKED: TORSDOF 5
DOCKED: TER
DOCKED: ENDMDL
________________________________________________________________________________


    FINAL DOCKED STATE:
    ________________________


Run:   81 / 512
Time taken for this run:   0.002s

DOCKED: MODEL        81
DOCKED: USER    Run = 81
DOCKED: USER
DOCKED: USER    Estimated Free Energy of Binding    =  -4.19 kcal/mol  [=(1)+(2)+(3)-(4)]
DOCKED: USER
DOCKED: USER    (1) Final Intermolecular Energy     =  -5.68 kcal/mol
DOCKED: USER        vdW + Hbond + desolv Energy     =  -5.68 kcal/mol
DOCKED: USER        Electrostatic Energy            =  +0.00 kcal/mol
DOCKED: USER        Moving Ligand-Fixed Receptor    =  -5.68 kcal/mol
DOCKED: USER        Moving Ligand-Moving Receptor   =  +0.00 kcal/mol
DOCKED: USER    (2) Final Total Internal Energy     =  -1.20 kcal/mol
DOCKED: USER    (3) Torsional Free Energy           =  +1.49 kcal/mol
DOCKED: USER    (4) Unbound System's Energy         =  -1.20 kcal/mol
DOCKED: USER
DOCKED: USER
DOCKED: REMARK  5 active torsions:
DOCKED: REMARK  status: ('A' for Active; 'I' for Inactive)
DOCKED: REMARK    1  A    between atoms: C_2  and  C_19 
DOCKED: REMARK    2  A    between atoms: C_2  and  C_11 
DOCKED: REMARK    3  A    between atoms: C_19  and  C_20 
DOCKED: REMARK    4  A    between atoms: C_20  and  C_21 
DOCKED: REMARK    5  A    between atoms: C_21  and  N_22 
DOCKED: USER                              x       y       z     vdW  Elec       q    Type
DOCKED: USER                           _______ _______ _______ _____ _____    ______ ____
DOCKED: ROOT
DOCKED: ATOM      1  O   UNL     1     -29.653 -12.083   4.291 -0.01 -0.00    -0.346 OA 
DOCKED: ATOM      2  C   UNL     1     -29.909 -11.033   5.278 -0.08 +0.00    +0.130 C  
DOCKED: ATOM      3  C   UNL     1     -30.422 -11.782   6.474 -0.12 +0.00    +0.004 A  
DOCKED: ATOM      4  C   UNL     1     -30.359 -13.147   6.233 -0.15 +0.00    +0.006 A  
DOCKED: ATOM      5  C   UNL     1     -29.798 -13.394   4.886 -0.09 +0.00    +0.169 C  
DOCKED: ATOM      6  C   UNL     1     -30.894 -11.295   7.684 -0.15 -0.00    -0.001 A  
DOCKED: ATOM      7  C   UNL     1     -30.768 -14.067   7.184 -0.26 +0.00    +0.008 A  
DOCKED: ATOM      8  C   UNL     1     -31.315 -12.209   8.651 -0.25 +0.00    +0.010 A  
DOCKED: ATOM      9  C   UNL     1     -31.251 -13.588   8.402 -0.30 +0.00    +0.068 A  
DOCKED: ATOM     10  N   UNL     1     -32.034 -15.259  10.221 -2.68 -0.00    -0.191 NA 
DOCKED: ATOM     11  C   UNL     1     -31.684 -14.509   9.405 -0.41 +0.00    +0.101 C  
DOCKED: ENDROOT
DOCKED: BRANCH   2  12
DOCKED: ATOM     12  C   UNL     1     -28.602 -10.299   5.553 -0.02 +0.00    +0.038 C  
DOCKED: BRANCH  12  13
DOCKED: ATOM     13  C   UNL     1     -27.587 -11.208   6.242 -0.01 +0.00    +0.038 C  
DOCKED: BRANCH  13  14
DOCKED: ATOM     14  C   UNL     1     -27.513 -10.914   7.739 -0.00 +0.00    +0.251 C  
DOCKED: BRANCH  14  15
DOCKED: ATOM     15  N   UNL     1     -27.863  -9.523   8.000 -0.00 +0.00    +0.141 N  
DOCKED: ATOM     16  C   UNL     1     -28.391  -9.370   9.357 -0.00 +0.00    +0.285 C  
DOCKED: ATOM     17  C   UNL     1     -26.701  -8.654   7.807 +0.00 +0.00    +0.285 C  
DOCKED: ENDBRANCH  14  15
DOCKED: ENDBRANCH  13  14
DOCKED: ENDBRANCH  12  13
DOCKED: ENDBRANCH   2  12
DOCKED: BRANCH   2  18
DOCKED: ATOM     18  C   UNL     1     -30.928 -10.117   4.686 -0.12 +0.00    +0.006 A  
DOCKED: ATOM     19  C   UNL     1     -31.140 -10.109   3.308 -0.16 +0.00    +0.001 A  
DOCKED: ATOM     20  C   UNL     1     -32.092  -9.251   2.756 -0.22 +0.00    +0.029 A  
DOCKED: ATOM     21  C   UNL     1     -32.830  -8.404   3.581 -0.19 +0.00    +0.140 A  
DOCKED: ATOM     22  C   UNL     1     -32.617  -8.413   4.959 -0.18 +0.00    +0.029 A  
DOCKED: ATOM     23  F   UNL     1     -33.745  -7.582   3.051 -0.12 -0.00    -0.204 F  
DOCKED: ATOM     24  C   UNL     1     -31.664  -9.270   5.513 -0.14 +0.00    +0.001 A  
DOCKED: ENDBRANCH   2  18
DOCKED: TORSDOF 5
DOCKED: TER
DOCKED: ENDMDL
________________________________________________________________________________


    FINAL DOCKED STATE:
    ________________________


Run:   82 / 512
Time taken for this run:   0.002s

DOCKED: MODEL        82
DOCKED: USER    Run = 82
DOCKED: USER
DOCKED: USER    Estimated Free Energy of Binding    =  -4.48 kcal/mol  [=(1)+(2)+(3)-(4)]
DOCKED: USER
DOCKED: USER    (1) Final Intermolecular Energy     =  -5.97 kcal/mol
DOCKED: USER        vdW + Hbond + desolv Energy     =  -5.97 kcal/mol
DOCKED: USER        Electrostatic Energy            =  +0.00 kcal/mol
DOCKED: USER        Moving Ligand-Fixed Receptor    =  -5.97 kcal/mol
DOCKED: USER        Moving Ligand-Moving Receptor   =  +0.00 kcal/mol
DOCKED: USER    (2) Final Total Internal Energy     =  -1.05 kcal/mol
DOCKED: USER    (3) Torsional Free Energy           =  +1.49 kcal/mol
DOCKED: USER    (4) Unbound System's Energy         =  -1.05 kcal/mol
DOCKED: USER
DOCKED: USER
DOCKED: REMARK  5 active torsions:
DOCKED: REMARK  status: ('A' for Active; 'I' for Inactive)
DOCKED: REMARK    1  A    between atoms: C_2  and  C_19 
DOCKED: REMARK    2  A    between atoms: C_2  and  C_11 
DOCKED: REMARK    3  A    between atoms: C_19  and  C_20 
DOCKED: REMARK    4  A    between atoms: C_20  and  C_21 
DOCKED: REMARK    5  A    between atoms: C_21  and  N_22 
DOCKED: USER                              x       y       z     vdW  Elec       q    Type
DOCKED: USER                           _______ _______ _______ _____ _____    ______ ____
DOCKED: ROOT
DOCKED: ATOM      1  O   UNL     1     -40.979 -10.913  14.357 -0.00 -0.00    -0.346 OA 
DOCKED: ATOM      2  C   UNL     1     -39.596 -11.390  14.395 -0.09 +0.00    +0.130 C  
DOCKED: ATOM      3  C   UNL     1     -39.389 -12.002  13.040 -0.21 +0.00    +0.004 A  
DOCKED: ATOM      4  C   UNL     1     -40.516 -11.796  12.257 -0.24 +0.00    +0.006 A  
DOCKED: ATOM      5  C   UNL     1     -41.527 -11.033  13.023 -0.18 +0.00    +0.169 C  
DOCKED: ATOM      6  C   UNL     1     -38.287 -12.677  12.536 -0.33 -0.00    -0.001 A  
DOCKED: ATOM      7  C   UNL     1     -40.583 -12.258  10.954 -0.09 +0.00    +0.008 A  
DOCKED: ATOM      8  C   UNL     1     -38.340 -13.153  11.225 -0.44 +0.00    +0.010 A  
DOCKED: ATOM      9  C   UNL     1     -39.482 -12.944  10.438 -0.37 +0.00    +0.068 A  
DOCKED: ATOM     10  N   UNL     1     -39.546 -13.836   8.007 -2.22 -0.00    -0.191 NA 
DOCKED: ATOM     11  C   UNL     1     -39.518 -13.437   9.097 -0.36 +0.00    +0.101 C  
DOCKED: ENDROOT
DOCKED: BRANCH   2  12
DOCKED: ATOM     12  C   UNL     1     -38.682 -10.198  14.654 -0.09 +0.00    +0.038 C  
DOCKED: BRANCH  12  13
DOCKED: ATOM     13  C   UNL     1     -38.813  -9.146  13.554 -0.18 +0.00    +0.038 C  
DOCKED: BRANCH  13  14
DOCKED: ATOM     14  C   UNL     1     -37.442  -8.636  13.114 -0.13 +0.00    +0.251 C  
DOCKED: BRANCH  14  15
DOCKED: ATOM     15  N   UNL     1     -37.588  -7.593  12.106 -0.10 +0.00    +0.141 N  
DOCKED: ATOM     16  C   UNL     1     -38.747  -6.749  12.401 -0.13 +0.00    +0.285 C  
DOCKED: ATOM     17  C   UNL     1     -36.374  -6.778  12.028 -0.07 +0.00    +0.285 C  
DOCKED: ENDBRANCH  14  15
DOCKED: ENDBRANCH  13  14
DOCKED: ENDBRANCH  12  13
DOCKED: ENDBRANCH   2  12
DOCKED: BRANCH   2  18
DOCKED: ATOM     18  C   UNL     1     -39.508 -12.386  15.503 -0.11 +0.00    +0.006 A  
DOCKED: ATOM     19  C   UNL     1     -40.672 -12.923  16.050 -0.11 +0.00    +0.001 A  
DOCKED: ATOM     20  C   UNL     1     -40.588 -13.854  17.086 -0.14 +0.00    +0.029 A  
DOCKED: ATOM     21  C   UNL     1     -39.342 -14.247  17.573 +0.02 +0.00    +0.140 A  
DOCKED: ATOM     22  C   UNL     1     -38.178 -13.709  17.024 -0.19 +0.00    +0.029 A  
DOCKED: ATOM     23  F   UNL     1     -39.262 -15.142  18.566 -0.04 -0.00    -0.204 F  
DOCKED: ATOM     24  C   UNL     1     -38.260 -12.777  15.988 -0.15 +0.00    +0.001 A  
DOCKED: ENDBRANCH   2  18
DOCKED: TORSDOF 5
DOCKED: TER
DOCKED: ENDMDL
________________________________________________________________________________


    FINAL DOCKED STATE:
    ________________________


Run:   83 / 512
Time taken for this run:   0.002s

DOCKED: MODEL        83
DOCKED: USER    Run = 83
DOCKED: USER
DOCKED: USER    Estimated Free Energy of Binding    =  -3.84 kcal/mol  [=(1)+(2)+(3)-(4)]
DOCKED: USER
DOCKED: USER    (1) Final Intermolecular Energy     =  -5.33 kcal/mol
DOCKED: USER        vdW + Hbond + desolv Energy     =  -5.33 kcal/mol
DOCKED: USER        Electrostatic Energy            =  +0.00 kcal/mol
DOCKED: USER        Moving Ligand-Fixed Receptor    =  -5.33 kcal/mol
DOCKED: USER        Moving Ligand-Moving Receptor   =  +0.00 kcal/mol
DOCKED: USER    (2) Final Total Internal Energy     =  -1.56 kcal/mol
DOCKED: USER    (3) Torsional Free Energy           =  +1.49 kcal/mol
DOCKED: USER    (4) Unbound System's Energy         =  -1.56 kcal/mol
DOCKED: USER
DOCKED: USER
DOCKED: REMARK  5 active torsions:
DOCKED: REMARK  status: ('A' for Active; 'I' for Inactive)
DOCKED: REMARK    1  A    between atoms: C_2  and  C_19 
DOCKED: REMARK    2  A    between atoms: C_2  and  C_11 
DOCKED: REMARK    3  A    between atoms: C_19  and  C_20 
DOCKED: REMARK    4  A    between atoms: C_20  and  C_21 
DOCKED: REMARK    5  A    between atoms: C_21  and  N_22 
DOCKED: USER                              x       y       z     vdW  Elec       q    Type
DOCKED: USER                           _______ _______ _______ _____ _____    ______ ____
DOCKED: ROOT
DOCKED: ATOM      1  O   UNL     1     -28.668 -10.886   5.415 +0.01 -0.00    -0.346 OA 
DOCKED: ATOM      2  C   UNL     1     -29.895 -10.214   5.845 -0.05 +0.00    +0.130 C  
DOCKED: ATOM      3  C   UNL     1     -30.545 -11.206   6.766 -0.11 +0.00    +0.004 A  
DOCKED: ATOM      4  C   UNL     1     -29.710 -12.301   6.936 -0.09 +0.00    +0.006 A  
DOCKED: ATOM      5  C   UNL     1     -28.464 -12.108   6.161 -0.02 +0.00    +0.169 C  
DOCKED: ATOM      6  C   UNL     1     -31.771 -11.139   7.411 -0.23 -0.00    -0.001 A  
DOCKED: ATOM      7  C   UNL     1     -30.071 -13.363   7.747 -0.16 +0.00    +0.008 A  
DOCKED: ATOM      8  C   UNL     1     -32.151 -12.204   8.229 -0.31 +0.00    +0.010 A  
DOCKED: ATOM      9  C   UNL     1     -31.305 -13.310   8.397 -0.28 +0.00    +0.068 A  
DOCKED: ATOM     10  N   UNL     1     -32.039 -15.268   9.927 -2.58 -0.00    -0.191 NA 
DOCKED: ATOM     11  C   UNL     1     -31.710 -14.390   9.240 -0.41 +0.00    +0.101 C  
DOCKED: ENDROOT
DOCKED: BRANCH   2  12
DOCKED: ATOM     12  C   UNL     1     -29.514  -8.915   6.545 -0.02 +0.00    +0.038 C  
DOCKED: BRANCH  12  13
DOCKED: ATOM     13  C   UNL     1     -28.059  -8.541   6.273 -0.00 +0.00    +0.038 C  
DOCKED: BRANCH  13  14
DOCKED: ATOM     14  C   UNL     1     -27.959  -7.471   5.188 -0.00 +0.00    +0.251 C  
DOCKED: BRANCH  14  15
DOCKED: ATOM     15  N   UNL     1     -28.171  -8.061   3.872 -0.00 +0.00    +0.141 N  
DOCKED: ATOM     16  C   UNL     1     -28.138  -7.031   2.832 -0.00 +0.00    +0.285 C  
DOCKED: ATOM     17  C   UNL     1     -27.164  -9.089   3.599 +0.00 +0.00    +0.285 C  
DOCKED: ENDBRANCH  14  15
DOCKED: ENDBRANCH  13  14
DOCKED: ENDBRANCH  12  13
DOCKED: ENDBRANCH   2  12
DOCKED: BRANCH   2  18
DOCKED: ATOM     18  C   UNL     1     -30.700  -9.948   4.616 -0.12 +0.00    +0.006 A  
DOCKED: ATOM     19  C   UNL     1     -30.638 -10.830   3.538 -0.13 +0.00    +0.001 A  
DOCKED: ATOM     20  C   UNL     1     -31.390 -10.580   2.390 -0.15 +0.00    +0.029 A  
DOCKED: ATOM     21  C   UNL     1     -32.203  -9.449   2.322 -0.20 +0.00    +0.140 A  
DOCKED: ATOM     22  C   UNL     1     -32.264  -8.568   3.400 -0.21 +0.00    +0.029 A  
DOCKED: ATOM     23  F   UNL     1     -32.926  -9.210   1.220 -0.13 -0.00    -0.204 F  
DOCKED: ATOM     24  C   UNL     1     -31.512  -8.817   4.549 -0.14 +0.00    +0.001 A  
DOCKED: ENDBRANCH   2  18
DOCKED: TORSDOF 5
DOCKED: TER
DOCKED: ENDMDL
________________________________________________________________________________


    FINAL DOCKED STATE:
    ________________________


Run:   84 / 512
Time taken for this run:   0.002s

DOCKED: MODEL        84
DOCKED: USER    Run = 84
DOCKED: USER
DOCKED: USER    Estimated Free Energy of Binding    =  -4.55 kcal/mol  [=(1)+(2)+(3)-(4)]
DOCKED: USER
DOCKED: USER    (1) Final Intermolecular Energy     =  -6.04 kcal/mol
DOCKED: USER        vdW + Hbond + desolv Energy     =  -6.04 kcal/mol
DOCKED: USER        Electrostatic Energy            =  +0.00 kcal/mol
DOCKED: USER        Moving Ligand-Fixed Receptor    =  -6.04 kcal/mol
DOCKED: USER        Moving Ligand-Moving Receptor   =  +0.00 kcal/mol
DOCKED: USER    (2) Final Total Internal Energy     =  -0.92 kcal/mol
DOCKED: USER    (3) Torsional Free Energy           =  +1.49 kcal/mol
DOCKED: USER    (4) Unbound System's Energy         =  -0.92 kcal/mol
DOCKED: USER
DOCKED: USER
DOCKED: REMARK  5 active torsions:
DOCKED: REMARK  status: ('A' for Active; 'I' for Inactive)
DOCKED: REMARK    1  A    between atoms: C_2  and  C_19 
DOCKED: REMARK    2  A    between atoms: C_2  and  C_11 
DOCKED: REMARK    3  A    between atoms: C_19  and  C_20 
DOCKED: REMARK    4  A    between atoms: C_20  and  C_21 
DOCKED: REMARK    5  A    between atoms: C_21  and  N_22 
DOCKED: USER                              x       y       z     vdW  Elec       q    Type
DOCKED: USER                           _______ _______ _______ _____ _____    ______ ____
DOCKED: ROOT
DOCKED: ATOM      1  O   UNL     1     -34.843 -10.465  14.639 -0.07 -0.00    -0.346 OA 
DOCKED: ATOM      2  C   UNL     1     -35.735  -9.646  13.819 -0.14 +0.00    +0.130 C  
DOCKED: ATOM      3  C   UNL     1     -36.627 -10.648  13.146 -0.22 +0.00    +0.004 A  
DOCKED: ATOM      4  C   UNL     1     -36.343 -11.920  13.623 -0.25 +0.00    +0.006 A  
DOCKED: ATOM      5  C   UNL     1     -35.269 -11.847  14.639 -0.17 +0.00    +0.169 C  
DOCKED: ATOM      6  C   UNL     1     -37.618 -10.450  12.196 -0.28 -0.00    -0.001 A  
DOCKED: ATOM      7  C   UNL     1     -37.032 -13.031  13.168 -0.35 +0.00    +0.008 A  
DOCKED: ATOM      8  C   UNL     1     -38.319 -11.561  11.723 -0.34 +0.00    +0.010 A  
DOCKED: ATOM      9  C   UNL     1     -38.028 -12.845  12.207 -0.32 +0.00    +0.068 A  
DOCKED: ATOM     10  N   UNL     1     -39.351 -14.885  11.312 -2.56 -0.00    -0.191 NA 
DOCKED: ATOM     11  C   UNL     1     -38.757 -13.970  11.713 -0.27 +0.00    +0.101 C  
DOCKED: ENDROOT
DOCKED: BRANCH   2  12
DOCKED: ATOM     12  C   UNL     1     -36.497  -8.695  14.736 -0.06 +0.00    +0.038 C  
DOCKED: BRANCH  12  13
DOCKED: ATOM     13  C   UNL     1     -37.645  -8.010  13.998 -0.10 +0.00    +0.038 C  
DOCKED: BRANCH  13  14
DOCKED: ATOM     14  C   UNL     1     -37.358  -6.523  13.795 -0.04 +0.00    +0.251 C  
DOCKED: BRANCH  14  15
DOCKED: ATOM     15  N   UNL     1     -38.600  -5.793  13.570 -0.04 +0.00    +0.141 N  
DOCKED: ATOM     16  C   UNL     1     -38.333  -4.366  13.385 -0.01 +0.00    +0.285 C  
DOCKED: ATOM     17  C   UNL     1     -39.311  -6.331  12.409 -0.13 +0.00    +0.285 C  
DOCKED: ENDBRANCH  14  15
DOCKED: ENDBRANCH  13  14
DOCKED: ENDBRANCH  12  13
DOCKED: ENDBRANCH   2  12
DOCKED: BRANCH   2  18
DOCKED: ATOM     18  C   UNL     1     -34.877  -8.893  12.858 -0.14 +0.00    +0.006 A  
DOCKED: ATOM     19  C   UNL     1     -33.506  -8.782  13.087 -0.11 +0.00    +0.001 A  
DOCKED: ATOM     20  C   UNL     1     -32.704  -8.079  12.188 -0.09 +0.00    +0.029 A  
DOCKED: ATOM     21  C   UNL     1     -33.274  -7.488  11.061 -0.08 +0.00    +0.140 A  
DOCKED: ATOM     22  C   UNL     1     -34.645  -7.600  10.831 -0.14 +0.00    +0.029 A  
DOCKED: ATOM     23  F   UNL     1     -32.504  -6.814  10.197 -0.00 -0.00    -0.204 F  
DOCKED: ATOM     24  C   UNL     1     -35.448  -8.303  11.731 -0.14 +0.00    +0.001 A  
DOCKED: ENDBRANCH   2  18
DOCKED: TORSDOF 5
DOCKED: TER
DOCKED: ENDMDL
________________________________________________________________________________


    FINAL DOCKED STATE:
    ________________________


Run:   85 / 512
Time taken for this run:   0.002s

DOCKED: MODEL        85
DOCKED: USER    Run = 85
DOCKED: USER
DOCKED: USER    Estimated Free Energy of Binding    =  -3.63 kcal/mol  [=(1)+(2)+(3)-(4)]
DOCKED: USER
DOCKED: USER    (1) Final Intermolecular Energy     =  -5.12 kcal/mol
DOCKED: USER        vdW + Hbond + desolv Energy     =  -5.12 kcal/mol
DOCKED: USER        Electrostatic Energy            =  +0.00 kcal/mol
DOCKED: USER        Moving Ligand-Fixed Receptor    =  -5.12 kcal/mol
DOCKED: USER        Moving Ligand-Moving Receptor   =  +0.00 kcal/mol
DOCKED: USER    (2) Final Total Internal Energy     =  -1.57 kcal/mol
DOCKED: USER    (3) Torsional Free Energy           =  +1.49 kcal/mol
DOCKED: USER    (4) Unbound System's Energy         =  -1.57 kcal/mol
DOCKED: USER
DOCKED: USER
DOCKED: REMARK  5 active torsions:
DOCKED: REMARK  status: ('A' for Active; 'I' for Inactive)
DOCKED: REMARK    1  A    between atoms: C_2  and  C_19 
DOCKED: REMARK    2  A    between atoms: C_2  and  C_11 
DOCKED: REMARK    3  A    between atoms: C_19  and  C_20 
DOCKED: REMARK    4  A    between atoms: C_20  and  C_21 
DOCKED: REMARK    5  A    between atoms: C_21  and  N_22 
DOCKED: USER                              x       y       z     vdW  Elec       q    Type
DOCKED: USER                           _______ _______ _______ _____ _____    ______ ____
DOCKED: ROOT
DOCKED: ATOM      1  O   UNL     1     -36.076  -8.627  13.229 -0.06 -0.00    -0.346 OA 
DOCKED: ATOM      2  C   UNL     1     -35.804  -9.637  14.253 -0.11 +0.00    +0.130 C  
DOCKED: ATOM      3  C   UNL     1     -36.580 -10.836  13.790 -0.20 +0.00    +0.004 A  
DOCKED: ATOM      4  C   UNL     1     -37.154 -10.572  12.555 -0.25 +0.00    +0.006 A  
DOCKED: ATOM      5  C   UNL     1     -36.794  -9.205  12.115 -0.11 +0.00    +0.169 C  
DOCKED: ATOM      6  C   UNL     1     -36.753 -12.066  14.407 -0.21 -0.00    -0.001 A  
DOCKED: ATOM      7  C   UNL     1     -37.921 -11.520  11.899 -0.33 +0.00    +0.008 A  
DOCKED: ATOM      8  C   UNL     1     -37.528 -13.031  13.761 -0.29 +0.00    +0.010 A  
DOCKED: ATOM      9  C   UNL     1     -38.108 -12.759  12.513 -0.30 +0.00    +0.068 A  
DOCKED: ATOM     10  N   UNL     1     -39.536 -14.575  11.339 -2.56 -0.00    -0.191 NA 
DOCKED: ATOM     11  C   UNL     1     -38.896 -13.760  11.866 -0.35 +0.00    +0.101 C  
DOCKED: ENDROOT
DOCKED: BRANCH   2  12
DOCKED: ATOM     12  C   UNL     1     -34.301  -9.884  14.299 -0.13 +0.00    +0.038 C  
DOCKED: BRANCH  12  13
DOCKED: ATOM     13  C   UNL     1     -33.525  -8.714  13.697 -0.10 +0.00    +0.038 C  
DOCKED: BRANCH  13  14
DOCKED: ATOM     14  C   UNL     1     -33.445  -7.545  14.676 -0.01 +0.00    +0.251 C  
DOCKED: BRANCH  14  15
DOCKED: ATOM     15  N   UNL     1     -34.430  -6.526  14.332 -0.01 +0.00    +0.141 N  
DOCKED: ATOM     16  C   UNL     1     -34.429  -5.450  15.324 -0.00 +0.00    +0.285 C  
DOCKED: ATOM     17  C   UNL     1     -34.167  -5.986  12.997 -0.01 +0.00    +0.285 C  
DOCKED: ENDBRANCH  14  15
DOCKED: ENDBRANCH  13  14
DOCKED: ENDBRANCH  12  13
DOCKED: ENDBRANCH   2  12
DOCKED: BRANCH   2  18
DOCKED: ATOM     18  C   UNL     1     -36.300  -9.088  15.549 -0.03 +0.00    +0.006 A  
DOCKED: ATOM     19  C   UNL     1     -35.932  -9.696  16.749 -0.02 +0.00    +0.001 A  
DOCKED: ATOM     20  C   UNL     1     -36.397  -9.183  17.960 -0.00 +0.00    +0.029 A  
DOCKED: ATOM     21  C   UNL     1     -37.227  -8.063  17.970 -0.00 +0.00    +0.140 A  
DOCKED: ATOM     22  C   UNL     1     -37.594  -7.455  16.770 -0.00 +0.00    +0.029 A  
DOCKED: ATOM     23  F   UNL     1     -37.671  -7.569  19.133 +0.00 -0.00    -0.204 F  
DOCKED: ATOM     24  C   UNL     1     -37.130  -7.968  15.558 -0.02 +0.00    +0.001 A  
DOCKED: ENDBRANCH   2  18
DOCKED: TORSDOF 5
DOCKED: TER
DOCKED: ENDMDL
________________________________________________________________________________


    FINAL DOCKED STATE:
    ________________________


Run:   86 / 512
Time taken for this run:   0.002s

DOCKED: MODEL        86
DOCKED: USER    Run = 86
DOCKED: USER
DOCKED: USER    Estimated Free Energy of Binding    =  -4.06 kcal/mol  [=(1)+(2)+(3)-(4)]
DOCKED: USER
DOCKED: USER    (1) Final Intermolecular Energy     =  -5.55 kcal/mol
DOCKED: USER        vdW + Hbond + desolv Energy     =  -5.55 kcal/mol
DOCKED: USER        Electrostatic Energy            =  +0.00 kcal/mol
DOCKED: USER        Moving Ligand-Fixed Receptor    =  -5.55 kcal/mol
DOCKED: USER        Moving Ligand-Moving Receptor   =  +0.00 kcal/mol
DOCKED: USER    (2) Final Total Internal Energy     =  -1.23 kcal/mol
DOCKED: USER    (3) Torsional Free Energy           =  +1.49 kcal/mol
DOCKED: USER    (4) Unbound System's Energy         =  -1.23 kcal/mol
DOCKED: USER
DOCKED: USER
DOCKED: REMARK  5 active torsions:
DOCKED: REMARK  status: ('A' for Active; 'I' for Inactive)
DOCKED: REMARK    1  A    between atoms: C_2  and  C_19 
DOCKED: REMARK    2  A    between atoms: C_2  and  C_11 
DOCKED: REMARK    3  A    between atoms: C_19  and  C_20 
DOCKED: REMARK    4  A    between atoms: C_20  and  C_21 
DOCKED: REMARK    5  A    between atoms: C_21  and  N_22 
DOCKED: USER                              x       y       z     vdW  Elec       q    Type
DOCKED: USER                           _______ _______ _______ _____ _____    ______ ____
DOCKED: ROOT
DOCKED: ATOM      1  O   UNL     1     -37.802  -8.223  13.193 -0.06 -0.00    -0.346 OA 
DOCKED: ATOM      2  C   UNL     1     -36.657  -9.080  13.504 -0.15 +0.00    +0.130 C  
DOCKED: ATOM      3  C   UNL     1     -37.116 -10.452  13.102 -0.24 +0.00    +0.004 A  
DOCKED: ATOM      4  C   UNL     1     -38.368 -10.371  12.511 -0.27 +0.00    +0.006 A  
DOCKED: ATOM      5  C   UNL     1     -38.814  -8.960  12.469 -0.17 +0.00    +0.169 C  
DOCKED: ATOM      6  C   UNL     1     -36.471 -11.672  13.239 -0.22 -0.00    -0.001 A  
DOCKED: ATOM      7  C   UNL     1     -39.018 -11.500  12.042 -0.29 +0.00    +0.008 A  
DOCKED: ATOM      8  C   UNL     1     -37.114 -12.820  12.775 -0.34 +0.00    +0.010 A  
DOCKED: ATOM      9  C   UNL     1     -38.381 -12.734  12.179 -0.31 +0.00    +0.068 A  
DOCKED: ATOM     10  N   UNL     1     -39.547 -14.885  11.324 -2.53 -0.00    -0.191 NA 
DOCKED: ATOM     11  C   UNL     1     -39.024 -13.920  11.708 -0.31 +0.00    +0.101 C  
DOCKED: ENDROOT
DOCKED: BRANCH   2  12
DOCKED: ATOM     12  C   UNL     1     -35.458  -8.595  12.699 -0.17 +0.00    +0.038 C  
DOCKED: BRANCH  12  13
DOCKED: ATOM     13  C   UNL     1     -35.754  -7.267  12.004 -0.14 +0.00    +0.038 C  
DOCKED: BRANCH  13  14
DOCKED: ATOM     14  C   UNL     1     -35.711  -6.106  12.997 -0.03 +0.00    +0.251 C  
DOCKED: BRANCH  14  15
DOCKED: ATOM     15  N   UNL     1     -36.586  -5.028  12.554 -0.04 +0.00    +0.141 N  
DOCKED: ATOM     16  C   UNL     1     -35.884  -4.143  11.623 -0.03 +0.00    +0.285 C  
DOCKED: ATOM     17  C   UNL     1     -37.794  -5.568  11.927 -0.09 +0.00    +0.285 C  
DOCKED: ENDBRANCH  14  15
DOCKED: ENDBRANCH  13  14
DOCKED: ENDBRANCH  12  13
DOCKED: ENDBRANCH   2  12
DOCKED: BRANCH   2  18
DOCKED: ATOM     18  C   UNL     1     -36.407  -8.957  14.970 -0.05 +0.00    +0.006 A  
DOCKED: ATOM     19  C   UNL     1     -36.933  -7.878  15.679 -0.02 +0.00    +0.001 A  
DOCKED: ATOM     20  C   UNL     1     -36.697  -7.764  17.050 -0.00 +0.00    +0.029 A  
DOCKED: ATOM     21  C   UNL     1     -35.937  -8.728  17.709 -0.00 +0.00    +0.140 A  
DOCKED: ATOM     22  C   UNL     1     -35.411  -9.808  17.000 -0.02 +0.00    +0.029 A  
DOCKED: ATOM     23  F   UNL     1     -35.713  -8.620  19.025 +0.00 -0.00    -0.204 F  
DOCKED: ATOM     24  C   UNL     1     -35.646  -9.922  15.628 -0.06 +0.00    +0.001 A  
DOCKED: ENDBRANCH   2  18
DOCKED: TORSDOF 5
DOCKED: TER
DOCKED: ENDMDL
________________________________________________________________________________


    FINAL DOCKED STATE:
    ________________________


Run:   87 / 512
Time taken for this run:   0.002s

DOCKED: MODEL        87
DOCKED: USER    Run = 87
DOCKED: USER
DOCKED: USER    Estimated Free Energy of Binding    =  -4.94 kcal/mol  [=(1)+(2)+(3)-(4)]
DOCKED: USER
DOCKED: USER    (1) Final Intermolecular Energy     =  -6.43 kcal/mol
DOCKED: USER        vdW + Hbond + desolv Energy     =  -6.43 kcal/mol
DOCKED: USER        Electrostatic Energy            =  +0.00 kcal/mol
DOCKED: USER        Moving Ligand-Fixed Receptor    =  -6.43 kcal/mol
DOCKED: USER        Moving Ligand-Moving Receptor   =  +0.00 kcal/mol
DOCKED: USER    (2) Final Total Internal Energy     =  -0.78 kcal/mol
DOCKED: USER    (3) Torsional Free Energy           =  +1.49 kcal/mol
DOCKED: USER    (4) Unbound System's Energy         =  -0.78 kcal/mol
DOCKED: USER
DOCKED: USER
DOCKED: REMARK  5 active torsions:
DOCKED: REMARK  status: ('A' for Active; 'I' for Inactive)
DOCKED: REMARK    1  A    between atoms: C_2  and  C_19 
DOCKED: REMARK    2  A    between atoms: C_2  and  C_11 
DOCKED: REMARK    3  A    between atoms: C_19  and  C_20 
DOCKED: REMARK    4  A    between atoms: C_20  and  C_21 
DOCKED: REMARK    5  A    between atoms: C_21  and  N_22 
DOCKED: USER                              x       y       z     vdW  Elec       q    Type
DOCKED: USER                           _______ _______ _______ _____ _____    ______ ____
DOCKED: ROOT
DOCKED: ATOM      1  O   UNL     1     -39.885 -12.611  14.366 -0.02 -0.00    -0.346 OA 
DOCKED: ATOM      2  C   UNL     1     -39.038 -11.588  13.752 -0.14 +0.00    +0.130 C  
DOCKED: ATOM      3  C   UNL     1     -39.032 -11.954  12.296 -0.29 +0.00    +0.004 A  
DOCKED: ATOM      4  C   UNL     1     -39.889 -13.024  12.079 -0.30 +0.00    +0.006 A  
DOCKED: ATOM      5  C   UNL     1     -40.521 -13.427  13.355 -0.15 +0.00    +0.169 C  
DOCKED: ATOM      6  C   UNL     1     -38.333 -11.377  11.245 -0.24 -0.00    -0.001 A  
DOCKED: ATOM      7  C   UNL     1     -40.072 -13.555  10.814 -0.40 +0.00    +0.008 A  
DOCKED: ATOM      8  C   UNL     1     -38.504 -11.905   9.964 -0.14 +0.00    +0.010 A  
DOCKED: ATOM      9  C   UNL     1     -39.370 -12.988   9.750 -0.40 +0.00    +0.068 A  
DOCKED: ATOM     10  N   UNL     1     -39.668 -13.940   7.358 -2.50 -0.00    -0.191 NA 
DOCKED: ATOM     11  C   UNL     1     -39.534 -13.513   8.431 -0.29 +0.00    +0.101 C  
DOCKED: ENDROOT
DOCKED: BRANCH   2  12
DOCKED: ATOM     12  C   UNL     1     -39.660 -10.222  14.018 -0.14 +0.00    +0.038 C  
DOCKED: BRANCH  12  13
DOCKED: ATOM     13  C   UNL     1     -39.491  -9.290  12.820 -0.25 +0.00    +0.038 C  
DOCKED: BRANCH  13  14
DOCKED: ATOM     14  C   UNL     1     -39.908  -7.863  13.171 -0.16 +0.00    +0.251 C  
DOCKED: BRANCH  14  15
DOCKED: ATOM     15  N   UNL     1     -41.228  -7.858  13.792 -0.10 +0.00    +0.141 N  
DOCKED: ATOM     16  C   UNL     1     -41.510  -6.555  14.394 -0.02 +0.00    +0.285 C  
DOCKED: ATOM     17  C   UNL     1     -42.260  -8.199  12.811 -0.14 +0.00    +0.285 C  
DOCKED: ENDBRANCH  14  15
DOCKED: ENDBRANCH  13  14
DOCKED: ENDBRANCH  12  13
DOCKED: ENDBRANCH   2  12
DOCKED: BRANCH   2  18
DOCKED: ATOM     18  C   UNL     1     -37.691 -11.699  14.385 -0.15 +0.00    +0.006 A  
DOCKED: ATOM     19  C   UNL     1     -36.695 -10.777  14.068 -0.18 +0.00    +0.001 A  
DOCKED: ATOM     20  C   UNL     1     -35.435 -10.883  14.661 -0.15 +0.00    +0.029 A  
DOCKED: ATOM     21  C   UNL     1     -35.176 -11.908  15.568 -0.10 +0.00    +0.140 A  
DOCKED: ATOM     22  C   UNL     1     -36.173 -12.830  15.885 +0.03 +0.00    +0.029 A  
DOCKED: ATOM     23  F   UNL     1     -33.968 -12.008  16.138 -0.03 -0.00    -0.204 F  
DOCKED: ATOM     24  C   UNL     1     -37.433 -12.726  15.292 -0.18 +0.00    +0.001 A  
DOCKED: ENDBRANCH   2  18
DOCKED: TORSDOF 5
DOCKED: TER
DOCKED: ENDMDL
________________________________________________________________________________


    FINAL DOCKED STATE:
    ________________________


Run:   88 / 512
Time taken for this run:   0.002s

DOCKED: MODEL        88
DOCKED: USER    Run = 88
DOCKED: USER
DOCKED: USER    Estimated Free Energy of Binding    =  -5.02 kcal/mol  [=(1)+(2)+(3)-(4)]
DOCKED: USER
DOCKED: USER    (1) Final Intermolecular Energy     =  -6.51 kcal/mol
DOCKED: USER        vdW + Hbond + desolv Energy     =  -6.51 kcal/mol
DOCKED: USER        Electrostatic Energy            =  +0.00 kcal/mol
DOCKED: USER        Moving Ligand-Fixed Receptor    =  -6.51 kcal/mol
DOCKED: USER        Moving Ligand-Moving Receptor   =  +0.00 kcal/mol
DOCKED: USER    (2) Final Total Internal Energy     =  -1.28 kcal/mol
DOCKED: USER    (3) Torsional Free Energy           =  +1.49 kcal/mol
DOCKED: USER    (4) Unbound System's Energy         =  -1.28 kcal/mol
DOCKED: USER
DOCKED: USER
DOCKED: REMARK  5 active torsions:
DOCKED: REMARK  status: ('A' for Active; 'I' for Inactive)
DOCKED: REMARK    1  A    between atoms: C_2  and  C_19 
DOCKED: REMARK    2  A    between atoms: C_2  and  C_11 
DOCKED: REMARK    3  A    between atoms: C_19  and  C_20 
DOCKED: REMARK    4  A    between atoms: C_20  and  C_21 
DOCKED: REMARK    5  A    between atoms: C_21  and  N_22 
DOCKED: USER                              x       y       z     vdW  Elec       q    Type
DOCKED: USER                           _______ _______ _______ _____ _____    ______ ____
DOCKED: ROOT
DOCKED: ATOM      1  O   UNL     1     -38.395 -10.485  14.282 -0.02 -0.00    -0.346 OA 
DOCKED: ATOM      2  C   UNL     1     -37.412 -11.563  14.166 -0.16 +0.00    +0.130 C  
DOCKED: ATOM      3  C   UNL     1     -37.747 -12.217  12.856 -0.31 +0.00    +0.004 A  
DOCKED: ATOM      4  C   UNL     1     -38.759 -11.507  12.226 -0.30 +0.00    +0.006 A  
DOCKED: ATOM      5  C   UNL     1     -39.150 -10.346  13.056 -0.18 +0.00    +0.169 C  
DOCKED: ATOM      6  C   UNL     1     -37.192 -13.342  12.265 -0.38 -0.00    -0.001 A  
DOCKED: ATOM      7  C   UNL     1     -39.253 -11.898  10.993 -0.08 +0.00    +0.008 A  
DOCKED: ATOM      8  C   UNL     1     -37.682 -13.751  11.023 -0.28 +0.00    +0.010 A  
DOCKED: ATOM      9  C   UNL     1     -38.707 -13.032  10.391 -0.42 +0.00    +0.068 A  
DOCKED: ATOM     10  N   UNL     1     -39.589 -13.815   8.084 -2.18 -0.00    -0.191 NA 
DOCKED: ATOM     11  C   UNL     1     -39.194 -13.464   9.119 -0.50 +0.00    +0.101 C  
DOCKED: ENDROOT
DOCKED: BRANCH   2  12
DOCKED: ATOM     12  C   UNL     1     -36.017 -10.949  14.183 -0.20 +0.00    +0.038 C  
DOCKED: BRANCH  12  13
DOCKED: ATOM     13  C   UNL     1     -36.081  -9.423  14.160 -0.13 +0.00    +0.038 C  
DOCKED: BRANCH  13  14
DOCKED: ATOM     14  C   UNL     1     -35.875  -8.885  12.746 -0.14 +0.00    +0.251 C  
DOCKED: BRANCH  14  15
DOCKED: ATOM     15  N   UNL     1     -36.823  -7.813  12.467 -0.14 +0.00    +0.141 N  
DOCKED: ATOM     16  C   UNL     1     -37.572  -7.460  13.674 -0.06 +0.00    +0.285 C  
DOCKED: ATOM     17  C   UNL     1     -36.130  -6.637  11.938 -0.07 +0.00    +0.285 C  
DOCKED: ENDBRANCH  14  15
DOCKED: ENDBRANCH  13  14
DOCKED: ENDBRANCH  12  13
DOCKED: ENDBRANCH   2  12
DOCKED: BRANCH   2  18
DOCKED: ATOM     18  C   UNL     1     -37.616 -12.467  15.336 -0.15 +0.00    +0.006 A  
DOCKED: ATOM     19  C   UNL     1     -36.534 -12.818  16.142 -0.13 +0.00    +0.001 A  
DOCKED: ATOM     20  C   UNL     1     -36.727 -13.664  17.236 -0.18 +0.00    +0.029 A  
DOCKED: ATOM     21  C   UNL     1     -37.999 -14.156  17.521 -0.15 +0.00    +0.140 A  
DOCKED: ATOM     22  C   UNL     1     -39.081 -13.804  16.714 -0.13 +0.00    +0.029 A  
DOCKED: ATOM     23  F   UNL     1     -38.184 -14.966  18.572 -0.05 -0.00    -0.204 F  
DOCKED: ATOM     24  C   UNL     1     -38.890 -12.959  15.620 -0.16 +0.00    +0.001 A  
DOCKED: ENDBRANCH   2  18
DOCKED: TORSDOF 5
DOCKED: TER
DOCKED: ENDMDL
________________________________________________________________________________


    FINAL DOCKED STATE:
    ________________________


Run:   89 / 512
Time taken for this run:   0.002s

DOCKED: MODEL        89
DOCKED: USER    Run = 89
DOCKED: USER
DOCKED: USER    Estimated Free Energy of Binding    =  -4.08 kcal/mol  [=(1)+(2)+(3)-(4)]
DOCKED: USER
DOCKED: USER    (1) Final Intermolecular Energy     =  -5.57 kcal/mol
DOCKED: USER        vdW + Hbond + desolv Energy     =  -5.57 kcal/mol
DOCKED: USER        Electrostatic Energy            =  +0.00 kcal/mol
DOCKED: USER        Moving Ligand-Fixed Receptor    =  -5.57 kcal/mol
DOCKED: USER        Moving Ligand-Moving Receptor   =  +0.00 kcal/mol
DOCKED: USER    (2) Final Total Internal Energy     =  -1.20 kcal/mol
DOCKED: USER    (3) Torsional Free Energy           =  +1.49 kcal/mol
DOCKED: USER    (4) Unbound System's Energy         =  -1.20 kcal/mol
DOCKED: USER
DOCKED: USER
DOCKED: REMARK  5 active torsions:
DOCKED: REMARK  status: ('A' for Active; 'I' for Inactive)
DOCKED: REMARK    1  A    between atoms: C_2  and  C_19 
DOCKED: REMARK    2  A    between atoms: C_2  and  C_11 
DOCKED: REMARK    3  A    between atoms: C_19  and  C_20 
DOCKED: REMARK    4  A    between atoms: C_20  and  C_21 
DOCKED: REMARK    5  A    between atoms: C_21  and  N_22 
DOCKED: USER                              x       y       z     vdW  Elec       q    Type
DOCKED: USER                           _______ _______ _______ _____ _____    ______ ____
DOCKED: ROOT
DOCKED: ATOM      1  O   UNL     1     -29.744 -11.978   4.282 -0.01 -0.00    -0.346 OA 
DOCKED: ATOM      2  C   UNL     1     -29.935 -10.952   5.308 -0.08 +0.00    +0.130 C  
DOCKED: ATOM      3  C   UNL     1     -30.433 -11.722   6.497 -0.12 +0.00    +0.004 A  
DOCKED: ATOM      4  C   UNL     1     -30.421 -13.080   6.213 -0.15 +0.00    +0.006 A  
DOCKED: ATOM      5  C   UNL     1     -29.911 -13.302   4.841 -0.09 +0.00    +0.169 C  
DOCKED: ATOM      6  C   UNL     1     -30.851 -11.258   7.736 -0.14 -0.00    -0.001 A  
DOCKED: ATOM      7  C   UNL     1     -30.829 -14.016   7.148 -0.26 +0.00    +0.008 A  
DOCKED: ATOM      8  C   UNL     1     -31.269 -12.188   8.688 -0.25 +0.00    +0.010 A  
DOCKED: ATOM      9  C   UNL     1     -31.258 -13.560   8.396 -0.30 +0.00    +0.068 A  
DOCKED: ATOM     10  N   UNL     1     -32.036 -15.262  10.188 -2.67 -0.00    -0.191 NA 
DOCKED: ATOM     11  C   UNL     1     -31.687 -14.499   9.384 -0.41 +0.00    +0.101 C  
DOCKED: ENDROOT
DOCKED: BRANCH   2  12
DOCKED: ATOM     12  C   UNL     1     -28.597 -10.268   5.561 -0.02 +0.00    +0.038 C  
DOCKED: BRANCH  12  13
DOCKED: ATOM     13  C   UNL     1     -27.834 -10.037   4.258 -0.01 +0.00    +0.038 C  
DOCKED: BRANCH  13  14
DOCKED: ATOM     14  C   UNL     1     -28.003  -8.599   3.770 +0.00 +0.00    +0.251 C  
DOCKED: BRANCH  14  15
DOCKED: ATOM     15  N   UNL     1     -27.514  -7.662   4.774 -0.00 +0.00    +0.141 N  
DOCKED: ATOM     16  C   UNL     1     -26.148  -7.238   4.461 +0.00 +0.00    +0.285 C  
DOCKED: ATOM     17  C   UNL     1     -28.397  -6.498   4.867 -0.00 +0.00    +0.285 C  
DOCKED: ENDBRANCH  14  15
DOCKED: ENDBRANCH  13  14
DOCKED: ENDBRANCH  12  13
DOCKED: ENDBRANCH   2  12
DOCKED: BRANCH   2  18
DOCKED: ATOM     18  C   UNL     1     -30.942  -9.987   4.777 -0.13 +0.00    +0.006 A  
DOCKED: ATOM     19  C   UNL     1     -31.466  -8.999   5.610 -0.12 +0.00    +0.001 A  
DOCKED: ATOM     20  C   UNL     1     -32.408  -8.097   5.112 -0.16 +0.00    +0.029 A  
DOCKED: ATOM     21  C   UNL     1     -32.823  -8.184   3.784 -0.19 +0.00    +0.140 A  
DOCKED: ATOM     22  C   UNL     1     -32.297  -9.172   2.952 -0.21 +0.00    +0.029 A  
DOCKED: ATOM     23  F   UNL     1     -33.725  -7.317   3.307 -0.12 -0.00    -0.204 F  
DOCKED: ATOM     24  C   UNL     1     -31.356 -10.075   3.449 -0.14 +0.00    +0.001 A  
DOCKED: ENDBRANCH   2  18
DOCKED: TORSDOF 5
DOCKED: TER
DOCKED: ENDMDL
________________________________________________________________________________


    FINAL DOCKED STATE:
    ________________________


Run:   90 / 512
Time taken for this run:   0.002s

DOCKED: MODEL        90
DOCKED: USER    Run = 90
DOCKED: USER
DOCKED: USER    Estimated Free Energy of Binding    =  -3.96 kcal/mol  [=(1)+(2)+(3)-(4)]
DOCKED: USER
DOCKED: USER    (1) Final Intermolecular Energy     =  -5.45 kcal/mol
DOCKED: USER        vdW + Hbond + desolv Energy     =  -5.45 kcal/mol
DOCKED: USER        Electrostatic Energy            =  +0.00 kcal/mol
DOCKED: USER        Moving Ligand-Fixed Receptor    =  -5.45 kcal/mol
DOCKED: USER        Moving Ligand-Moving Receptor   =  +0.00 kcal/mol
DOCKED: USER    (2) Final Total Internal Energy     =  -1.28 kcal/mol
DOCKED: USER    (3) Torsional Free Energy           =  +1.49 kcal/mol
DOCKED: USER    (4) Unbound System's Energy         =  -1.28 kcal/mol
DOCKED: USER
DOCKED: USER
DOCKED: REMARK  5 active torsions:
DOCKED: REMARK  status: ('A' for Active; 'I' for Inactive)
DOCKED: REMARK    1  A    between atoms: C_2  and  C_19 
DOCKED: REMARK    2  A    between atoms: C_2  and  C_11 
DOCKED: REMARK    3  A    between atoms: C_19  and  C_20 
DOCKED: REMARK    4  A    between atoms: C_20  and  C_21 
DOCKED: REMARK    5  A    between atoms: C_21  and  N_22 
DOCKED: USER                              x       y       z     vdW  Elec       q    Type
DOCKED: USER                           _______ _______ _______ _____ _____    ______ ____
DOCKED: ROOT
DOCKED: ATOM      1  O   UNL     1     -36.594  -9.408  15.129 -0.01 -0.00    -0.346 OA 
DOCKED: ATOM      2  C   UNL     1     -37.643  -8.884  14.253 -0.08 +0.00    +0.130 C  
DOCKED: ATOM      3  C   UNL     1     -38.106 -10.089  13.487 -0.18 +0.00    +0.004 A  
DOCKED: ATOM      4  C   UNL     1     -37.458 -11.221  13.959 -0.18 +0.00    +0.006 A  
DOCKED: ATOM      5  C   UNL     1     -36.544 -10.852  15.064 -0.09 +0.00    +0.169 C  
DOCKED: ATOM      6  C   UNL     1     -39.035 -10.177  12.460 -0.24 -0.00    -0.001 A  
DOCKED: ATOM      7  C   UNL     1     -37.710 -12.472  13.424 -0.27 +0.00    +0.008 A  
DOCKED: ATOM      8  C   UNL     1     -39.298 -11.431  11.907 -0.20 +0.00    +0.010 A  
DOCKED: ATOM      9  C   UNL     1     -38.639 -12.573  12.387 -0.27 +0.00    +0.068 A  
DOCKED: ATOM     10  N   UNL     1     -39.153 -14.887  11.341 -2.61 -0.00    -0.191 NA 
DOCKED: ATOM     11  C   UNL     1     -38.922 -13.849  11.810 -0.29 +0.00    +0.101 C  
DOCKED: ENDROOT
DOCKED: BRANCH   2  12
DOCKED: ATOM     12  C   UNL     1     -38.738  -8.276  15.122 -0.04 +0.00    +0.038 C  
DOCKED: BRANCH  12  13
DOCKED: ATOM     13  C   UNL     1     -39.942  -9.209  15.233 -0.06 +0.00    +0.038 C  
DOCKED: BRANCH  13  14
DOCKED: ATOM     14  C   UNL     1     -41.194  -8.562  14.642 -0.04 +0.00    +0.251 C  
DOCKED: BRANCH  14  15
DOCKED: ATOM     15  N   UNL     1     -42.173  -9.583  14.289 -0.08 +0.00    +0.141 N  
DOCKED: ATOM     16  C   UNL     1     -42.444  -9.562  12.850 -0.15 +0.00    +0.285 C  
DOCKED: ATOM     17  C   UNL     1     -41.707 -10.909  14.698 -0.03 +0.00    +0.285 C  
DOCKED: ENDBRANCH  14  15
DOCKED: ENDBRANCH  13  14
DOCKED: ENDBRANCH  12  13
DOCKED: ENDBRANCH   2  12
DOCKED: BRANCH   2  18
DOCKED: ATOM     18  C   UNL     1     -37.009  -7.849  13.384 -0.12 +0.00    +0.006 A  
DOCKED: ATOM     19  C   UNL     1     -35.996  -8.210  12.497 -0.17 +0.00    +0.001 A  
DOCKED: ATOM     20  C   UNL     1     -35.405  -7.242  11.685 -0.13 +0.00    +0.029 A  
DOCKED: ATOM     21  C   UNL     1     -35.827  -5.915  11.761 -0.07 +0.00    +0.140 A  
DOCKED: ATOM     22  C   UNL     1     -36.840  -5.555  12.648 -0.07 +0.00    +0.029 A  
DOCKED: ATOM     23  F   UNL     1     -35.260  -4.987  10.980 -0.01 -0.00    -0.204 F  
DOCKED: ATOM     24  C   UNL     1     -37.432  -6.523  13.462 -0.08 +0.00    +0.001 A  
DOCKED: ENDBRANCH   2  18
DOCKED: TORSDOF 5
DOCKED: TER
DOCKED: ENDMDL
________________________________________________________________________________


    FINAL DOCKED STATE:
    ________________________


Run:   91 / 512
Time taken for this run:   0.002s

DOCKED: MODEL        91
DOCKED: USER    Run = 91
DOCKED: USER
DOCKED: USER    Estimated Free Energy of Binding    =  -5.62 kcal/mol  [=(1)+(2)+(3)-(4)]
DOCKED: USER
DOCKED: USER    (1) Final Intermolecular Energy     =  -7.11 kcal/mol
DOCKED: USER        vdW + Hbond + desolv Energy     =  -7.11 kcal/mol
DOCKED: USER        Electrostatic Energy            =  +0.00 kcal/mol
DOCKED: USER        Moving Ligand-Fixed Receptor    =  -7.11 kcal/mol
DOCKED: USER        Moving Ligand-Moving Receptor   =  +0.00 kcal/mol
DOCKED: USER    (2) Final Total Internal Energy     =  -1.07 kcal/mol
DOCKED: USER    (3) Torsional Free Energy           =  +1.49 kcal/mol
DOCKED: USER    (4) Unbound System's Energy         =  -1.07 kcal/mol
DOCKED: USER
DOCKED: USER
DOCKED: REMARK  5 active torsions:
DOCKED: REMARK  status: ('A' for Active; 'I' for Inactive)
DOCKED: REMARK    1  A    between atoms: C_2  and  C_19 
DOCKED: REMARK    2  A    between atoms: C_2  and  C_11 
DOCKED: REMARK    3  A    between atoms: C_19  and  C_20 
DOCKED: REMARK    4  A    between atoms: C_20  and  C_21 
DOCKED: REMARK    5  A    between atoms: C_21  and  N_22 
DOCKED: USER                              x       y       z     vdW  Elec       q    Type
DOCKED: USER                           _______ _______ _______ _____ _____    ______ ____
DOCKED: ROOT
DOCKED: ATOM      1  O   UNL     1     -37.337 -10.446  13.654 -0.06 -0.00    -0.346 OA 
DOCKED: ATOM      2  C   UNL     1     -37.315 -11.899  13.832 -0.21 +0.00    +0.130 C  
DOCKED: ATOM      3  C   UNL     1     -37.807 -12.430  12.517 -0.34 +0.00    +0.004 A  
DOCKED: ATOM      4  C   UNL     1     -37.988 -11.380  11.628 -0.32 +0.00    +0.006 A  
DOCKED: ATOM      5  C   UNL     1     -37.623 -10.102  12.279 -0.21 +0.00    +0.169 C  
DOCKED: ATOM      6  C   UNL     1     -38.063 -13.738  12.134 -0.36 -0.00    -0.001 A  
DOCKED: ATOM      7  C   UNL     1     -38.433 -11.599  10.335 +0.13 +0.00    +0.008 A  
DOCKED: ATOM      8  C   UNL     1     -38.516 -13.975  10.835 -0.50 +0.00    +0.010 A  
DOCKED: ATOM      9  C   UNL     1     -38.699 -12.911   9.940 -0.42 +0.00    +0.068 A  
DOCKED: ATOM     10  N   UNL     1     -39.536 -13.386   7.535 -2.98 -0.00    -0.191 NA 
DOCKED: ATOM     11  C   UNL     1     -39.161 -13.173   8.614 -0.37 +0.00    +0.101 C  
DOCKED: ENDROOT
DOCKED: BRANCH   2  12
DOCKED: ATOM     12  C   UNL     1     -35.887 -12.325  14.147 -0.26 +0.00    +0.038 C  
DOCKED: BRANCH  12  13
DOCKED: ATOM     13  C   UNL     1     -35.162 -11.271  14.982 -0.18 +0.00    +0.038 C  
DOCKED: BRANCH  13  14
DOCKED: ATOM     14  C   UNL     1     -33.684 -11.620  15.146 -0.11 +0.00    +0.251 C  
DOCKED: BRANCH  14  15
DOCKED: ATOM     15  N   UNL     1     -32.898 -11.011  14.080 -0.12 +0.00    +0.141 N  
DOCKED: ATOM     16  C   UNL     1     -33.332  -9.633  13.842 -0.07 +0.00    +0.285 C  
DOCKED: ATOM     17  C   UNL     1     -31.471 -11.044  14.408 -0.06 +0.00    +0.285 C  
DOCKED: ENDBRANCH  14  15
DOCKED: ENDBRANCH  13  14
DOCKED: ENDBRANCH  12  13
DOCKED: ENDBRANCH   2  12
DOCKED: BRANCH   2  18
DOCKED: ATOM     18  C   UNL     1     -38.233 -12.213  14.966 -0.13 +0.00    +0.006 A  
DOCKED: ATOM     19  C   UNL     1     -39.163 -11.266  15.393 -0.07 +0.00    +0.001 A  
DOCKED: ATOM     20  C   UNL     1     -40.021 -11.561  16.453 -0.04 +0.00    +0.029 A  
DOCKED: ATOM     21  C   UNL     1     -39.948 -12.801  17.085 -0.06 +0.00    +0.140 A  
DOCKED: ATOM     22  C   UNL     1     -39.018 -13.748  16.657 -0.16 +0.00    +0.029 A  
DOCKED: ATOM     23  F   UNL     1     -40.772 -13.085  18.102 +0.00 -0.00    -0.204 F  
DOCKED: ATOM     24  C   UNL     1     -38.159 -13.454  15.597 -0.22 +0.00    +0.001 A  
DOCKED: ENDBRANCH   2  18
DOCKED: TORSDOF 5
DOCKED: TER
DOCKED: ENDMDL
________________________________________________________________________________


    FINAL DOCKED STATE:
    ________________________


Run:   92 / 512
Time taken for this run:   0.002s

DOCKED: MODEL        92
DOCKED: USER    Run = 92
DOCKED: USER
DOCKED: USER    Estimated Free Energy of Binding    =  -4.55 kcal/mol  [=(1)+(2)+(3)-(4)]
DOCKED: USER
DOCKED: USER    (1) Final Intermolecular Energy     =  -6.04 kcal/mol
DOCKED: USER        vdW + Hbond + desolv Energy     =  -6.04 kcal/mol
DOCKED: USER        Electrostatic Energy            =  +0.00 kcal/mol
DOCKED: USER        Moving Ligand-Fixed Receptor    =  -6.04 kcal/mol
DOCKED: USER        Moving Ligand-Moving Receptor   =  +0.00 kcal/mol
DOCKED: USER    (2) Final Total Internal Energy     =  -1.10 kcal/mol
DOCKED: USER    (3) Torsional Free Energy           =  +1.49 kcal/mol
DOCKED: USER    (4) Unbound System's Energy         =  -1.10 kcal/mol
DOCKED: USER
DOCKED: USER
DOCKED: REMARK  5 active torsions:
DOCKED: REMARK  status: ('A' for Active; 'I' for Inactive)
DOCKED: REMARK    1  A    between atoms: C_2  and  C_19 
DOCKED: REMARK    2  A    between atoms: C_2  and  C_11 
DOCKED: REMARK    3  A    between atoms: C_19  and  C_20 
DOCKED: REMARK    4  A    between atoms: C_20  and  C_21 
DOCKED: REMARK    5  A    between atoms: C_21  and  N_22 
DOCKED: USER                              x       y       z     vdW  Elec       q    Type
DOCKED: USER                           _______ _______ _______ _____ _____    ______ ____
DOCKED: ROOT
DOCKED: ATOM      1  O   UNL     1     -37.324 -12.947  15.041 -0.06 -0.00    -0.346 OA 
DOCKED: ATOM      2  C   UNL     1     -37.410 -11.615  14.439 -0.14 +0.00    +0.130 C  
DOCKED: ATOM      3  C   UNL     1     -37.832 -11.887  13.024 -0.28 +0.00    +0.004 A  
DOCKED: ATOM      4  C   UNL     1     -38.074 -13.243  12.861 -0.33 +0.00    +0.006 A  
DOCKED: ATOM      5  C   UNL     1     -37.845 -13.952  14.140 -0.23 +0.00    +0.169 C  
DOCKED: ATOM      6  C   UNL     1     -38.000 -11.002  11.969 -0.31 -0.00    -0.001 A  
DOCKED: ATOM      7  C   UNL     1     -38.485 -13.761  11.644 -0.42 +0.00    +0.008 A  
DOCKED: ATOM      8  C   UNL     1     -38.410 -11.509  10.735 -0.10 +0.00    +0.010 A  
DOCKED: ATOM      9  C   UNL     1     -38.652 -12.881  10.574 -0.40 +0.00    +0.068 A  
DOCKED: ATOM     10  N   UNL     1     -39.416 -13.788   8.270 -1.99 -0.00    -0.191 NA 
DOCKED: ATOM     11  C   UNL     1     -39.073 -13.382   9.303 -0.52 +0.00    +0.101 C  
DOCKED: ENDROOT
DOCKED: BRANCH   2  12
DOCKED: ATOM     12  C   UNL     1     -38.435 -10.799  15.218 -0.08 +0.00    +0.038 C  
DOCKED: BRANCH  12  13
DOCKED: ATOM     13  C   UNL     1     -39.792 -10.795  14.518 -0.11 +0.00    +0.038 C  
DOCKED: BRANCH  13  14
DOCKED: ATOM     14  C   UNL     1     -40.519  -9.470  14.737 -0.03 +0.00    +0.251 C  
DOCKED: BRANCH  14  15
DOCKED: ATOM     15  N   UNL     1     -40.534  -8.690  13.505 -0.14 +0.00    +0.141 N  
DOCKED: ATOM     16  C   UNL     1     -41.342  -7.481  13.670 -0.09 +0.00    +0.285 C  
DOCKED: ATOM     17  C   UNL     1     -39.172  -8.339  13.101 -0.15 +0.00    +0.285 C  
DOCKED: ENDBRANCH  14  15
DOCKED: ENDBRANCH  13  14
DOCKED: ENDBRANCH  12  13
DOCKED: ENDBRANCH   2  12
DOCKED: BRANCH   2  18
DOCKED: ATOM     18  C   UNL     1     -36.051 -11.005  14.534 -0.17 +0.00    +0.006 A  
DOCKED: ATOM     19  C   UNL     1     -34.926 -11.753  14.188 -0.15 +0.00    +0.001 A  
DOCKED: ATOM     20  C   UNL     1     -33.657 -11.181  14.277 -0.13 +0.00    +0.029 A  
DOCKED: ATOM     21  C   UNL     1     -33.514  -9.864  14.711 -0.07 +0.00    +0.140 A  
DOCKED: ATOM     22  C   UNL     1     -34.639  -9.117  15.057 -0.06 +0.00    +0.029 A  
DOCKED: ATOM     23  F   UNL     1     -32.295  -9.315  14.795 -0.01 -0.00    -0.204 F  
DOCKED: ATOM     24  C   UNL     1     -35.910  -9.688  14.969 -0.08 +0.00    +0.001 A  
DOCKED: ENDBRANCH   2  18
DOCKED: TORSDOF 5
DOCKED: TER
DOCKED: ENDMDL
________________________________________________________________________________


    FINAL DOCKED STATE:
    ________________________


Run:   93 / 512
Time taken for this run:   0.002s

DOCKED: MODEL        93
DOCKED: USER    Run = 93
DOCKED: USER
DOCKED: USER    Estimated Free Energy of Binding    =  -4.10 kcal/mol  [=(1)+(2)+(3)-(4)]
DOCKED: USER
DOCKED: USER    (1) Final Intermolecular Energy     =  -5.59 kcal/mol
DOCKED: USER        vdW + Hbond + desolv Energy     =  -5.59 kcal/mol
DOCKED: USER        Electrostatic Energy            =  +0.00 kcal/mol
DOCKED: USER        Moving Ligand-Fixed Receptor    =  -5.59 kcal/mol
DOCKED: USER        Moving Ligand-Moving Receptor   =  +0.00 kcal/mol
DOCKED: USER    (2) Final Total Internal Energy     =  -1.00 kcal/mol
DOCKED: USER    (3) Torsional Free Energy           =  +1.49 kcal/mol
DOCKED: USER    (4) Unbound System's Energy         =  -1.00 kcal/mol
DOCKED: USER
DOCKED: USER
DOCKED: REMARK  5 active torsions:
DOCKED: REMARK  status: ('A' for Active; 'I' for Inactive)
DOCKED: REMARK    1  A    between atoms: C_2  and  C_19 
DOCKED: REMARK    2  A    between atoms: C_2  and  C_11 
DOCKED: REMARK    3  A    between atoms: C_19  and  C_20 
DOCKED: REMARK    4  A    between atoms: C_20  and  C_21 
DOCKED: REMARK    5  A    between atoms: C_21  and  N_22 
DOCKED: USER                              x       y       z     vdW  Elec       q    Type
DOCKED: USER                           _______ _______ _______ _____ _____    ______ ____
DOCKED: ROOT
DOCKED: ATOM      1  O   UNL     1     -31.376  -1.600   5.394 -0.07 -0.00    -0.346 OA 
DOCKED: ATOM      2  C   UNL     1     -32.027  -2.907   5.287 -0.12 +0.00    +0.130 C  
DOCKED: ATOM      3  C   UNL     1     -33.100  -2.690   4.259 -0.17 +0.00    +0.004 A  
DOCKED: ATOM      4  C   UNL     1     -33.001  -1.406   3.743 -0.20 +0.00    +0.006 A  
DOCKED: ATOM      5  C   UNL     1     -31.864  -0.698   4.375 -0.15 +0.00    +0.169 C  
DOCKED: ATOM      6  C   UNL     1     -34.079  -3.564   3.808 -0.25 -0.00    -0.001 A  
DOCKED: ATOM      7  C   UNL     1     -33.872  -0.951   2.769 -0.31 +0.00    +0.008 A  
DOCKED: ATOM      8  C   UNL     1     -34.968  -3.119   2.829 -0.00 +0.00    +0.010 A  
DOCKED: ATOM      9  C   UNL     1     -34.865  -1.819   2.312 -0.35 +0.00    +0.068 A  
DOCKED: ATOM     10  N   UNL     1     -36.529  -1.026   0.491 -2.54 -0.00    -0.191 NA 
DOCKED: ATOM     11  C   UNL     1     -35.783  -1.381   1.308 -0.44 +0.00    +0.101 C  
DOCKED: ENDROOT
DOCKED: BRANCH   2  12
DOCKED: ATOM     12  C   UNL     1     -30.986  -3.930   4.851 -0.04 +0.00    +0.038 C  
DOCKED: BRANCH  12  13
DOCKED: ATOM     13  C   UNL     1     -31.316  -4.510   3.477 -0.04 +0.00    +0.038 C  
DOCKED: BRANCH  13  14
DOCKED: ATOM     14  C   UNL     1     -30.681  -3.679   2.363 -0.00 +0.00    +0.251 C  
DOCKED: BRANCH  14  15
DOCKED: ATOM     15  N   UNL     1     -31.023  -4.234   1.059 -0.03 +0.00    +0.141 N  
DOCKED: ATOM     16  C   UNL     1     -32.366  -3.815   0.655 -0.10 +0.00    +0.285 C  
DOCKED: ATOM     17  C   UNL     1     -30.040  -3.827   0.052 +0.00 +0.00    +0.285 C  
DOCKED: ENDBRANCH  14  15
DOCKED: ENDBRANCH  13  14
DOCKED: ENDBRANCH  12  13
DOCKED: ENDBRANCH   2  12
DOCKED: BRANCH   2  18
DOCKED: ATOM     18  C   UNL     1     -32.572  -3.234   6.637 -0.14 +0.00    +0.006 A  
DOCKED: ATOM     19  C   UNL     1     -33.855  -3.767   6.759 -0.16 +0.00    +0.001 A  
DOCKED: ATOM     20  C   UNL     1     -34.364  -4.073   8.022 -0.17 +0.00    +0.029 A  
DOCKED: ATOM     21  C   UNL     1     -33.590  -3.846   9.159 -0.11 +0.00    +0.140 A  
DOCKED: ATOM     22  C   UNL     1     -32.307  -3.314   9.036 -0.10 +0.00    +0.029 A  
DOCKED: ATOM     23  F   UNL     1     -34.078  -4.142  10.371 -0.01 -0.00    -0.204 F  
DOCKED: ATOM     24  C   UNL     1     -31.797  -3.007   7.773 -0.09 +0.00    +0.001 A  
DOCKED: ENDBRANCH   2  18
DOCKED: TORSDOF 5
DOCKED: TER
DOCKED: ENDMDL
________________________________________________________________________________


    FINAL DOCKED STATE:
    ________________________


Run:   94 / 512
Time taken for this run:   0.002s

DOCKED: MODEL        94
DOCKED: USER    Run = 94
DOCKED: USER
DOCKED: USER    Estimated Free Energy of Binding    =  -4.15 kcal/mol  [=(1)+(2)+(3)-(4)]
DOCKED: USER
DOCKED: USER    (1) Final Intermolecular Energy     =  -5.64 kcal/mol
DOCKED: USER        vdW + Hbond + desolv Energy     =  -5.64 kcal/mol
DOCKED: USER        Electrostatic Energy            =  +0.00 kcal/mol
DOCKED: USER        Moving Ligand-Fixed Receptor    =  -5.64 kcal/mol
DOCKED: USER        Moving Ligand-Moving Receptor   =  +0.00 kcal/mol
DOCKED: USER    (2) Final Total Internal Energy     =  -1.18 kcal/mol
DOCKED: USER    (3) Torsional Free Energy           =  +1.49 kcal/mol
DOCKED: USER    (4) Unbound System's Energy         =  -1.18 kcal/mol
DOCKED: USER
DOCKED: USER
DOCKED: REMARK  5 active torsions:
DOCKED: REMARK  status: ('A' for Active; 'I' for Inactive)
DOCKED: REMARK    1  A    between atoms: C_2  and  C_19 
DOCKED: REMARK    2  A    between atoms: C_2  and  C_11 
DOCKED: REMARK    3  A    between atoms: C_19  and  C_20 
DOCKED: REMARK    4  A    between atoms: C_20  and  C_21 
DOCKED: REMARK    5  A    between atoms: C_21  and  N_22 
DOCKED: USER                              x       y       z     vdW  Elec       q    Type
DOCKED: USER                           _______ _______ _______ _____ _____    ______ ____
DOCKED: ROOT
DOCKED: ATOM      1  O   UNL     1     -33.697  -4.674   5.900 -0.04 -0.00    -0.346 OA 
DOCKED: ATOM      2  C   UNL     1     -32.635  -4.448   4.920 -0.09 +0.00    +0.130 C  
DOCKED: ATOM      3  C   UNL     1     -33.319  -3.699   3.813 -0.18 +0.00    +0.004 A  
DOCKED: ATOM      4  C   UNL     1     -34.629  -3.422   4.177 -0.29 +0.00    +0.006 A  
DOCKED: ATOM      5  C   UNL     1     -34.896  -3.951   5.534 -0.23 +0.00    +0.169 C  
DOCKED: ATOM      6  C   UNL     1     -32.818  -3.284   2.588 -0.14 -0.00    -0.001 A  
DOCKED: ATOM      7  C   UNL     1     -35.481  -2.731   3.333 -0.34 +0.00    +0.008 A  
DOCKED: ATOM      8  C   UNL     1     -33.666  -2.589   1.724 -0.23 +0.00    +0.010 A  
DOCKED: ATOM      9  C   UNL     1     -34.991  -2.314   2.095 -0.27 +0.00    +0.068 A  
DOCKED: ATOM     10  N   UNL     1     -36.537  -1.018   0.469 -2.56 -0.00    -0.191 NA 
DOCKED: ATOM     11  C   UNL     1     -35.844  -1.600   1.198 -0.36 +0.00    +0.101 C  
DOCKED: ENDROOT
DOCKED: BRANCH   2  12
DOCKED: ATOM     12  C   UNL     1     -31.526  -3.642   5.586 -0.08 +0.00    +0.038 C  
DOCKED: BRANCH  12  13
DOCKED: ATOM     13  C   UNL     1     -30.740  -4.492   6.582 -0.03 +0.00    +0.038 C  
DOCKED: BRANCH  13  14
DOCKED: ATOM     14  C   UNL     1     -31.634  -4.966   7.726 -0.03 +0.00    +0.251 C  
DOCKED: BRANCH  14  15
DOCKED: ATOM     15  N   UNL     1     -31.658  -3.975   8.795 -0.06 +0.00    +0.141 N  
DOCKED: ATOM     16  C   UNL     1     -30.691  -2.908   8.531 -0.06 +0.00    +0.285 C  
DOCKED: ATOM     17  C   UNL     1     -33.002  -3.415   8.948 -0.09 +0.00    +0.285 C  
DOCKED: ENDBRANCH  14  15
DOCKED: ENDBRANCH  13  14
DOCKED: ENDBRANCH  12  13
DOCKED: ENDBRANCH   2  12
DOCKED: BRANCH   2  18
DOCKED: ATOM     18  C   UNL     1     -32.142  -5.791   4.494 -0.06 +0.00    +0.006 A  
DOCKED: ATOM     19  C   UNL     1     -30.980  -5.897   3.730 -0.02 +0.00    +0.001 A  
DOCKED: ATOM     20  C   UNL     1     -30.521  -7.153   3.332 -0.02 +0.00    +0.029 A  
DOCKED: ATOM     21  C   UNL     1     -31.222  -8.300   3.699 -0.08 +0.00    +0.140 A  
DOCKED: ATOM     22  C   UNL     1     -32.383  -8.194   4.464 -0.18 +0.00    +0.029 A  
DOCKED: ATOM     23  F   UNL     1     -30.780  -9.506   3.319 -0.04 -0.00    -0.204 F  
DOCKED: ATOM     24  C   UNL     1     -32.844  -6.938   4.862 -0.15 +0.00    +0.001 A  
DOCKED: ENDBRANCH   2  18
DOCKED: TORSDOF 5
DOCKED: TER
DOCKED: ENDMDL
________________________________________________________________________________


    FINAL DOCKED STATE:
    ________________________


Run:   95 / 512
Time taken for this run:   0.002s

DOCKED: MODEL        95
DOCKED: USER    Run = 95
DOCKED: USER
DOCKED: USER    Estimated Free Energy of Binding    =  -4.04 kcal/mol  [=(1)+(2)+(3)-(4)]
DOCKED: USER
DOCKED: USER    (1) Final Intermolecular Energy     =  -5.53 kcal/mol
DOCKED: USER        vdW + Hbond + desolv Energy     =  -5.53 kcal/mol
DOCKED: USER        Electrostatic Energy            =  +0.00 kcal/mol
DOCKED: USER        Moving Ligand-Fixed Receptor    =  -5.53 kcal/mol
DOCKED: USER        Moving Ligand-Moving Receptor   =  +0.00 kcal/mol
DOCKED: USER    (2) Final Total Internal Energy     =  -1.07 kcal/mol
DOCKED: USER    (3) Torsional Free Energy           =  +1.49 kcal/mol
DOCKED: USER    (4) Unbound System's Energy         =  -1.07 kcal/mol
DOCKED: USER
DOCKED: USER
DOCKED: REMARK  5 active torsions:
DOCKED: REMARK  status: ('A' for Active; 'I' for Inactive)
DOCKED: REMARK    1  A    between atoms: C_2  and  C_19 
DOCKED: REMARK    2  A    between atoms: C_2  and  C_11 
DOCKED: REMARK    3  A    between atoms: C_19  and  C_20 
DOCKED: REMARK    4  A    between atoms: C_20  and  C_21 
DOCKED: REMARK    5  A    between atoms: C_21  and  N_22 
DOCKED: USER                              x       y       z     vdW  Elec       q    Type
DOCKED: USER                           _______ _______ _______ _____ _____    ______ ____
DOCKED: ROOT
DOCKED: ATOM      1  O   UNL     1     -36.899  -8.342  13.504 -0.04 -0.00    -0.346 OA 
DOCKED: ATOM      2  C   UNL     1     -35.946  -9.379  13.902 -0.12 +0.00    +0.130 C  
DOCKED: ATOM      3  C   UNL     1     -36.585 -10.654  13.431 -0.21 +0.00    +0.004 A  
DOCKED: ATOM      4  C   UNL     1     -37.745 -10.363  12.728 -0.27 +0.00    +0.006 A  
DOCKED: ATOM      5  C   UNL     1     -37.946  -8.898  12.675 -0.17 +0.00    +0.169 C  
DOCKED: ATOM      6  C   UNL     1     -36.166 -11.966  13.602 -0.25 -0.00    -0.001 A  
DOCKED: ATOM      7  C   UNL     1     -38.525 -11.366  12.178 -0.31 +0.00    +0.008 A  
DOCKED: ATOM      8  C   UNL     1     -36.943 -12.989  13.057 -0.35 +0.00    +0.010 A  
DOCKED: ATOM      9  C   UNL     1     -38.117 -12.690  12.348 -0.31 +0.00    +0.068 A  
DOCKED: ATOM     10  N   UNL     1     -39.534 -14.612  11.344 -2.56 -0.00    -0.191 NA 
DOCKED: ATOM     11  C   UNL     1     -38.899 -13.750  11.795 -0.36 +0.00    +0.101 C  
DOCKED: ENDROOT
DOCKED: BRANCH   2  12
DOCKED: ATOM     12  C   UNL     1     -34.613  -9.097  13.221 -0.13 +0.00    +0.038 C  
DOCKED: BRANCH  12  13
DOCKED: ATOM     13  C   UNL     1     -34.813  -8.504  11.828 -0.12 +0.00    +0.038 C  
DOCKED: BRANCH  13  14
DOCKED: ATOM     14  C   UNL     1     -34.721  -6.979  11.861 -0.08 +0.00    +0.251 C  
DOCKED: BRANCH  14  15
DOCKED: ATOM     15  N   UNL     1     -34.278  -6.470  10.569 -0.07 +0.00    +0.141 N  
DOCKED: ATOM     16  C   UNL     1     -35.385  -5.824   9.862 -0.05 +0.00    +0.285 C  
DOCKED: ATOM     17  C   UNL     1     -33.167  -5.532  10.738 -0.02 +0.00    +0.285 C  
DOCKED: ENDBRANCH  14  15
DOCKED: ENDBRANCH  13  14
DOCKED: ENDBRANCH  12  13
DOCKED: ENDBRANCH   2  12
DOCKED: BRANCH   2  18
DOCKED: ATOM     18  C   UNL     1     -35.819  -9.307  15.388 -0.05 +0.00    +0.006 A  
DOCKED: ATOM     19  C   UNL     1     -34.658  -8.791  15.963 -0.02 +0.00    +0.001 A  
DOCKED: ATOM     20  C   UNL     1     -34.540  -8.724  17.352 -0.01 +0.00    +0.029 A  
DOCKED: ATOM     21  C   UNL     1     -35.581  -9.173  18.162 -0.00 +0.00    +0.140 A  
DOCKED: ATOM     22  C   UNL     1     -36.742  -9.689  17.586 -0.01 +0.00    +0.029 A  
DOCKED: ATOM     23  F   UNL     1     -35.468  -9.108  19.495 +0.00 -0.00    -0.204 F  
DOCKED: ATOM     24  C   UNL     1     -36.861  -9.757  16.197 -0.03 +0.00    +0.001 A  
DOCKED: ENDBRANCH   2  18
DOCKED: TORSDOF 5
DOCKED: TER
DOCKED: ENDMDL
________________________________________________________________________________


    FINAL DOCKED STATE:
    ________________________


Run:   96 / 512
Time taken for this run:   0.002s

DOCKED: MODEL        96
DOCKED: USER    Run = 96
DOCKED: USER
DOCKED: USER    Estimated Free Energy of Binding    =  -5.16 kcal/mol  [=(1)+(2)+(3)-(4)]
DOCKED: USER
DOCKED: USER    (1) Final Intermolecular Energy     =  -6.65 kcal/mol
DOCKED: USER        vdW + Hbond + desolv Energy     =  -6.65 kcal/mol
DOCKED: USER        Electrostatic Energy            =  +0.00 kcal/mol
DOCKED: USER        Moving Ligand-Fixed Receptor    =  -6.65 kcal/mol
DOCKED: USER        Moving Ligand-Moving Receptor   =  +0.00 kcal/mol
DOCKED: USER    (2) Final Total Internal Energy     =  -0.95 kcal/mol
DOCKED: USER    (3) Torsional Free Energy           =  +1.49 kcal/mol
DOCKED: USER    (4) Unbound System's Energy         =  -0.95 kcal/mol
DOCKED: USER
DOCKED: USER
DOCKED: REMARK  5 active torsions:
DOCKED: REMARK  status: ('A' for Active; 'I' for Inactive)
DOCKED: REMARK    1  A    between atoms: C_2  and  C_19 
DOCKED: REMARK    2  A    between atoms: C_2  and  C_11 
DOCKED: REMARK    3  A    between atoms: C_19  and  C_20 
DOCKED: REMARK    4  A    between atoms: C_20  and  C_21 
DOCKED: REMARK    5  A    between atoms: C_21  and  N_22 
DOCKED: USER                              x       y       z     vdW  Elec       q    Type
DOCKED: USER                           _______ _______ _______ _____ _____    ______ ____
DOCKED: ROOT
DOCKED: ATOM      1  O   UNL     1     -40.605 -11.436  14.140 -0.01 -0.00    -0.346 OA 
DOCKED: ATOM      2  C   UNL     1     -39.166 -11.429  13.871 -0.12 +0.00    +0.130 C  
DOCKED: ATOM      3  C   UNL     1     -39.059 -11.963  12.472 -0.27 +0.00    +0.004 A  
DOCKED: ATOM      4  C   UNL     1     -40.329 -12.153  11.946 -0.27 +0.00    +0.006 A  
DOCKED: ATOM      5  C   UNL     1     -41.350 -11.753  12.941 -0.18 +0.00    +0.169 C  
DOCKED: ATOM      6  C   UNL     1     -37.928 -12.246  11.720 -0.37 -0.00    -0.001 A  
DOCKED: ATOM      7  C   UNL     1     -40.513 -12.633  10.661 -0.26 +0.00    +0.008 A  
DOCKED: ATOM      8  C   UNL     1     -38.097 -12.735  10.424 -0.17 +0.00    +0.010 A  
DOCKED: ATOM      9  C   UNL     1     -39.383 -12.928   9.897 -0.39 +0.00    +0.068 A  
DOCKED: ATOM     10  N   UNL     1     -39.659 -13.833   7.485 -2.61 -0.00    -0.191 NA 
DOCKED: ATOM     11  C   UNL     1     -39.535 -13.428   8.567 -0.29 +0.00    +0.101 C  
DOCKED: ENDROOT
DOCKED: BRANCH   2  12
DOCKED: ATOM     12  C   UNL     1     -38.658  -9.999  14.002 -0.14 +0.00    +0.038 C  
DOCKED: BRANCH  12  13
DOCKED: ATOM     13  C   UNL     1     -37.133  -9.955  14.084 -0.15 +0.00    +0.038 C  
DOCKED: BRANCH  13  14
DOCKED: ATOM     14  C   UNL     1     -36.605  -8.561  13.753 -0.08 +0.00    +0.251 C  
DOCKED: BRANCH  14  15
DOCKED: ATOM     15  N   UNL     1     -35.616  -8.633  12.684 -0.14 +0.00    +0.141 N  
DOCKED: ATOM     16  C   UNL     1     -35.563  -7.372  11.944 -0.10 +0.00    +0.285 C  
DOCKED: ATOM     17  C   UNL     1     -34.295  -8.961  13.225 -0.08 +0.00    +0.285 C  
DOCKED: ENDBRANCH  14  15
DOCKED: ENDBRANCH  13  14
DOCKED: ENDBRANCH  12  13
DOCKED: ENDBRANCH   2  12
DOCKED: BRANCH   2  18
DOCKED: ATOM     18  C   UNL     1     -38.530 -12.322  14.884 -0.14 +0.00    +0.006 A  
DOCKED: ATOM     19  C   UNL     1     -38.043 -13.572  14.503 -0.27 +0.00    +0.001 A  
DOCKED: ATOM     20  C   UNL     1     -37.448 -14.405  15.451 -0.15 +0.00    +0.029 A  
DOCKED: ATOM     21  C   UNL     1     -37.340 -13.988  16.777 -0.18 +0.00    +0.140 A  
DOCKED: ATOM     22  C   UNL     1     -37.826 -12.737  17.157 -0.11 +0.00    +0.029 A  
DOCKED: ATOM     23  F   UNL     1     -36.767 -14.787  17.686 -0.10 -0.00    -0.204 F  
DOCKED: ATOM     24  C   UNL     1     -38.422 -11.903  16.209 -0.08 +0.00    +0.001 A  
DOCKED: ENDBRANCH   2  18
DOCKED: TORSDOF 5
DOCKED: TER
DOCKED: ENDMDL
________________________________________________________________________________


    FINAL DOCKED STATE:
    ________________________


Run:   97 / 512
Time taken for this run:   0.002s

DOCKED: MODEL        97
DOCKED: USER    Run = 97
DOCKED: USER
DOCKED: USER    Estimated Free Energy of Binding    =  -4.53 kcal/mol  [=(1)+(2)+(3)-(4)]
DOCKED: USER
DOCKED: USER    (1) Final Intermolecular Energy     =  -6.02 kcal/mol
DOCKED: USER        vdW + Hbond + desolv Energy     =  -6.02 kcal/mol
DOCKED: USER        Electrostatic Energy            =  +0.00 kcal/mol
DOCKED: USER        Moving Ligand-Fixed Receptor    =  -6.02 kcal/mol
DOCKED: USER        Moving Ligand-Moving Receptor   =  +0.00 kcal/mol
DOCKED: USER    (2) Final Total Internal Energy     =  -0.99 kcal/mol
DOCKED: USER    (3) Torsional Free Energy           =  +1.49 kcal/mol
DOCKED: USER    (4) Unbound System's Energy         =  -0.99 kcal/mol
DOCKED: USER
DOCKED: USER
DOCKED: REMARK  5 active torsions:
DOCKED: REMARK  status: ('A' for Active; 'I' for Inactive)
DOCKED: REMARK    1  A    between atoms: C_2  and  C_19 
DOCKED: REMARK    2  A    between atoms: C_2  and  C_11 
DOCKED: REMARK    3  A    between atoms: C_19  and  C_20 
DOCKED: REMARK    4  A    between atoms: C_20  and  C_21 
DOCKED: REMARK    5  A    between atoms: C_21  and  N_22 
DOCKED: USER                              x       y       z     vdW  Elec       q    Type
DOCKED: USER                           _______ _______ _______ _____ _____    ______ ____
DOCKED: ROOT
DOCKED: ATOM      1  O   UNL     1     -38.958 -10.546  14.387 -0.01 -0.00    -0.346 OA 
DOCKED: ATOM      2  C   UNL     1     -37.822 -11.460  14.253 -0.13 +0.00    +0.130 C  
DOCKED: ATOM      3  C   UNL     1     -38.034 -12.102  12.912 -0.29 +0.00    +0.004 A  
DOCKED: ATOM      4  C   UNL     1     -39.131 -11.527  12.287 -0.28 +0.00    +0.006 A  
DOCKED: ATOM      5  C   UNL     1     -39.705 -10.471  13.150 -0.17 +0.00    +0.169 C  
DOCKED: ATOM      6  C   UNL     1     -37.306 -13.107  12.292 -0.38 -0.00    -0.001 A  
DOCKED: ATOM      7  C   UNL     1     -39.539 -11.936  11.029 +0.07 +0.00    +0.008 A  
DOCKED: ATOM      8  C   UNL     1     -37.708 -13.534  11.025 -0.23 +0.00    +0.010 A  
DOCKED: ATOM      9  C   UNL     1     -38.819 -12.951  10.397 -0.42 +0.00    +0.068 A  
DOCKED: ATOM     10  N   UNL     1     -39.536 -13.763   8.043 -2.28 -0.00    -0.191 NA 
DOCKED: ATOM     11  C   UNL     1     -39.215 -13.399   9.099 -0.49 +0.00    +0.101 C  
DOCKED: ENDROOT
DOCKED: BRANCH   2  12
DOCKED: ATOM     12  C   UNL     1     -36.536 -10.645  14.324 -0.17 +0.00    +0.038 C  
DOCKED: BRANCH  12  13
DOCKED: ATOM     13  C   UNL     1     -36.825  -9.171  14.603 -0.08 +0.00    +0.038 C  
DOCKED: BRANCH  13  14
DOCKED: ATOM     14  C   UNL     1     -35.650  -8.291  14.181 -0.05 +0.00    +0.251 C  
DOCKED: BRANCH  14  15
DOCKED: ATOM     15  N   UNL     1     -34.988  -8.856  13.012 -0.12 +0.00    +0.141 N  
DOCKED: ATOM     16  C   UNL     1     -34.990  -7.899  11.904 -0.11 +0.00    +0.285 C  
DOCKED: ATOM     17  C   UNL     1     -33.616  -9.252  13.337 -0.06 +0.00    +0.285 C  
DOCKED: ENDBRANCH  14  15
DOCKED: ENDBRANCH  13  14
DOCKED: ENDBRANCH  12  13
DOCKED: ENDBRANCH   2  12
DOCKED: BRANCH   2  18
DOCKED: ATOM     18  C   UNL     1     -37.907 -12.430  15.383 -0.14 +0.00    +0.006 A  
DOCKED: ATOM     19  C   UNL     1     -37.230 -13.647  15.309 -0.19 +0.00    +0.001 A  
DOCKED: ATOM     20  C   UNL     1     -37.311 -14.554  16.366 -0.13 +0.00    +0.029 A  
DOCKED: ATOM     21  C   UNL     1     -38.068 -14.243  17.495 -0.12 +0.00    +0.140 A  
DOCKED: ATOM     22  C   UNL     1     -38.745 -13.026  17.569 -0.11 +0.00    +0.029 A  
DOCKED: ATOM     23  F   UNL     1     -38.144 -15.113  18.511 -0.06 -0.00    -0.204 F  
DOCKED: ATOM     24  C   UNL     1     -38.665 -12.118  16.511 -0.08 +0.00    +0.001 A  
DOCKED: ENDBRANCH   2  18
DOCKED: TORSDOF 5
DOCKED: TER
DOCKED: ENDMDL
________________________________________________________________________________


    FINAL DOCKED STATE:
    ________________________


Run:   98 / 512
Time taken for this run:   0.002s

DOCKED: MODEL        98
DOCKED: USER    Run = 98
DOCKED: USER
DOCKED: USER    Estimated Free Energy of Binding    =  -4.41 kcal/mol  [=(1)+(2)+(3)-(4)]
DOCKED: USER
DOCKED: USER    (1) Final Intermolecular Energy     =  -5.90 kcal/mol
DOCKED: USER        vdW + Hbond + desolv Energy     =  -5.90 kcal/mol
DOCKED: USER        Electrostatic Energy            =  +0.00 kcal/mol
DOCKED: USER        Moving Ligand-Fixed Receptor    =  -5.90 kcal/mol
DOCKED: USER        Moving Ligand-Moving Receptor   =  +0.00 kcal/mol
DOCKED: USER    (2) Final Total Internal Energy     =  -1.34 kcal/mol
DOCKED: USER    (3) Torsional Free Energy           =  +1.49 kcal/mol
DOCKED: USER    (4) Unbound System's Energy         =  -1.34 kcal/mol
DOCKED: USER
DOCKED: USER
DOCKED: REMARK  5 active torsions:
DOCKED: REMARK  status: ('A' for Active; 'I' for Inactive)
DOCKED: REMARK    1  A    between atoms: C_2  and  C_19 
DOCKED: REMARK    2  A    between atoms: C_2  and  C_11 
DOCKED: REMARK    3  A    between atoms: C_19  and  C_20 
DOCKED: REMARK    4  A    between atoms: C_20  and  C_21 
DOCKED: REMARK    5  A    between atoms: C_21  and  N_22 
DOCKED: USER                              x       y       z     vdW  Elec       q    Type
DOCKED: USER                           _______ _______ _______ _____ _____    ______ ____
DOCKED: ROOT
DOCKED: ATOM      1  O   UNL     1     -36.834  -8.465  13.310 -0.05 -0.00    -0.346 OA 
DOCKED: ATOM      2  C   UNL     1     -38.266  -8.522  13.605 -0.13 +0.00    +0.130 C  
DOCKED: ATOM      3  C   UNL     1     -38.678  -9.885  13.129 -0.21 +0.00    +0.004 A  
DOCKED: ATOM      4  C   UNL     1     -37.560 -10.588  12.702 -0.28 +0.00    +0.006 A  
DOCKED: ATOM      5  C   UNL     1     -36.348  -9.756  12.875 -0.17 +0.00    +0.169 C  
DOCKED: ATOM      6  C   UNL     1     -39.939 -10.461  13.088 -0.21 -0.00    -0.001 A  
DOCKED: ATOM      7  C   UNL     1     -37.663 -11.880  12.218 -0.34 +0.00    +0.008 A  
DOCKED: ATOM      8  C   UNL     1     -40.060 -11.763  12.598 -0.23 +0.00    +0.010 A  
DOCKED: ATOM      9  C   UNL     1     -38.927 -12.469  12.166 -0.27 +0.00    +0.068 A  
DOCKED: ATOM     10  N   UNL     1     -39.186 -14.885  11.267 -2.57 -0.00    -0.191 NA 
DOCKED: ATOM     11  C   UNL     1     -39.070 -13.801  11.669 -0.36 +0.00    +0.101 C  
DOCKED: ENDROOT
DOCKED: BRANCH   2  12
DOCKED: ATOM     12  C   UNL     1     -38.458  -8.335  15.105 -0.04 +0.00    +0.038 C  
DOCKED: BRANCH  12  13
DOCKED: ATOM     13  C   UNL     1     -37.290  -7.569  15.725 -0.02 +0.00    +0.038 C  
DOCKED: BRANCH  13  14
DOCKED: ATOM     14  C   UNL     1     -37.450  -6.064  15.521 -0.00 +0.00    +0.251 C  
DOCKED: BRANCH  14  15
DOCKED: ATOM     15  N   UNL     1     -36.151  -5.443  15.288 -0.00 +0.00    +0.141 N  
DOCKED: ATOM     16  C   UNL     1     -35.634  -4.849  16.521 +0.00 +0.00    +0.285 C  
DOCKED: ATOM     17  C   UNL     1     -35.199  -6.422  14.758 -0.01 +0.00    +0.285 C  
DOCKED: ENDBRANCH  14  15
DOCKED: ENDBRANCH  13  14
DOCKED: ENDBRANCH  12  13
DOCKED: ENDBRANCH   2  12
DOCKED: BRANCH   2  18
DOCKED: ATOM     18  C   UNL     1     -38.914  -7.418  12.838 -0.19 +0.00    +0.006 A  
DOCKED: ATOM     19  C   UNL     1     -40.300  -7.269  12.866 -0.21 +0.00    +0.001 A  
DOCKED: ATOM     20  C   UNL     1     -40.904  -6.237  12.148 -0.17 +0.00    +0.029 A  
DOCKED: ATOM     21  C   UNL     1     -40.122  -5.355  11.403 -0.09 +0.00    +0.140 A  
DOCKED: ATOM     22  C   UNL     1     -38.736  -5.504  11.376 -0.16 +0.00    +0.029 A  
DOCKED: ATOM     23  F   UNL     1     -40.702  -4.363  10.716 -0.03 -0.00    -0.204 F  
DOCKED: ATOM     24  C   UNL     1     -38.130  -6.537  12.094 -0.15 +0.00    +0.001 A  
DOCKED: ENDBRANCH   2  18
DOCKED: TORSDOF 5
DOCKED: TER
DOCKED: ENDMDL
________________________________________________________________________________


    FINAL DOCKED STATE:
    ________________________


Run:   99 / 512
Time taken for this run:   0.002s

DOCKED: MODEL        99
DOCKED: USER    Run = 99
DOCKED: USER
DOCKED: USER    Estimated Free Energy of Binding    =  -3.38 kcal/mol  [=(1)+(2)+(3)-(4)]
DOCKED: USER
DOCKED: USER    (1) Final Intermolecular Energy     =  -4.87 kcal/mol
DOCKED: USER        vdW + Hbond + desolv Energy     =  -4.87 kcal/mol
DOCKED: USER        Electrostatic Energy            =  +0.00 kcal/mol
DOCKED: USER        Moving Ligand-Fixed Receptor    =  -4.87 kcal/mol
DOCKED: USER        Moving Ligand-Moving Receptor   =  +0.00 kcal/mol
DOCKED: USER    (2) Final Total Internal Energy     =  -1.61 kcal/mol
DOCKED: USER    (3) Torsional Free Energy           =  +1.49 kcal/mol
DOCKED: USER    (4) Unbound System's Energy         =  -1.61 kcal/mol
DOCKED: USER
DOCKED: USER
DOCKED: REMARK  5 active torsions:
DOCKED: REMARK  status: ('A' for Active; 'I' for Inactive)
DOCKED: REMARK    1  A    between atoms: C_2  and  C_19 
DOCKED: REMARK    2  A    between atoms: C_2  and  C_11 
DOCKED: REMARK    3  A    between atoms: C_19  and  C_20 
DOCKED: REMARK    4  A    between atoms: C_20  and  C_21 
DOCKED: REMARK    5  A    between atoms: C_21  and  N_22 
DOCKED: USER                              x       y       z     vdW  Elec       q    Type
DOCKED: USER                           _______ _______ _______ _____ _____    ______ ____
DOCKED: ROOT
DOCKED: ATOM      1  O   UNL     1     -30.840  -0.012   3.923 -0.02 -0.00    -0.346 OA 
DOCKED: ATOM      2  C   UNL     1     -30.654  -0.271   2.494 -0.07 +0.00    +0.130 C  
DOCKED: ATOM      3  C   UNL     1     -32.027  -0.648   2.016 -0.16 +0.00    +0.004 A  
DOCKED: ATOM      4  C   UNL     1     -32.937  -0.509   3.054 -0.21 +0.00    +0.006 A  
DOCKED: ATOM      5  C   UNL     1     -32.244  -0.026   4.269 -0.19 +0.00    +0.169 C  
DOCKED: ATOM      6  C   UNL     1     -32.438  -1.069   0.760 -0.19 -0.00    -0.001 A  
DOCKED: ATOM      7  C   UNL     1     -34.281  -0.789   2.876 -0.34 +0.00    +0.008 A  
DOCKED: ATOM      8  C   UNL     1     -33.790  -1.359   0.565 -0.31 +0.00    +0.010 A  
DOCKED: ATOM      9  C   UNL     1     -34.706  -1.219   1.618 -0.37 +0.00    +0.068 A  
DOCKED: ATOM     10  N   UNL     1     -37.209  -1.760   1.221 -2.46 -0.00    -0.191 NA 
DOCKED: ATOM     11  C   UNL     1     -36.086  -1.518   1.399 -0.31 +0.00    +0.101 C  
DOCKED: ENDROOT
DOCKED: BRANCH   2  12
DOCKED: ATOM     12  C   UNL     1     -30.125   0.998   1.838 -0.11 +0.00    +0.038 C  
DOCKED: BRANCH  12  13
DOCKED: ATOM     13  C   UNL     1     -29.707   2.032   2.882 -0.08 +0.00    +0.038 C  
DOCKED: BRANCH  13  14
DOCKED: ATOM     14  C   UNL     1     -28.234   1.874   3.252 -0.00 +0.00    +0.251 C  
DOCKED: BRANCH  14  15
DOCKED: ATOM     15  N   UNL     1     -28.053   0.732   4.140 -0.01 +0.00    +0.141 N  
DOCKED: ATOM     16  C   UNL     1     -26.660   0.284   4.128 +0.00 +0.00    +0.285 C  
DOCKED: ATOM     17  C   UNL     1     -28.466   1.068   5.504 -0.01 +0.00    +0.285 C  
DOCKED: ENDBRANCH  14  15
DOCKED: ENDBRANCH  13  14
DOCKED: ENDBRANCH  12  13
DOCKED: ENDBRANCH   2  12
DOCKED: BRANCH   2  18
DOCKED: ATOM     18  C   UNL     1     -29.671  -1.388   2.378 -0.02 +0.00    +0.006 A  
DOCKED: ATOM     19  C   UNL     1     -28.787  -1.428   1.300 -0.01 +0.00    +0.001 A  
DOCKED: ATOM     20  C   UNL     1     -27.868  -2.473   1.192 -0.00 +0.00    +0.029 A  
DOCKED: ATOM     21  C   UNL     1     -27.834  -3.474   2.161 -0.00 +0.00    +0.140 A  
DOCKED: ATOM     22  C   UNL     1     -28.718  -3.433   3.239 -0.00 +0.00    +0.029 A  
DOCKED: ATOM     23  F   UNL     1     -26.951  -4.476   2.058 +0.00 -0.00    -0.204 F  
DOCKED: ATOM     24  C   UNL     1     -29.638  -2.389   3.347 -0.02 +0.00    +0.001 A  
DOCKED: ENDBRANCH   2  18
DOCKED: TORSDOF 5
DOCKED: TER
DOCKED: ENDMDL
________________________________________________________________________________


    FINAL DOCKED STATE:
    ________________________


Run:   100 / 512
Time taken for this run:   0.002s

DOCKED: MODEL        100
DOCKED: USER    Run = 100
DOCKED: USER
DOCKED: USER    Estimated Free Energy of Binding    =  -4.34 kcal/mol  [=(1)+(2)+(3)-(4)]
DOCKED: USER
DOCKED: USER    (1) Final Intermolecular Energy     =  -5.83 kcal/mol
DOCKED: USER        vdW + Hbond + desolv Energy     =  -5.83 kcal/mol
DOCKED: USER        Electrostatic Energy            =  +0.00 kcal/mol
DOCKED: USER        Moving Ligand-Fixed Receptor    =  -5.83 kcal/mol
DOCKED: USER        Moving Ligand-Moving Receptor   =  +0.00 kcal/mol
DOCKED: USER    (2) Final Total Internal Energy     =  -1.52 kcal/mol
DOCKED: USER    (3) Torsional Free Energy           =  +1.49 kcal/mol
DOCKED: USER    (4) Unbound System's Energy         =  -1.52 kcal/mol
DOCKED: USER
DOCKED: USER
DOCKED: REMARK  5 active torsions:
DOCKED: REMARK  status: ('A' for Active; 'I' for Inactive)
DOCKED: REMARK    1  A    between atoms: C_2  and  C_19 
DOCKED: REMARK    2  A    between atoms: C_2  and  C_11 
DOCKED: REMARK    3  A    between atoms: C_19  and  C_20 
DOCKED: REMARK    4  A    between atoms: C_20  and  C_21 
DOCKED: REMARK    5  A    between atoms: C_21  and  N_22 
DOCKED: USER                              x       y       z     vdW  Elec       q    Type
DOCKED: USER                           _______ _______ _______ _____ _____    ______ ____
DOCKED: ROOT
DOCKED: ATOM      1  O   UNL     1     -35.250  -9.584  14.100 -0.06 -0.00    -0.346 OA 
DOCKED: ATOM      2  C   UNL     1     -36.527  -9.009  13.674 -0.13 +0.00    +0.130 C  
DOCKED: ATOM      3  C   UNL     1     -37.271 -10.177  13.093 -0.23 +0.00    +0.004 A  
DOCKED: ATOM      4  C   UNL     1     -36.531 -11.337  13.271 -0.23 +0.00    +0.006 A  
DOCKED: ATOM      5  C   UNL     1     -35.271 -11.025  13.982 -0.12 +0.00    +0.169 C  
DOCKED: ATOM      6  C   UNL     1     -38.509 -10.211  12.468 -0.27 -0.00    -0.001 A  
DOCKED: ATOM      7  C   UNL     1     -36.997 -12.563  12.829 -0.32 +0.00    +0.008 A  
DOCKED: ATOM      8  C   UNL     1     -38.990 -11.439  12.012 -0.28 +0.00    +0.010 A  
DOCKED: ATOM      9  C   UNL     1     -38.238 -12.609  12.192 -0.31 +0.00    +0.068 A  
DOCKED: ATOM     10  N   UNL     1     -39.164 -14.874  11.339 -2.61 -0.00    -0.191 NA 
DOCKED: ATOM     11  C   UNL     1     -38.748 -13.858  11.721 -0.33 +0.00    +0.101 C  
DOCKED: ENDROOT
DOCKED: BRANCH   2  12
DOCKED: ATOM     12  C   UNL     1     -37.219  -8.413  14.895 -0.05 +0.00    +0.038 C  
DOCKED: BRANCH  12  13
DOCKED: ATOM     13  C   UNL     1     -37.345  -9.438  16.020 -0.03 +0.00    +0.038 C  
DOCKED: BRANCH  13  14
DOCKED: ATOM     14  C   UNL     1     -38.783  -9.934  16.153 -0.01 +0.00    +0.251 C  
DOCKED: BRANCH  14  15
DOCKED: ATOM     15  N   UNL     1     -38.905 -11.285  15.617 -0.04 +0.00    +0.141 N  
DOCKED: ATOM     16  C   UNL     1     -38.158 -12.236  16.441 -0.05 +0.00    +0.285 C  
DOCKED: ATOM     17  C   UNL     1     -40.312 -11.681  15.534 -0.01 +0.00    +0.285 C  
DOCKED: ENDBRANCH  14  15
DOCKED: ENDBRANCH  13  14
DOCKED: ENDBRANCH  12  13
DOCKED: ENDBRANCH   2  12
DOCKED: BRANCH   2  18
DOCKED: ATOM     18  C   UNL     1     -36.216  -7.956  12.664 -0.15 +0.00    +0.006 A  
DOCKED: ATOM     19  C   UNL     1     -37.058  -6.853  12.525 -0.13 +0.00    +0.001 A  
DOCKED: ATOM     20  C   UNL     1     -36.767  -5.870  11.579 -0.11 +0.00    +0.029 A  
DOCKED: ATOM     21  C   UNL     1     -35.635  -5.990  10.775 -0.06 +0.00    +0.140 A  
DOCKED: ATOM     22  C   UNL     1     -34.793  -7.093  10.914 -0.12 +0.00    +0.029 A  
DOCKED: ATOM     23  F   UNL     1     -35.354  -5.044   9.868 -0.02 -0.00    -0.204 F  
DOCKED: ATOM     24  C   UNL     1     -35.084  -8.078  11.859 -0.16 +0.00    +0.001 A  
DOCKED: ENDBRANCH   2  18
DOCKED: TORSDOF 5
DOCKED: TER
DOCKED: ENDMDL
________________________________________________________________________________


    FINAL DOCKED STATE:
    ________________________


Run:   101 / 512
Time taken for this run:   0.002s

DOCKED: MODEL        101
DOCKED: USER    Run = 101
DOCKED: USER
DOCKED: USER    Estimated Free Energy of Binding    =  -4.48 kcal/mol  [=(1)+(2)+(3)-(4)]
DOCKED: USER
DOCKED: USER    (1) Final Intermolecular Energy     =  -5.97 kcal/mol
DOCKED: USER        vdW + Hbond + desolv Energy     =  -5.97 kcal/mol
DOCKED: USER        Electrostatic Energy            =  +0.00 kcal/mol
DOCKED: USER        Moving Ligand-Fixed Receptor    =  -5.97 kcal/mol
DOCKED: USER        Moving Ligand-Moving Receptor   =  +0.00 kcal/mol
DOCKED: USER    (2) Final Total Internal Energy     =  -1.27 kcal/mol
DOCKED: USER    (3) Torsional Free Energy           =  +1.49 kcal/mol
DOCKED: USER    (4) Unbound System's Energy         =  -1.27 kcal/mol
DOCKED: USER
DOCKED: USER
DOCKED: REMARK  5 active torsions:
DOCKED: REMARK  status: ('A' for Active; 'I' for Inactive)
DOCKED: REMARK    1  A    between atoms: C_2  and  C_19 
DOCKED: REMARK    2  A    between atoms: C_2  and  C_11 
DOCKED: REMARK    3  A    between atoms: C_19  and  C_20 
DOCKED: REMARK    4  A    between atoms: C_20  and  C_21 
DOCKED: REMARK    5  A    between atoms: C_21  and  N_22 
DOCKED: USER                              x       y       z     vdW  Elec       q    Type
DOCKED: USER                           _______ _______ _______ _____ _____    ______ ____
DOCKED: ROOT
DOCKED: ATOM      1  O   UNL     1     -36.840  -8.159  13.110 -0.05 -0.00    -0.346 OA 
DOCKED: ATOM      2  C   UNL     1     -38.278  -8.116  13.378 -0.14 +0.00    +0.130 C  
DOCKED: ATOM      3  C   UNL     1     -38.762  -9.476  12.962 -0.22 +0.00    +0.004 A  
DOCKED: ATOM      4  C   UNL     1     -37.681 -10.264  12.594 -0.27 +0.00    +0.006 A  
DOCKED: ATOM      5  C   UNL     1     -36.424  -9.497  12.750 -0.17 +0.00    +0.169 C  
DOCKED: ATOM      6  C   UNL     1     -40.054  -9.978  12.924 -0.22 -0.00    -0.001 A  
DOCKED: ATOM      7  C   UNL     1     -37.852 -11.571  12.173 -0.33 +0.00    +0.008 A  
DOCKED: ATOM      8  C   UNL     1     -40.244 -11.294  12.497 -0.22 +0.00    +0.010 A  
DOCKED: ATOM      9  C   UNL     1     -39.148 -12.086  12.125 -0.26 +0.00    +0.068 A  
DOCKED: ATOM     10  N   UNL     1     -39.535 -14.526  11.343 -2.56 -0.00    -0.191 NA 
DOCKED: ATOM     11  C   UNL     1     -39.362 -13.432  11.693 -0.36 +0.00    +0.101 C  
DOCKED: ENDROOT
DOCKED: BRANCH   2  12
DOCKED: ATOM     12  C   UNL     1     -38.485  -7.841  14.863 -0.05 +0.00    +0.038 C  
DOCKED: BRANCH  12  13
DOCKED: ATOM     13  C   UNL     1     -37.313  -8.360  15.694 -0.03 +0.00    +0.038 C  
DOCKED: BRANCH  13  14
DOCKED: ATOM     14  C   UNL     1     -37.428  -9.866  15.925 -0.02 +0.00    +0.251 C  
DOCKED: BRANCH  14  15
DOCKED: ATOM     15  N   UNL     1     -36.155 -10.406  16.387 -0.03 +0.00    +0.141 N  
DOCKED: ATOM     16  C   UNL     1     -35.710 -11.496  15.517 -0.08 +0.00    +0.285 C  
DOCKED: ATOM     17  C   UNL     1     -35.139  -9.354  16.445 -0.01 +0.00    +0.285 C  
DOCKED: ENDBRANCH  14  15
DOCKED: ENDBRANCH  13  14
DOCKED: ENDBRANCH  12  13
DOCKED: ENDBRANCH   2  12
DOCKED: BRANCH   2  18
DOCKED: ATOM     18  C   UNL     1     -38.845  -7.017  12.543 -0.19 +0.00    +0.006 A  
DOCKED: ATOM     19  C   UNL     1     -40.217  -6.772  12.551 -0.21 +0.00    +0.001 A  
DOCKED: ATOM     20  C   UNL     1     -40.746  -5.744  11.770 -0.12 +0.00    +0.029 A  
DOCKED: ATOM     21  C   UNL     1     -39.902  -4.963  10.982 -0.10 +0.00    +0.140 A  
DOCKED: ATOM     22  C   UNL     1     -38.529  -5.208  10.974 -0.16 +0.00    +0.029 A  
DOCKED: ATOM     23  F   UNL     1     -40.409  -3.975  10.233 -0.03 -0.00    -0.204 F  
DOCKED: ATOM     24  C   UNL     1     -37.999  -6.237  11.755 -0.13 +0.00    +0.001 A  
DOCKED: ENDBRANCH   2  18
DOCKED: TORSDOF 5
DOCKED: TER
DOCKED: ENDMDL
________________________________________________________________________________


    FINAL DOCKED STATE:
    ________________________


Run:   102 / 512
Time taken for this run:   0.002s

DOCKED: MODEL        102
DOCKED: USER    Run = 102
DOCKED: USER
DOCKED: USER    Estimated Free Energy of Binding    =  -4.02 kcal/mol  [=(1)+(2)+(3)-(4)]
DOCKED: USER
DOCKED: USER    (1) Final Intermolecular Energy     =  -5.52 kcal/mol
DOCKED: USER        vdW + Hbond + desolv Energy     =  -5.52 kcal/mol
DOCKED: USER        Electrostatic Energy            =  +0.00 kcal/mol
DOCKED: USER        Moving Ligand-Fixed Receptor    =  -5.52 kcal/mol
DOCKED: USER        Moving Ligand-Moving Receptor   =  +0.00 kcal/mol
DOCKED: USER    (2) Final Total Internal Energy     =  -1.36 kcal/mol
DOCKED: USER    (3) Torsional Free Energy           =  +1.49 kcal/mol
DOCKED: USER    (4) Unbound System's Energy         =  -1.36 kcal/mol
DOCKED: USER
DOCKED: USER
DOCKED: REMARK  5 active torsions:
DOCKED: REMARK  status: ('A' for Active; 'I' for Inactive)
DOCKED: REMARK    1  A    between atoms: C_2  and  C_19 
DOCKED: REMARK    2  A    between atoms: C_2  and  C_11 
DOCKED: REMARK    3  A    between atoms: C_19  and  C_20 
DOCKED: REMARK    4  A    between atoms: C_20  and  C_21 
DOCKED: REMARK    5  A    between atoms: C_21  and  N_22 
DOCKED: USER                              x       y       z     vdW  Elec       q    Type
DOCKED: USER                           _______ _______ _______ _____ _____    ______ ____
DOCKED: ROOT
DOCKED: ATOM      1  O   UNL     1     -35.084  -9.775  14.234 -0.06 -0.00    -0.346 OA 
DOCKED: ATOM      2  C   UNL     1     -36.259  -9.057  13.739 -0.13 +0.00    +0.130 C  
DOCKED: ATOM      3  C   UNL     1     -37.112 -10.135  13.135 -0.23 +0.00    +0.004 A  
DOCKED: ATOM      4  C   UNL     1     -36.529 -11.374  13.363 -0.23 +0.00    +0.006 A  
DOCKED: ATOM      5  C   UNL     1     -35.276 -11.205  14.132 -0.14 +0.00    +0.169 C  
DOCKED: ATOM      6  C   UNL     1     -38.313 -10.030  12.449 -0.26 -0.00    -0.001 A  
DOCKED: ATOM      7  C   UNL     1     -37.119 -12.542  12.912 -0.32 +0.00    +0.008 A  
DOCKED: ATOM      8  C   UNL     1     -38.919 -11.198  11.985 -0.26 +0.00    +0.010 A  
DOCKED: ATOM      9  C   UNL     1     -38.325 -12.448  12.216 -0.30 +0.00    +0.068 A  
DOCKED: ATOM     10  N   UNL     1     -39.479 -14.598  11.344 -2.55 -0.00    -0.191 NA 
DOCKED: ATOM     11  C   UNL     1     -38.961 -13.634  11.735 -0.38 +0.00    +0.101 C  
DOCKED: ENDROOT
DOCKED: BRANCH   2  12
DOCKED: ATOM     12  C   UNL     1     -36.930  -8.360  14.916 -0.05 +0.00    +0.038 C  
DOCKED: BRANCH  12  13
DOCKED: ATOM     13  C   UNL     1     -36.786  -9.173  16.201 -0.03 +0.00    +0.038 C  
DOCKED: BRANCH  13  14
DOCKED: ATOM     14  C   UNL     1     -37.986 -10.095  16.406 -0.01 +0.00    +0.251 C  
DOCKED: BRANCH  14  15
DOCKED: ATOM     15  N   UNL     1     -39.208  -9.446  15.945 -0.02 +0.00    +0.141 N  
DOCKED: ATOM     16  C   UNL     1     -40.107 -10.419  15.323 -0.01 +0.00    +0.285 C  
DOCKED: ATOM     17  C   UNL     1     -39.883  -8.770  17.055 +0.00 +0.00    +0.285 C  
DOCKED: ENDBRANCH  14  15
DOCKED: ENDBRANCH  13  14
DOCKED: ENDBRANCH  12  13
DOCKED: ENDBRANCH   2  12
DOCKED: BRANCH   2  18
DOCKED: ATOM     18  C   UNL     1     -35.774  -8.068  12.732 -0.15 +0.00    +0.006 A  
DOCKED: ATOM     19  C   UNL     1     -35.118  -8.507  11.583 -0.05 +0.00    +0.001 A  
DOCKED: ATOM     20  C   UNL     1     -34.665  -7.581  10.643 -0.14 +0.00    +0.029 A  
DOCKED: ATOM     21  C   UNL     1     -34.868  -6.218  10.853 -0.07 +0.00    +0.140 A  
DOCKED: ATOM     22  C   UNL     1     -35.525  -5.779  12.003 -0.07 +0.00    +0.029 A  
DOCKED: ATOM     23  F   UNL     1     -34.435  -5.329   9.950 -0.01 -0.00    -0.204 F  
DOCKED: ATOM     24  C   UNL     1     -35.978  -6.705  12.944 -0.08 +0.00    +0.001 A  
DOCKED: ENDBRANCH   2  18
DOCKED: TORSDOF 5
DOCKED: TER
DOCKED: ENDMDL
________________________________________________________________________________


    FINAL DOCKED STATE:
    ________________________


Run:   103 / 512
Time taken for this run:   0.002s

DOCKED: MODEL        103
DOCKED: USER    Run = 103
DOCKED: USER
DOCKED: USER    Estimated Free Energy of Binding    =  -3.79 kcal/mol  [=(1)+(2)+(3)-(4)]
DOCKED: USER
DOCKED: USER    (1) Final Intermolecular Energy     =  -5.28 kcal/mol
DOCKED: USER        vdW + Hbond + desolv Energy     =  -5.28 kcal/mol
DOCKED: USER        Electrostatic Energy            =  +0.00 kcal/mol
DOCKED: USER        Moving Ligand-Fixed Receptor    =  -5.28 kcal/mol
DOCKED: USER        Moving Ligand-Moving Receptor   =  +0.00 kcal/mol
DOCKED: USER    (2) Final Total Internal Energy     =  -1.04 kcal/mol
DOCKED: USER    (3) Torsional Free Energy           =  +1.49 kcal/mol
DOCKED: USER    (4) Unbound System's Energy         =  -1.04 kcal/mol
DOCKED: USER
DOCKED: USER
DOCKED: REMARK  5 active torsions:
DOCKED: REMARK  status: ('A' for Active; 'I' for Inactive)
DOCKED: REMARK    1  A    between atoms: C_2  and  C_19 
DOCKED: REMARK    2  A    between atoms: C_2  and  C_11 
DOCKED: REMARK    3  A    between atoms: C_19  and  C_20 
DOCKED: REMARK    4  A    between atoms: C_20  and  C_21 
DOCKED: REMARK    5  A    between atoms: C_21  and  N_22 
DOCKED: USER                              x       y       z     vdW  Elec       q    Type
DOCKED: USER                           _______ _______ _______ _____ _____    ______ ____
DOCKED: ROOT
DOCKED: ATOM      1  O   UNL     1     -29.727  -9.281   6.651 +0.01 -0.00    -0.346 OA 
DOCKED: ATOM      2  C   UNL     1     -31.123  -9.574   6.324 -0.09 +0.00    +0.130 C  
DOCKED: ATOM      3  C   UNL     1     -31.448 -10.768   7.174 -0.17 +0.00    +0.004 A  
DOCKED: ATOM      4  C   UNL     1     -30.370 -11.064   7.996 -0.10 +0.00    +0.006 A  
DOCKED: ATOM      5  C   UNL     1     -29.278 -10.093   7.760 -0.02 +0.00    +0.169 C  
DOCKED: ATOM      6  C   UNL     1     -32.610 -11.525   7.225 -0.25 -0.00    -0.001 A  
DOCKED: ATOM      7  C   UNL     1     -30.413 -12.122   8.888 -0.16 +0.00    +0.008 A  
DOCKED: ATOM      8  C   UNL     1     -32.667 -12.598   8.116 -0.24 +0.00    +0.010 A  
DOCKED: ATOM      9  C   UNL     1     -31.574 -12.894   8.944 -0.28 +0.00    +0.068 A  
DOCKED: ATOM     10  N   UNL     1     -31.714 -14.889  10.590 -2.43 -0.00    -0.191 NA 
DOCKED: ATOM     11  C   UNL     1     -31.651 -13.995   9.851 -0.28 +0.00    +0.101 C  
DOCKED: ENDROOT
DOCKED: BRANCH   2  12
DOCKED: ATOM     12  C   UNL     1     -31.966  -8.352   6.669 -0.10 +0.00    +0.038 C  
DOCKED: BRANCH  12  13
DOCKED: ATOM     13  C   UNL     1     -31.152  -7.312   7.435 -0.03 +0.00    +0.038 C  
DOCKED: BRANCH  13  14
DOCKED: ATOM     14  C   UNL     1     -32.059  -6.401   8.259 -0.02 +0.00    +0.251 C  
DOCKED: BRANCH  14  15
DOCKED: ATOM     15  N   UNL     1     -32.041  -5.046   7.723 -0.03 +0.00    +0.141 N  
DOCKED: ATOM     16  C   UNL     1     -30.915  -4.870   6.804 -0.01 +0.00    +0.285 C  
DOCKED: ATOM     17  C   UNL     1     -33.302  -4.742   7.045 -0.07 +0.00    +0.285 C  
DOCKED: ENDBRANCH  14  15
DOCKED: ENDBRANCH  13  14
DOCKED: ENDBRANCH  12  13
DOCKED: ENDBRANCH   2  12
DOCKED: BRANCH   2  18
DOCKED: ATOM     18  C   UNL     1     -31.176  -9.870   4.862 -0.13 +0.00    +0.006 A  
DOCKED: ATOM     19  C   UNL     1     -30.447 -10.937   4.340 -0.12 +0.00    +0.001 A  
DOCKED: ATOM     20  C   UNL     1     -30.497 -11.212   2.973 -0.13 +0.00    +0.029 A  
DOCKED: ATOM     21  C   UNL     1     -31.276 -10.420   2.131 -0.16 +0.00    +0.140 A  
DOCKED: ATOM     22  C   UNL     1     -32.005  -9.353   2.654 -0.22 +0.00    +0.029 A  
DOCKED: ATOM     23  F   UNL     1     -31.326 -10.686   0.819 -0.07 -0.00    -0.204 F  
DOCKED: ATOM     24  C   UNL     1     -31.955  -9.076   4.021 -0.19 +0.00    +0.001 A  
DOCKED: ENDBRANCH   2  18
DOCKED: TORSDOF 5
DOCKED: TER
DOCKED: ENDMDL
________________________________________________________________________________


    FINAL DOCKED STATE:
    ________________________


Run:   104 / 512
Time taken for this run:   0.002s

DOCKED: MODEL        104
DOCKED: USER    Run = 104
DOCKED: USER
DOCKED: USER    Estimated Free Energy of Binding    =  -4.07 kcal/mol  [=(1)+(2)+(3)-(4)]
DOCKED: USER
DOCKED: USER    (1) Final Intermolecular Energy     =  -5.56 kcal/mol
DOCKED: USER        vdW + Hbond + desolv Energy     =  -5.56 kcal/mol
DOCKED: USER        Electrostatic Energy            =  +0.00 kcal/mol
DOCKED: USER        Moving Ligand-Fixed Receptor    =  -5.56 kcal/mol
DOCKED: USER        Moving Ligand-Moving Receptor   =  +0.00 kcal/mol
DOCKED: USER    (2) Final Total Internal Energy     =  -1.36 kcal/mol
DOCKED: USER    (3) Torsional Free Energy           =  +1.49 kcal/mol
DOCKED: USER    (4) Unbound System's Energy         =  -1.36 kcal/mol
DOCKED: USER
DOCKED: USER
DOCKED: REMARK  5 active torsions:
DOCKED: REMARK  status: ('A' for Active; 'I' for Inactive)
DOCKED: REMARK    1  A    between atoms: C_2  and  C_19 
DOCKED: REMARK    2  A    between atoms: C_2  and  C_11 
DOCKED: REMARK    3  A    between atoms: C_19  and  C_20 
DOCKED: REMARK    4  A    between atoms: C_20  and  C_21 
DOCKED: REMARK    5  A    between atoms: C_21  and  N_22 
DOCKED: USER                              x       y       z     vdW  Elec       q    Type
DOCKED: USER                           _______ _______ _______ _____ _____    ______ ____
DOCKED: ROOT
DOCKED: ATOM      1  O   UNL     1     -32.780  -4.841   5.327 -0.01 -0.00    -0.346 OA 
DOCKED: ATOM      2  C   UNL     1     -32.028  -4.831   4.072 -0.06 +0.00    +0.130 C  
DOCKED: ATOM      3  C   UNL     1     -32.892  -4.030   3.141 -0.14 +0.00    +0.004 A  
DOCKED: ATOM      4  C   UNL     1     -33.987  -3.532   3.833 -0.24 +0.00    +0.006 A  
DOCKED: ATOM      5  C   UNL     1     -33.918  -3.951   5.251 -0.18 +0.00    +0.169 C  
DOCKED: ATOM      6  C   UNL     1     -32.717  -3.755   1.793 -0.15 -0.00    -0.001 A  
DOCKED: ATOM      7  C   UNL     1     -34.941  -2.750   3.205 -0.32 +0.00    +0.008 A  
DOCKED: ATOM      8  C   UNL     1     -33.673  -2.972   1.144 -0.22 +0.00    +0.010 A  
DOCKED: ATOM      9  C   UNL     1     -34.779  -2.471   1.847 -0.22 +0.00    +0.068 A  
DOCKED: ATOM     10  N   UNL     1     -36.533  -1.016   0.614 -2.48 -0.00    -0.191 NA 
DOCKED: ATOM     11  C   UNL     1     -35.746  -1.669   1.167 -0.37 +0.00    +0.101 C  
DOCKED: ENDROOT
DOCKED: BRANCH   2  12
DOCKED: ATOM     12  C   UNL     1     -30.671  -4.185   4.326 -0.02 +0.00    +0.038 C  
DOCKED: BRANCH  12  13
DOCKED: ATOM     13  C   UNL     1     -30.785  -2.663   4.401 -0.06 +0.00    +0.038 C  
DOCKED: BRANCH  13  14
DOCKED: ATOM     14  C   UNL     1     -31.061  -2.203   5.831 -0.09 +0.00    +0.251 C  
DOCKED: BRANCH  14  15
DOCKED: ATOM     15  N   UNL     1     -30.790  -3.283   6.773 -0.06 +0.00    +0.141 N  
DOCKED: ATOM     16  C   UNL     1     -29.444  -3.154   7.332 -0.02 +0.00    +0.285 C  
DOCKED: ATOM     17  C   UNL     1     -31.786  -3.293   7.846 -0.09 +0.00    +0.285 C  
DOCKED: ENDBRANCH  14  15
DOCKED: ENDBRANCH  13  14
DOCKED: ENDBRANCH  12  13
DOCKED: ENDBRANCH   2  12
DOCKED: BRANCH   2  18
DOCKED: ATOM     18  C   UNL     1     -31.875  -6.253   3.644 -0.07 +0.00    +0.006 A  
DOCKED: ATOM     19  C   UNL     1     -30.820  -7.020   4.139 -0.03 +0.00    +0.001 A  
DOCKED: ATOM     20  C   UNL     1     -30.678  -8.349   3.738 -0.06 +0.00    +0.029 A  
DOCKED: ATOM     21  C   UNL     1     -31.590  -8.909   2.844 -0.15 +0.00    +0.140 A  
DOCKED: ATOM     22  C   UNL     1     -32.644  -8.141   2.350 -0.24 +0.00    +0.029 A  
DOCKED: ATOM     23  F   UNL     1     -31.454 -10.185   2.461 -0.09 -0.00    -0.204 F  
DOCKED: ATOM     24  C   UNL     1     -32.787  -6.812   2.750 -0.20 +0.00    +0.001 A  
DOCKED: ENDBRANCH   2  18
DOCKED: TORSDOF 5
DOCKED: TER
DOCKED: ENDMDL
________________________________________________________________________________


    FINAL DOCKED STATE:
    ________________________


Run:   105 / 512
Time taken for this run:   0.002s

DOCKED: MODEL        105
DOCKED: USER    Run = 105
DOCKED: USER
DOCKED: USER    Estimated Free Energy of Binding    =  -3.77 kcal/mol  [=(1)+(2)+(3)-(4)]
DOCKED: USER
DOCKED: USER    (1) Final Intermolecular Energy     =  -5.26 kcal/mol
DOCKED: USER        vdW + Hbond + desolv Energy     =  -5.26 kcal/mol
DOCKED: USER        Electrostatic Energy            =  +0.00 kcal/mol
DOCKED: USER        Moving Ligand-Fixed Receptor    =  -5.26 kcal/mol
DOCKED: USER        Moving Ligand-Moving Receptor   =  +0.00 kcal/mol
DOCKED: USER    (2) Final Total Internal Energy     =  -1.01 kcal/mol
DOCKED: USER    (3) Torsional Free Energy           =  +1.49 kcal/mol
DOCKED: USER    (4) Unbound System's Energy         =  -1.01 kcal/mol
DOCKED: USER
DOCKED: USER
DOCKED: REMARK  5 active torsions:
DOCKED: REMARK  status: ('A' for Active; 'I' for Inactive)
DOCKED: REMARK    1  A    between atoms: C_2  and  C_19 
DOCKED: REMARK    2  A    between atoms: C_2  and  C_11 
DOCKED: REMARK    3  A    between atoms: C_19  and  C_20 
DOCKED: REMARK    4  A    between atoms: C_20  and  C_21 
DOCKED: REMARK    5  A    between atoms: C_21  and  N_22 
DOCKED: USER                              x       y       z     vdW  Elec       q    Type
DOCKED: USER                           _______ _______ _______ _____ _____    ______ ____
DOCKED: ROOT
DOCKED: ATOM      1  O   UNL     1     -39.432  -8.337  14.155 -0.03 -0.00    -0.346 OA 
DOCKED: ATOM      2  C   UNL     1     -38.349  -8.450  13.177 -0.17 +0.00    +0.130 C  
DOCKED: ATOM      3  C   UNL     1     -38.481  -9.851  12.655 -0.24 +0.00    +0.004 A  
DOCKED: ATOM      4  C   UNL     1     -39.606 -10.450  13.203 -0.20 +0.00    +0.006 A  
DOCKED: ATOM      5  C   UNL     1     -40.294  -9.497  14.103 -0.10 +0.00    +0.169 C  
DOCKED: ATOM      6  C   UNL     1     -37.676 -10.537  11.758 -0.17 -0.00    -0.001 A  
DOCKED: ATOM      7  C   UNL     1     -39.962 -11.748  12.880 -0.22 +0.00    +0.008 A  
DOCKED: ATOM      8  C   UNL     1     -38.019 -11.849  11.424 -0.34 +0.00    +0.010 A  
DOCKED: ATOM      9  C   UNL     1     -39.156 -12.451  11.983 -0.27 +0.00    +0.068 A  
DOCKED: ATOM     10  N   UNL     1     -39.767 -14.885  11.339 -2.44 -0.00    -0.191 NA 
DOCKED: ATOM     11  C   UNL     1     -39.493 -13.793  11.628 -0.35 +0.00    +0.101 C  
DOCKED: ENDROOT
DOCKED: BRANCH   2  12
DOCKED: ATOM     12  C   UNL     1     -38.559  -7.393  12.100 -0.12 +0.00    +0.038 C  
DOCKED: BRANCH  12  13
DOCKED: ATOM     13  C   UNL     1     -39.453  -6.259  12.598 -0.18 +0.00    +0.038 C  
DOCKED: BRANCH  13  14
DOCKED: ATOM     14  C   UNL     1     -38.658  -4.966  12.769 -0.05 +0.00    +0.251 C  
DOCKED: BRANCH  14  15
DOCKED: ATOM     15  N   UNL     1     -39.162  -4.207  13.908 -0.01 +0.00    +0.141 N  
DOCKED: ATOM     16  C   UNL     1     -38.316  -3.040  14.165 -0.00 +0.00    +0.285 C  
DOCKED: ATOM     17  C   UNL     1     -40.546  -3.790  13.677 -0.00 +0.00    +0.285 C  
DOCKED: ENDBRANCH  14  15
DOCKED: ENDBRANCH  13  14
DOCKED: ENDBRANCH  12  13
DOCKED: ENDBRANCH   2  12
DOCKED: BRANCH   2  18
DOCKED: ATOM     18  C   UNL     1     -37.071  -8.221  13.913 -0.09 +0.00    +0.006 A  
DOCKED: ATOM     19  C   UNL     1     -36.931  -7.105  14.736 -0.03 +0.00    +0.001 A  
DOCKED: ATOM     20  C   UNL     1     -35.735  -6.892  15.423 -0.01 +0.00    +0.029 A  
DOCKED: ATOM     21  C   UNL     1     -34.682  -7.796  15.287 -0.01 +0.00    +0.140 A  
DOCKED: ATOM     22  C   UNL     1     -34.823  -8.913  14.464 -0.08 +0.00    +0.029 A  
DOCKED: ATOM     23  F   UNL     1     -33.535  -7.593  15.948 +0.00 -0.00    -0.204 F  
DOCKED: ATOM     24  C   UNL     1     -36.019  -9.126  13.776 -0.13 +0.00    +0.001 A  
DOCKED: ENDBRANCH   2  18
DOCKED: TORSDOF 5
DOCKED: TER
DOCKED: ENDMDL
________________________________________________________________________________


    FINAL DOCKED STATE:
    ________________________


Run:   106 / 512
Time taken for this run:   0.002s

DOCKED: MODEL        106
DOCKED: USER    Run = 106
DOCKED: USER
DOCKED: USER    Estimated Free Energy of Binding    =  -4.04 kcal/mol  [=(1)+(2)+(3)-(4)]
DOCKED: USER
DOCKED: USER    (1) Final Intermolecular Energy     =  -5.54 kcal/mol
DOCKED: USER        vdW + Hbond + desolv Energy     =  -5.54 kcal/mol
DOCKED: USER        Electrostatic Energy            =  +0.00 kcal/mol
DOCKED: USER        Moving Ligand-Fixed Receptor    =  -5.54 kcal/mol
DOCKED: USER        Moving Ligand-Moving Receptor   =  +0.00 kcal/mol
DOCKED: USER    (2) Final Total Internal Energy     =  -1.33 kcal/mol
DOCKED: USER    (3) Torsional Free Energy           =  +1.49 kcal/mol
DOCKED: USER    (4) Unbound System's Energy         =  -1.33 kcal/mol
DOCKED: USER
DOCKED: USER
DOCKED: REMARK  5 active torsions:
DOCKED: REMARK  status: ('A' for Active; 'I' for Inactive)
DOCKED: REMARK    1  A    between atoms: C_2  and  C_19 
DOCKED: REMARK    2  A    between atoms: C_2  and  C_11 
DOCKED: REMARK    3  A    between atoms: C_19  and  C_20 
DOCKED: REMARK    4  A    between atoms: C_20  and  C_21 
DOCKED: REMARK    5  A    between atoms: C_21  and  N_22 
DOCKED: USER                              x       y       z     vdW  Elec       q    Type
DOCKED: USER                           _______ _______ _______ _____ _____    ______ ____
DOCKED: ROOT
DOCKED: ATOM      1  O   UNL     1     -29.162 -12.172   4.306 -0.00 -0.00    -0.346 OA 
DOCKED: ATOM      2  C   UNL     1     -29.700 -11.108   5.154 -0.07 +0.00    +0.130 C  
DOCKED: ATOM      3  C   UNL     1     -30.296 -11.843   6.319 -0.12 +0.00    +0.004 A  
DOCKED: ATOM      4  C   UNL     1     -30.026 -13.200   6.202 -0.13 +0.00    +0.006 A  
DOCKED: ATOM      5  C   UNL     1     -29.233 -13.450   4.978 -0.07 +0.00    +0.169 C  
DOCKED: ATOM      6  C   UNL     1     -31.011 -11.351   7.401 -0.16 -0.00    -0.001 A  
DOCKED: ATOM      7  C   UNL     1     -30.462 -14.106   7.154 -0.23 +0.00    +0.008 A  
DOCKED: ATOM      8  C   UNL     1     -31.461 -12.252   8.367 -0.27 +0.00    +0.010 A  
DOCKED: ATOM      9  C   UNL     1     -31.187 -13.623   8.244 -0.29 +0.00    +0.068 A  
DOCKED: ATOM     10  N   UNL     1     -32.032 -15.268  10.058 -2.62 -0.00    -0.191 NA 
DOCKED: ATOM     11  C   UNL     1     -31.654 -14.530   9.244 -0.42 +0.00    +0.101 C  
DOCKED: ENDROOT
DOCKED: BRANCH   2  12
DOCKED: ATOM     12  C   UNL     1     -28.555 -10.186   5.558 -0.01 +0.00    +0.038 C  
DOCKED: BRANCH  12  13
DOCKED: ATOM     13  C   UNL     1     -27.226 -10.939   5.609 -0.01 +0.00    +0.038 C  
DOCKED: BRANCH  13  14
DOCKED: ATOM     14  C   UNL     1     -26.572 -10.805   6.983 -0.00 +0.00    +0.251 C  
DOCKED: BRANCH  14  15
DOCKED: ATOM     15  N   UNL     1     -26.091 -12.102   7.444 -0.01 +0.00    +0.141 N  
DOCKED: ATOM     16  C   UNL     1     -27.153 -12.827   8.142 -0.01 +0.00    +0.285 C  
DOCKED: ATOM     17  C   UNL     1     -25.588 -12.894   6.321 -0.01 +0.00    +0.285 C  
DOCKED: ENDBRANCH  14  15
DOCKED: ENDBRANCH  13  14
DOCKED: ENDBRANCH  12  13
DOCKED: ENDBRANCH   2  12
DOCKED: BRANCH   2  18
DOCKED: ATOM     18  C   UNL     1     -30.718 -10.377   4.344 -0.12 +0.00    +0.006 A  
DOCKED: ATOM     19  C   UNL     1     -31.454  -9.342   4.920 -0.14 +0.00    +0.001 A  
DOCKED: ATOM     20  C   UNL     1     -32.407  -8.660   4.162 -0.20 +0.00    +0.029 A  
DOCKED: ATOM     21  C   UNL     1     -32.621  -9.013   2.830 -0.17 +0.00    +0.140 A  
DOCKED: ATOM     22  C   UNL     1     -31.884 -10.048   2.255 -0.19 +0.00    +0.029 A  
DOCKED: ATOM     23  F   UNL     1     -33.534  -8.357   2.102 -0.14 -0.00    -0.204 F  
DOCKED: ATOM     24  C   UNL     1     -30.932 -10.731   3.013 -0.15 +0.00    +0.001 A  
DOCKED: ENDBRANCH   2  18
DOCKED: TORSDOF 5
DOCKED: TER
DOCKED: ENDMDL
________________________________________________________________________________


    FINAL DOCKED STATE:
    ________________________


Run:   107 / 512
Time taken for this run:   0.002s

DOCKED: MODEL        107
DOCKED: USER    Run = 107
DOCKED: USER
DOCKED: USER    Estimated Free Energy of Binding    =  -3.75 kcal/mol  [=(1)+(2)+(3)-(4)]
DOCKED: USER
DOCKED: USER    (1) Final Intermolecular Energy     =  -5.24 kcal/mol
DOCKED: USER        vdW + Hbond + desolv Energy     =  -5.24 kcal/mol
DOCKED: USER        Electrostatic Energy            =  +0.00 kcal/mol
DOCKED: USER        Moving Ligand-Fixed Receptor    =  -5.24 kcal/mol
DOCKED: USER        Moving Ligand-Moving Receptor   =  +0.00 kcal/mol
DOCKED: USER    (2) Final Total Internal Energy     =  -1.25 kcal/mol
DOCKED: USER    (3) Torsional Free Energy           =  +1.49 kcal/mol
DOCKED: USER    (4) Unbound System's Energy         =  -1.25 kcal/mol
DOCKED: USER
DOCKED: USER
DOCKED: REMARK  5 active torsions:
DOCKED: REMARK  status: ('A' for Active; 'I' for Inactive)
DOCKED: REMARK    1  A    between atoms: C_2  and  C_19 
DOCKED: REMARK    2  A    between atoms: C_2  and  C_11 
DOCKED: REMARK    3  A    between atoms: C_19  and  C_20 
DOCKED: REMARK    4  A    between atoms: C_20  and  C_21 
DOCKED: REMARK    5  A    between atoms: C_21  and  N_22 
DOCKED: USER                              x       y       z     vdW  Elec       q    Type
DOCKED: USER                           _______ _______ _______ _____ _____    ______ ____
DOCKED: ROOT
DOCKED: ATOM      1  O   UNL     1     -29.073 -13.457   4.176 -0.01 -0.00    -0.346 OA 
DOCKED: ATOM      2  C   UNL     1     -29.188 -12.240   4.980 -0.07 +0.00    +0.130 C  
DOCKED: ATOM      3  C   UNL     1     -29.859 -12.704   6.241 -0.11 +0.00    +0.004 A  
DOCKED: ATOM      4  C   UNL     1     -30.013 -14.083   6.207 -0.16 +0.00    +0.006 A  
DOCKED: ATOM      5  C   UNL     1     -29.453 -14.620   4.947 -0.08 +0.00    +0.169 C  
DOCKED: ATOM      6  C   UNL     1     -30.288 -11.966   7.335 -0.12 -0.00    -0.001 A  
DOCKED: ATOM      7  C   UNL     1     -30.601 -14.768   7.257 -0.28 +0.00    +0.008 A  
DOCKED: ATOM      8  C   UNL     1     -30.887 -12.642   8.399 -0.23 +0.00    +0.010 A  
DOCKED: ATOM      9  C   UNL     1     -31.042 -14.036   8.360 -0.30 +0.00    +0.068 A  
DOCKED: ATOM     10  N   UNL     1     -32.154 -15.260  10.355 -2.57 -0.00    -0.191 NA 
DOCKED: ATOM     11  C   UNL     1     -31.656 -14.711   9.460 -0.39 +0.00    +0.101 C  
DOCKED: ENDROOT
DOCKED: BRANCH   2  12
DOCKED: ATOM     12  C   UNL     1     -27.789 -11.686   5.222 -0.02 +0.00    +0.038 C  
DOCKED: BRANCH  12  13
DOCKED: ATOM     13  C   UNL     1     -26.903 -11.856   3.989 -0.01 +0.00    +0.038 C  
DOCKED: BRANCH  13  14
DOCKED: ATOM     14  C   UNL     1     -26.219 -13.222   3.988 -0.00 +0.00    +0.251 C  
DOCKED: BRANCH  14  15
DOCKED: ATOM     15  N   UNL     1     -25.572 -13.467   5.272 -0.01 +0.00    +0.141 N  
DOCKED: ATOM     16  C   UNL     1     -26.105 -14.678   5.896 -0.03 +0.00    +0.285 C  
DOCKED: ATOM     17  C   UNL     1     -24.122 -13.578   5.105 -0.00 +0.00    +0.285 C  
DOCKED: ENDBRANCH  14  15
DOCKED: ENDBRANCH  13  14
DOCKED: ENDBRANCH  12  13
DOCKED: ENDBRANCH   2  12
DOCKED: BRANCH   2  18
DOCKED: ATOM     18  C   UNL     1     -30.020 -11.278   4.200 -0.11 +0.00    +0.006 A  
DOCKED: ATOM     19  C   UNL     1     -30.392 -10.059   4.766 -0.10 +0.00    +0.001 A  
DOCKED: ATOM     20  C   UNL     1     -31.170  -9.160   4.034 -0.13 +0.00    +0.029 A  
DOCKED: ATOM     21  C   UNL     1     -31.574  -9.481   2.739 -0.17 +0.00    +0.140 A  
DOCKED: ATOM     22  C   UNL     1     -31.202 -10.701   2.174 -0.17 +0.00    +0.029 A  
DOCKED: ATOM     23  F   UNL     1     -32.320  -8.618   2.037 -0.08 -0.00    -0.204 F  
DOCKED: ATOM     24  C   UNL     1     -30.424 -11.600   2.905 -0.10 +0.00    +0.001 A  
DOCKED: ENDBRANCH   2  18
DOCKED: TORSDOF 5
DOCKED: TER
DOCKED: ENDMDL
________________________________________________________________________________


    FINAL DOCKED STATE:
    ________________________


Run:   108 / 512
Time taken for this run:   0.002s

DOCKED: MODEL        108
DOCKED: USER    Run = 108
DOCKED: USER
DOCKED: USER    Estimated Free Energy of Binding    =  -4.78 kcal/mol  [=(1)+(2)+(3)-(4)]
DOCKED: USER
DOCKED: USER    (1) Final Intermolecular Energy     =  -6.27 kcal/mol
DOCKED: USER        vdW + Hbond + desolv Energy     =  -6.27 kcal/mol
DOCKED: USER        Electrostatic Energy            =  +0.00 kcal/mol
DOCKED: USER        Moving Ligand-Fixed Receptor    =  -6.27 kcal/mol
DOCKED: USER        Moving Ligand-Moving Receptor   =  +0.00 kcal/mol
DOCKED: USER    (2) Final Total Internal Energy     =  -1.14 kcal/mol
DOCKED: USER    (3) Torsional Free Energy           =  +1.49 kcal/mol
DOCKED: USER    (4) Unbound System's Energy         =  -1.14 kcal/mol
DOCKED: USER
DOCKED: USER
DOCKED: REMARK  5 active torsions:
DOCKED: REMARK  status: ('A' for Active; 'I' for Inactive)
DOCKED: REMARK    1  A    between atoms: C_2  and  C_19 
DOCKED: REMARK    2  A    between atoms: C_2  and  C_11 
DOCKED: REMARK    3  A    between atoms: C_19  and  C_20 
DOCKED: REMARK    4  A    between atoms: C_20  and  C_21 
DOCKED: REMARK    5  A    between atoms: C_21  and  N_22 
DOCKED: USER                              x       y       z     vdW  Elec       q    Type
DOCKED: USER                           _______ _______ _______ _____ _____    ______ ____
DOCKED: ROOT
DOCKED: ATOM      1  O   UNL     1     -34.669 -10.520  14.544 -0.08 -0.00    -0.346 OA 
DOCKED: ATOM      2  C   UNL     1     -35.609  -9.634  13.856 -0.13 +0.00    +0.130 C  
DOCKED: ATOM      3  C   UNL     1     -36.577 -10.576  13.200 -0.22 +0.00    +0.004 A  
DOCKED: ATOM      4  C   UNL     1     -36.283 -11.880  13.570 -0.24 +0.00    +0.006 A  
DOCKED: ATOM      5  C   UNL     1     -35.126 -11.892  14.493 -0.17 +0.00    +0.169 C  
DOCKED: ATOM      6  C   UNL     1     -37.640 -10.299  12.353 -0.27 -0.00    -0.001 A  
DOCKED: ATOM      7  C   UNL     1     -37.033 -12.947  13.106 -0.34 +0.00    +0.008 A  
DOCKED: ATOM      8  C   UNL     1     -38.403 -11.364  11.873 -0.32 +0.00    +0.010 A  
DOCKED: ATOM      9  C   UNL     1     -38.101 -12.682  12.248 -0.31 +0.00    +0.068 A  
DOCKED: ATOM     10  N   UNL     1     -39.541 -14.637  11.342 -2.55 -0.00    -0.191 NA 
DOCKED: ATOM     11  C   UNL     1     -38.894 -13.760  11.748 -0.37 +0.00    +0.101 C  
DOCKED: ENDROOT
DOCKED: BRANCH   2  12
DOCKED: ATOM     12  C   UNL     1     -36.269  -8.733  14.893 -0.06 +0.00    +0.038 C  
DOCKED: BRANCH  12  13
DOCKED: ATOM     13  C   UNL     1     -36.897  -7.502  14.242 -0.06 +0.00    +0.038 C  
DOCKED: BRANCH  13  14
DOCKED: ATOM     14  C   UNL     1     -38.421  -7.559  14.316 -0.04 +0.00    +0.251 C  
DOCKED: BRANCH  14  15
DOCKED: ATOM     15  N   UNL     1     -38.992  -7.616  12.976 -0.16 +0.00    +0.141 N  
DOCKED: ATOM     16  C   UNL     1     -40.449  -7.743  13.041 -0.15 +0.00    +0.285 C  
DOCKED: ATOM     17  C   UNL     1     -38.620  -6.428  12.206 -0.13 +0.00    +0.285 C  
DOCKED: ENDBRANCH  14  15
DOCKED: ENDBRANCH  13  14
DOCKED: ENDBRANCH  12  13
DOCKED: ENDBRANCH   2  12
DOCKED: BRANCH   2  18
DOCKED: ATOM     18  C   UNL     1     -34.818  -8.836  12.875 -0.13 +0.00    +0.006 A  
DOCKED: ATOM     19  C   UNL     1     -35.420  -8.376  11.704 -0.12 +0.00    +0.001 A  
DOCKED: ATOM     20  C   UNL     1     -34.679  -7.630  10.787 -0.14 +0.00    +0.029 A  
DOCKED: ATOM     21  C   UNL     1     -33.338  -7.345  11.041 -0.08 +0.00    +0.140 A  
DOCKED: ATOM     22  C   UNL     1     -32.737  -7.805  12.212 -0.08 +0.00    +0.029 A  
DOCKED: ATOM     23  F   UNL     1     -32.627  -6.627  10.161 -0.00 -0.00    -0.204 F  
DOCKED: ATOM     24  C   UNL     1     -33.477  -8.552  13.130 -0.10 +0.00    +0.001 A  
DOCKED: ENDBRANCH   2  18
DOCKED: TORSDOF 5
DOCKED: TER
DOCKED: ENDMDL
________________________________________________________________________________


    FINAL DOCKED STATE:
    ________________________


Run:   109 / 512
Time taken for this run:   0.002s

DOCKED: MODEL        109
DOCKED: USER    Run = 109
DOCKED: USER
DOCKED: USER    Estimated Free Energy of Binding    =  -3.92 kcal/mol  [=(1)+(2)+(3)-(4)]
DOCKED: USER
DOCKED: USER    (1) Final Intermolecular Energy     =  -5.41 kcal/mol
DOCKED: USER        vdW + Hbond + desolv Energy     =  -5.41 kcal/mol
DOCKED: USER        Electrostatic Energy            =  +0.00 kcal/mol
DOCKED: USER        Moving Ligand-Fixed Receptor    =  -5.41 kcal/mol
DOCKED: USER        Moving Ligand-Moving Receptor   =  +0.00 kcal/mol
DOCKED: USER    (2) Final Total Internal Energy     =  -1.54 kcal/mol
DOCKED: USER    (3) Torsional Free Energy           =  +1.49 kcal/mol
DOCKED: USER    (4) Unbound System's Energy         =  -1.54 kcal/mol
DOCKED: USER
DOCKED: USER
DOCKED: REMARK  5 active torsions:
DOCKED: REMARK  status: ('A' for Active; 'I' for Inactive)
DOCKED: REMARK    1  A    between atoms: C_2  and  C_19 
DOCKED: REMARK    2  A    between atoms: C_2  and  C_11 
DOCKED: REMARK    3  A    between atoms: C_19  and  C_20 
DOCKED: REMARK    4  A    between atoms: C_20  and  C_21 
DOCKED: REMARK    5  A    between atoms: C_21  and  N_22 
DOCKED: USER                              x       y       z     vdW  Elec       q    Type
DOCKED: USER                           _______ _______ _______ _____ _____    ______ ____
DOCKED: ROOT
DOCKED: ATOM      1  O   UNL     1     -34.838  -4.988   6.823 -0.06 -0.00    -0.346 OA 
DOCKED: ATOM      2  C   UNL     1     -33.669  -4.196   6.441 -0.15 +0.00    +0.130 C  
DOCKED: ATOM      3  C   UNL     1     -34.105  -3.491   5.189 -0.16 +0.00    +0.004 A  
DOCKED: ATOM      4  C   UNL     1     -35.442  -3.769   4.939 -0.29 +0.00    +0.006 A  
DOCKED: ATOM      5  C   UNL     1     -35.978  -4.652   5.999 -0.17 +0.00    +0.169 C  
DOCKED: ATOM      6  C   UNL     1     -33.381  -2.662   4.345 -0.16 -0.00    -0.001 A  
DOCKED: ATOM      7  C   UNL     1     -36.096  -3.234   3.843 -0.24 +0.00    +0.008 A  
DOCKED: ATOM      8  C   UNL     1     -34.025  -2.119   3.233 -0.27 +0.00    +0.010 A  
DOCKED: ATOM      9  C   UNL     1     -35.376  -2.403   2.983 -0.34 +0.00    +0.068 A  
DOCKED: ATOM     10  N   UNL     1     -36.543  -1.374   0.911 -2.47 -0.00    -0.191 NA 
DOCKED: ATOM     11  C   UNL     1     -36.020  -1.836   1.840 -0.39 +0.00    +0.101 C  
DOCKED: ENDROOT
DOCKED: BRANCH   2  12
DOCKED: ATOM     12  C   UNL     1     -33.342  -3.236   7.579 -0.09 +0.00    +0.038 C  
DOCKED: BRANCH  12  13
DOCKED: ATOM     13  C   UNL     1     -34.423  -3.263   8.657 -0.19 +0.00    +0.038 C  
DOCKED: BRANCH  13  14
DOCKED: ATOM     14  C   UNL     1     -34.060  -4.238   9.776 -0.07 +0.00    +0.251 C  
DOCKED: BRANCH  14  15
DOCKED: ATOM     15  N   UNL     1     -33.342  -5.386   9.234 -0.04 +0.00    +0.141 N  
DOCKED: ATOM     16  C   UNL     1     -32.107  -5.622   9.984 -0.01 +0.00    +0.285 C  
DOCKED: ATOM     17  C   UNL     1     -34.186  -6.581   9.258 -0.06 +0.00    +0.285 C  
DOCKED: ENDBRANCH  14  15
DOCKED: ENDBRANCH  13  14
DOCKED: ENDBRANCH  12  13
DOCKED: ENDBRANCH   2  12
DOCKED: BRANCH   2  18
DOCKED: ATOM     18  C   UNL     1     -32.549  -5.155   6.208 -0.07 +0.00    +0.006 A  
DOCKED: ATOM     19  C   UNL     1     -31.230  -4.704   6.223 -0.04 +0.00    +0.001 A  
DOCKED: ATOM     20  C   UNL     1     -30.185  -5.602   6.004 -0.01 +0.00    +0.029 A  
DOCKED: ATOM     21  C   UNL     1     -30.459  -6.949   5.772 -0.00 +0.00    +0.140 A  
DOCKED: ATOM     22  C   UNL     1     -31.779  -7.399   5.757 -0.06 +0.00    +0.029 A  
DOCKED: ATOM     23  F   UNL     1     -29.456  -7.811   5.564 +0.00 -0.00    -0.204 F  
DOCKED: ATOM     24  C   UNL     1     -32.826  -6.502   5.975 -0.09 +0.00    +0.001 A  
DOCKED: ENDBRANCH   2  18
DOCKED: TORSDOF 5
DOCKED: TER
DOCKED: ENDMDL
________________________________________________________________________________


    FINAL DOCKED STATE:
    ________________________


Run:   110 / 512
Time taken for this run:   0.002s

DOCKED: MODEL        110
DOCKED: USER    Run = 110
DOCKED: USER
DOCKED: USER    Estimated Free Energy of Binding    =  -4.10 kcal/mol  [=(1)+(2)+(3)-(4)]
DOCKED: USER
DOCKED: USER    (1) Final Intermolecular Energy     =  -5.59 kcal/mol
DOCKED: USER        vdW + Hbond + desolv Energy     =  -5.59 kcal/mol
DOCKED: USER        Electrostatic Energy            =  +0.00 kcal/mol
DOCKED: USER        Moving Ligand-Fixed Receptor    =  -5.59 kcal/mol
DOCKED: USER        Moving Ligand-Moving Receptor   =  +0.00 kcal/mol
DOCKED: USER    (2) Final Total Internal Energy     =  -1.31 kcal/mol
DOCKED: USER    (3) Torsional Free Energy           =  +1.49 kcal/mol
DOCKED: USER    (4) Unbound System's Energy         =  -1.31 kcal/mol
DOCKED: USER
DOCKED: USER
DOCKED: REMARK  5 active torsions:
DOCKED: REMARK  status: ('A' for Active; 'I' for Inactive)
DOCKED: REMARK    1  A    between atoms: C_2  and  C_19 
DOCKED: REMARK    2  A    between atoms: C_2  and  C_11 
DOCKED: REMARK    3  A    between atoms: C_19  and  C_20 
DOCKED: REMARK    4  A    between atoms: C_20  and  C_21 
DOCKED: REMARK    5  A    between atoms: C_21  and  N_22 
DOCKED: USER                              x       y       z     vdW  Elec       q    Type
DOCKED: USER                           _______ _______ _______ _____ _____    ______ ____
DOCKED: ROOT
DOCKED: ATOM      1  O   UNL     1     -39.707  -8.024  13.259 -0.10 -0.00    -0.346 OA 
DOCKED: ATOM      2  C   UNL     1     -38.286  -8.359  13.166 -0.17 +0.00    +0.130 C  
DOCKED: ATOM      3  C   UNL     1     -38.283  -9.810  12.783 -0.24 +0.00    +0.004 A  
DOCKED: ATOM      4  C   UNL     1     -39.585 -10.239  12.568 -0.19 +0.00    +0.006 A  
DOCKED: ATOM      5  C   UNL     1     -40.525  -9.116  12.778 -0.18 +0.00    +0.169 C  
DOCKED: ATOM      6  C   UNL     1     -37.213 -10.679  12.626 -0.27 -0.00    -0.001 A  
DOCKED: ATOM      7  C   UNL     1     -39.862 -11.544  12.196 -0.23 +0.00    +0.008 A  
DOCKED: ATOM      8  C   UNL     1     -37.476 -11.999  12.255 -0.32 +0.00    +0.010 A  
DOCKED: ATOM      9  C   UNL     1     -38.794 -12.428  12.041 -0.29 +0.00    +0.068 A  
DOCKED: ATOM     10  N   UNL     1     -39.247 -14.884  11.349 -2.60 -0.00    -0.191 NA 
DOCKED: ATOM     11  C   UNL     1     -39.044 -13.783  11.660 -0.37 +0.00    +0.101 C  
DOCKED: ENDROOT
DOCKED: BRANCH   2  12
DOCKED: ATOM     12  C   UNL     1     -37.648  -7.465  12.108 -0.03 +0.00    +0.038 C  
DOCKED: BRANCH  12  13
DOCKED: ATOM     13  C   UNL     1     -37.962  -5.992  12.362 -0.14 +0.00    +0.038 C  
DOCKED: BRANCH  13  14
DOCKED: ATOM     14  C   UNL     1     -39.222  -5.562  11.612 -0.12 +0.00    +0.251 C  
DOCKED: BRANCH  14  15
DOCKED: ATOM     15  N   UNL     1     -40.241  -5.108  12.551 -0.09 +0.00    +0.141 N  
DOCKED: ATOM     16  C   UNL     1     -40.527  -3.686  12.355 -0.02 +0.00    +0.285 C  
DOCKED: ATOM     17  C   UNL     1     -41.465  -5.896  12.405 -0.10 +0.00    +0.285 C  
DOCKED: ENDBRANCH  14  15
DOCKED: ENDBRANCH  13  14
DOCKED: ENDBRANCH  12  13
DOCKED: ENDBRANCH   2  12
DOCKED: BRANCH   2  18
DOCKED: ATOM     18  C   UNL     1     -37.690  -8.111  14.511 -0.06 +0.00    +0.006 A  
DOCKED: ATOM     19  C   UNL     1     -38.483  -7.610  15.543 -0.02 +0.00    +0.001 A  
DOCKED: ATOM     20  C   UNL     1     -37.924  -7.379  16.800 -0.00 +0.00    +0.029 A  
DOCKED: ATOM     21  C   UNL     1     -36.574  -7.648  17.024 -0.00 +0.00    +0.140 A  
DOCKED: ATOM     22  C   UNL     1     -35.782  -8.148  15.991 -0.01 +0.00    +0.029 A  
DOCKED: ATOM     23  F   UNL     1     -36.038  -7.427  18.232 -0.00 -0.00    -0.204 F  
DOCKED: ATOM     24  C   UNL     1     -36.340  -8.380  14.733 -0.05 +0.00    +0.001 A  
DOCKED: ENDBRANCH   2  18
DOCKED: TORSDOF 5
DOCKED: TER
DOCKED: ENDMDL
________________________________________________________________________________


    FINAL DOCKED STATE:
    ________________________


Run:   111 / 512
Time taken for this run:   0.002s

DOCKED: MODEL        111
DOCKED: USER    Run = 111
DOCKED: USER
DOCKED: USER    Estimated Free Energy of Binding    =  -4.64 kcal/mol  [=(1)+(2)+(3)-(4)]
DOCKED: USER
DOCKED: USER    (1) Final Intermolecular Energy     =  -6.13 kcal/mol
DOCKED: USER        vdW + Hbond + desolv Energy     =  -6.13 kcal/mol
DOCKED: USER        Electrostatic Energy            =  +0.00 kcal/mol
DOCKED: USER        Moving Ligand-Fixed Receptor    =  -6.13 kcal/mol
DOCKED: USER        Moving Ligand-Moving Receptor   =  +0.00 kcal/mol
DOCKED: USER    (2) Final Total Internal Energy     =  -1.17 kcal/mol
DOCKED: USER    (3) Torsional Free Energy           =  +1.49 kcal/mol
DOCKED: USER    (4) Unbound System's Energy         =  -1.17 kcal/mol
DOCKED: USER
DOCKED: USER
DOCKED: REMARK  5 active torsions:
DOCKED: REMARK  status: ('A' for Active; 'I' for Inactive)
DOCKED: REMARK    1  A    between atoms: C_2  and  C_19 
DOCKED: REMARK    2  A    between atoms: C_2  and  C_11 
DOCKED: REMARK    3  A    between atoms: C_19  and  C_20 
DOCKED: REMARK    4  A    between atoms: C_20  and  C_21 
DOCKED: REMARK    5  A    between atoms: C_21  and  N_22 
DOCKED: USER                              x       y       z     vdW  Elec       q    Type
DOCKED: USER                           _______ _______ _______ _____ _____    ______ ____
DOCKED: ROOT
DOCKED: ATOM      1  O   UNL     1     -35.797  -4.718   7.388 -0.09 -0.00    -0.346 OA 
DOCKED: ATOM      2  C   UNL     1     -34.490  -4.725   6.730 -0.17 +0.00    +0.130 C  
DOCKED: ATOM      3  C   UNL     1     -34.744  -4.040   5.419 -0.26 +0.00    +0.004 A  
DOCKED: ATOM      4  C   UNL     1     -36.053  -3.583   5.377 -0.24 +0.00    +0.006 A  
DOCKED: ATOM      5  C   UNL     1     -36.743  -3.917   6.643 -0.16 +0.00    +0.169 C  
DOCKED: ATOM      6  C   UNL     1     -33.881  -3.828   4.353 -0.22 -0.00    -0.001 A  
DOCKED: ATOM      7  C   UNL     1     -36.545  -2.906   4.274 -0.24 +0.00    +0.008 A  
DOCKED: ATOM      8  C   UNL     1     -34.363  -3.151   3.232 -0.27 +0.00    +0.010 A  
DOCKED: ATOM      9  C   UNL     1     -35.689  -2.692   3.193 -0.26 +0.00    +0.068 A  
DOCKED: ATOM     10  N   UNL     1     -36.550  -1.435   1.098 -2.27 -0.00    -0.191 NA 
DOCKED: ATOM     11  C   UNL     1     -36.164  -1.999   2.037 -0.35 +0.00    +0.101 C  
DOCKED: ENDROOT
DOCKED: BRANCH   2  12
DOCKED: ATOM     12  C   UNL     1     -33.501  -3.971   7.612 -0.16 +0.00    +0.038 C  
DOCKED: BRANCH  12  13
DOCKED: ATOM     13  C   UNL     1     -32.062  -4.197   7.155 -0.10 +0.00    +0.038 C  
DOCKED: BRANCH  13  14
DOCKED: ATOM     14  C   UNL     1     -31.388  -2.876   6.789 -0.09 +0.00    +0.251 C  
DOCKED: BRANCH  14  15
DOCKED: ATOM     15  N   UNL     1     -31.176  -2.796   5.349 -0.07 +0.00    +0.141 N  
DOCKED: ATOM     16  C   UNL     1     -30.401  -1.603   5.007 -0.05 +0.00    +0.285 C  
DOCKED: ATOM     17  C   UNL     1     -30.499  -3.999   4.860 -0.01 +0.00    +0.285 C  
DOCKED: ENDBRANCH  14  15
DOCKED: ENDBRANCH  13  14
DOCKED: ENDBRANCH  12  13
DOCKED: ENDBRANCH   2  12
DOCKED: BRANCH   2  18
DOCKED: ATOM     18  C   UNL     1     -34.089  -6.154   6.572 -0.15 +0.00    +0.006 A  
DOCKED: ATOM     19  C   UNL     1     -33.604  -6.610   5.347 -0.17 +0.00    +0.001 A  
DOCKED: ATOM     20  C   UNL     1     -33.230  -7.946   5.200 -0.17 +0.00    +0.029 A  
DOCKED: ATOM     21  C   UNL     1     -33.340  -8.824   6.277 -0.18 +0.00    +0.140 A  
DOCKED: ATOM     22  C   UNL     1     -33.824  -8.367   7.503 -0.23 +0.00    +0.029 A  
DOCKED: ATOM     23  F   UNL     1     -32.979 -10.106   6.137 -0.07 -0.00    -0.204 F  
DOCKED: ATOM     24  C   UNL     1     -34.199  -7.030   7.651 -0.15 +0.00    +0.001 A  
DOCKED: ENDBRANCH   2  18
DOCKED: TORSDOF 5
DOCKED: TER
DOCKED: ENDMDL
________________________________________________________________________________


    FINAL DOCKED STATE:
    ________________________


Run:   112 / 512
Time taken for this run:   0.002s

DOCKED: MODEL        112
DOCKED: USER    Run = 112
DOCKED: USER
DOCKED: USER    Estimated Free Energy of Binding    =  -4.72 kcal/mol  [=(1)+(2)+(3)-(4)]
DOCKED: USER
DOCKED: USER    (1) Final Intermolecular Energy     =  -6.21 kcal/mol
DOCKED: USER        vdW + Hbond + desolv Energy     =  -6.21 kcal/mol
DOCKED: USER        Electrostatic Energy            =  +0.00 kcal/mol
DOCKED: USER        Moving Ligand-Fixed Receptor    =  -6.21 kcal/mol
DOCKED: USER        Moving Ligand-Moving Receptor   =  +0.00 kcal/mol
DOCKED: USER    (2) Final Total Internal Energy     =  -1.57 kcal/mol
DOCKED: USER    (3) Torsional Free Energy           =  +1.49 kcal/mol
DOCKED: USER    (4) Unbound System's Energy         =  -1.57 kcal/mol
DOCKED: USER
DOCKED: USER
DOCKED: REMARK  5 active torsions:
DOCKED: REMARK  status: ('A' for Active; 'I' for Inactive)
DOCKED: REMARK    1  A    between atoms: C_2  and  C_19 
DOCKED: REMARK    2  A    between atoms: C_2  and  C_11 
DOCKED: REMARK    3  A    between atoms: C_19  and  C_20 
DOCKED: REMARK    4  A    between atoms: C_20  and  C_21 
DOCKED: REMARK    5  A    between atoms: C_21  and  N_22 
DOCKED: USER                              x       y       z     vdW  Elec       q    Type
DOCKED: USER                           _______ _______ _______ _____ _____    ______ ____
DOCKED: ROOT
DOCKED: ATOM      1  O   UNL     1     -35.461  -4.634   7.068 -0.09 -0.00    -0.346 OA 
DOCKED: ATOM      2  C   UNL     1     -34.155  -4.467   6.429 -0.17 +0.00    +0.130 C  
DOCKED: ATOM      3  C   UNL     1     -34.476  -3.789   5.128 -0.24 +0.00    +0.004 A  
DOCKED: ATOM      4  C   UNL     1     -35.830  -3.493   5.077 -0.23 +0.00    +0.006 A  
DOCKED: ATOM      5  C   UNL     1     -36.489  -3.937   6.327 -0.20 +0.00    +0.169 C  
DOCKED: ATOM      6  C   UNL     1     -33.634  -3.450   4.079 -0.21 -0.00    -0.001 A  
DOCKED: ATOM      7  C   UNL     1     -36.389  -2.857   3.982 -0.32 +0.00    +0.008 A  
DOCKED: ATOM      8  C   UNL     1     -34.182  -2.812   2.965 -0.27 +0.00    +0.010 A  
DOCKED: ATOM      9  C   UNL     1     -35.552  -2.516   2.918 -0.30 +0.00    +0.068 A  
DOCKED: ATOM     10  N   UNL     1     -36.537  -1.326   0.838 -2.52 -0.00    -0.191 NA 
DOCKED: ATOM     11  C   UNL     1     -36.096  -1.860   1.770 -0.35 +0.00    +0.101 C  
DOCKED: ENDROOT
DOCKED: BRANCH   2  12
DOCKED: ATOM     12  C   UNL     1     -33.276  -3.619   7.340 -0.16 +0.00    +0.038 C  
DOCKED: BRANCH  12  13
DOCKED: ATOM     13  C   UNL     1     -33.972  -3.322   8.666 -0.16 +0.00    +0.038 C  
DOCKED: BRANCH  13  14
DOCKED: ATOM     14  C   UNL     1     -33.721  -4.436   9.680 -0.06 +0.00    +0.251 C  
DOCKED: BRANCH  14  15
DOCKED: ATOM     15  N   UNL     1     -34.678  -5.520   9.491 -0.07 +0.00    +0.141 N  
DOCKED: ATOM     16  C   UNL     1     -34.097  -6.799   9.903 -0.07 +0.00    +0.285 C  
DOCKED: ATOM     17  C   UNL     1     -35.909  -5.257  10.238 -0.06 +0.00    +0.285 C  
DOCKED: ENDBRANCH  14  15
DOCKED: ENDBRANCH  13  14
DOCKED: ENDBRANCH  12  13
DOCKED: ENDBRANCH   2  12
DOCKED: BRANCH   2  18
DOCKED: ATOM     18  C   UNL     1     -33.582  -5.833   6.246 -0.12 +0.00    +0.006 A  
DOCKED: ATOM     19  C   UNL     1     -34.423  -6.944   6.219 -0.19 +0.00    +0.001 A  
DOCKED: ATOM     20  C   UNL     1     -33.886  -8.221   6.048 -0.13 +0.00    +0.029 A  
DOCKED: ATOM     21  C   UNL     1     -32.509  -8.384   5.905 -0.14 +0.00    +0.140 A  
DOCKED: ATOM     22  C   UNL     1     -31.667  -7.272   5.932 -0.05 +0.00    +0.029 A  
DOCKED: ATOM     23  F   UNL     1     -31.993  -9.609   5.739 -0.06 -0.00    -0.204 F  
DOCKED: ATOM     24  C   UNL     1     -32.204  -5.995   6.103 -0.05 +0.00    +0.001 A  
DOCKED: ENDBRANCH   2  18
DOCKED: TORSDOF 5
DOCKED: TER
DOCKED: ENDMDL
________________________________________________________________________________


    FINAL DOCKED STATE:
    ________________________


Run:   113 / 512
Time taken for this run:   0.002s

DOCKED: MODEL        113
DOCKED: USER    Run = 113
DOCKED: USER
DOCKED: USER    Estimated Free Energy of Binding    =  -3.93 kcal/mol  [=(1)+(2)+(3)-(4)]
DOCKED: USER
DOCKED: USER    (1) Final Intermolecular Energy     =  -5.43 kcal/mol
DOCKED: USER        vdW + Hbond + desolv Energy     =  -5.43 kcal/mol
DOCKED: USER        Electrostatic Energy            =  +0.00 kcal/mol
DOCKED: USER        Moving Ligand-Fixed Receptor    =  -5.43 kcal/mol
DOCKED: USER        Moving Ligand-Moving Receptor   =  +0.00 kcal/mol
DOCKED: USER    (2) Final Total Internal Energy     =  -1.59 kcal/mol
DOCKED: USER    (3) Torsional Free Energy           =  +1.49 kcal/mol
DOCKED: USER    (4) Unbound System's Energy         =  -1.59 kcal/mol
DOCKED: USER
DOCKED: USER
DOCKED: REMARK  5 active torsions:
DOCKED: REMARK  status: ('A' for Active; 'I' for Inactive)
DOCKED: REMARK    1  A    between atoms: C_2  and  C_19 
DOCKED: REMARK    2  A    between atoms: C_2  and  C_11 
DOCKED: REMARK    3  A    between atoms: C_19  and  C_20 
DOCKED: REMARK    4  A    between atoms: C_20  and  C_21 
DOCKED: REMARK    5  A    between atoms: C_21  and  N_22 
DOCKED: USER                              x       y       z     vdW  Elec       q    Type
DOCKED: USER                           _______ _______ _______ _____ _____    ______ ____
DOCKED: ROOT
DOCKED: ATOM      1  O   UNL     1     -28.843 -10.556   5.615 +0.01 -0.00    -0.346 OA 
DOCKED: ATOM      2  C   UNL     1     -30.098  -9.955   6.068 -0.05 +0.00    +0.130 C  
DOCKED: ATOM      3  C   UNL     1     -30.707 -11.012   6.943 -0.12 +0.00    +0.004 A  
DOCKED: ATOM      4  C   UNL     1     -29.828 -12.079   7.068 -0.09 +0.00    +0.006 A  
DOCKED: ATOM      5  C   UNL     1     -28.589 -11.800   6.308 -0.02 +0.00    +0.169 C  
DOCKED: ATOM      6  C   UNL     1     -31.936 -11.024   7.586 -0.25 -0.00    -0.001 A  
DOCKED: ATOM      7  C   UNL     1     -30.146 -13.189   7.832 -0.16 +0.00    +0.008 A  
DOCKED: ATOM      8  C   UNL     1     -32.273 -12.139   8.356 -0.31 +0.00    +0.010 A  
DOCKED: ATOM      9  C   UNL     1     -31.382 -13.215   8.479 -0.29 +0.00    +0.068 A  
DOCKED: ATOM     10  N   UNL     1     -32.037 -15.266   9.920 -2.58 -0.00    -0.191 NA 
DOCKED: ATOM     11  C   UNL     1     -31.743 -14.347   9.273 -0.39 +0.00    +0.101 C  
DOCKED: ENDROOT
DOCKED: BRANCH   2  12
DOCKED: ATOM     12  C   UNL     1     -29.773  -8.673   6.825 -0.02 +0.00    +0.038 C  
DOCKED: BRANCH  12  13
DOCKED: ATOM     13  C   UNL     1     -28.397  -8.133   6.442 -0.00 +0.00    +0.038 C  
DOCKED: BRANCH  13  14
DOCKED: ATOM     14  C   UNL     1     -28.477  -7.260   5.192 -0.00 +0.00    +0.251 C  
DOCKED: BRANCH  14  15
DOCKED: ATOM     15  N   UNL     1     -28.189  -8.050   4.001 -0.00 +0.00    +0.141 N  
DOCKED: ATOM     16  C   UNL     1     -28.568  -7.318   2.791 +0.00 +0.00    +0.285 C  
DOCKED: ATOM     17  C   UNL     1     -26.771  -8.412   3.953 +0.00 +0.00    +0.285 C  
DOCKED: ENDBRANCH  14  15
DOCKED: ENDBRANCH  13  14
DOCKED: ENDBRANCH  12  13
DOCKED: ENDBRANCH   2  12
DOCKED: BRANCH   2  18
DOCKED: ATOM     18  C   UNL     1     -30.911  -9.670   4.849 -0.12 +0.00    +0.006 A  
DOCKED: ATOM     19  C   UNL     1     -31.941  -8.732   4.903 -0.16 +0.00    +0.001 A  
DOCKED: ATOM     20  C   UNL     1     -32.700  -8.466   3.763 -0.21 +0.00    +0.029 A  
DOCKED: ATOM     21  C   UNL     1     -32.428  -9.138   2.572 -0.21 +0.00    +0.140 A  
DOCKED: ATOM     22  C   UNL     1     -31.397 -10.076   2.519 -0.18 +0.00    +0.029 A  
DOCKED: ATOM     23  F   UNL     1     -33.156  -8.881   1.477 -0.14 -0.00    -0.204 F  
DOCKED: ATOM     24  C   UNL     1     -30.637 -10.342   3.659 -0.13 +0.00    +0.001 A  
DOCKED: ENDBRANCH   2  18
DOCKED: TORSDOF 5
DOCKED: TER
DOCKED: ENDMDL
________________________________________________________________________________


    FINAL DOCKED STATE:
    ________________________


Run:   114 / 512
Time taken for this run:   0.002s

DOCKED: MODEL        114
DOCKED: USER    Run = 114
DOCKED: USER
DOCKED: USER    Estimated Free Energy of Binding    =  -5.51 kcal/mol  [=(1)+(2)+(3)-(4)]
DOCKED: USER
DOCKED: USER    (1) Final Intermolecular Energy     =  -7.01 kcal/mol
DOCKED: USER        vdW + Hbond + desolv Energy     =  -7.01 kcal/mol
DOCKED: USER        Electrostatic Energy            =  +0.00 kcal/mol
DOCKED: USER        Moving Ligand-Fixed Receptor    =  -7.01 kcal/mol
DOCKED: USER        Moving Ligand-Moving Receptor   =  +0.00 kcal/mol
DOCKED: USER    (2) Final Total Internal Energy     =  -1.30 kcal/mol
DOCKED: USER    (3) Torsional Free Energy           =  +1.49 kcal/mol
DOCKED: USER    (4) Unbound System's Energy         =  -1.30 kcal/mol
DOCKED: USER
DOCKED: USER
DOCKED: REMARK  5 active torsions:
DOCKED: REMARK  status: ('A' for Active; 'I' for Inactive)
DOCKED: REMARK    1  A    between atoms: C_2  and  C_19 
DOCKED: REMARK    2  A    between atoms: C_2  and  C_11 
DOCKED: REMARK    3  A    between atoms: C_19  and  C_20 
DOCKED: REMARK    4  A    between atoms: C_20  and  C_21 
DOCKED: REMARK    5  A    between atoms: C_21  and  N_22 
DOCKED: USER                              x       y       z     vdW  Elec       q    Type
DOCKED: USER                           _______ _______ _______ _____ _____    ______ ____
DOCKED: ROOT
DOCKED: ATOM      1  O   UNL     1     -37.867 -10.752  14.051 -0.03 -0.00    -0.346 OA 
DOCKED: ATOM      2  C   UNL     1     -37.504 -12.170  14.031 -0.19 +0.00    +0.130 C  
DOCKED: ATOM      3  C   UNL     1     -37.905 -12.623  12.657 -0.33 +0.00    +0.004 A  
DOCKED: ATOM      4  C   UNL     1     -38.355 -11.538  11.919 -0.34 +0.00    +0.006 A  
DOCKED: ATOM      5  C   UNL     1     -38.272 -10.306  12.736 -0.22 +0.00    +0.169 C  
DOCKED: ATOM      6  C   UNL     1     -37.865 -13.894  12.101 -0.25 -0.00    -0.001 A  
DOCKED: ATOM      7  C   UNL     1     -38.781 -11.683  10.610 +0.12 +0.00    +0.008 A  
DOCKED: ATOM      8  C   UNL     1     -38.295 -14.057  10.783 -0.48 +0.00    +0.010 A  
DOCKED: ATOM      9  C   UNL     1     -38.750 -12.957  10.041 -0.43 +0.00    +0.068 A  
DOCKED: ATOM     10  N   UNL     1     -39.537 -13.294   7.596 -3.02 -0.00    -0.191 NA 
DOCKED: ATOM     11  C   UNL     1     -39.185 -13.143   8.693 -0.42 +0.00    +0.101 C  
DOCKED: ENDROOT
DOCKED: BRANCH   2  12
DOCKED: ATOM     12  C   UNL     1     -36.006 -12.288  14.281 -0.26 +0.00    +0.038 C  
DOCKED: BRANCH  12  13
DOCKED: ATOM     13  C   UNL     1     -35.311 -10.934  14.154 -0.18 +0.00    +0.038 C  
DOCKED: BRANCH  13  14
DOCKED: ATOM     14  C   UNL     1     -35.300 -10.195  15.491 -0.05 +0.00    +0.251 C  
DOCKED: BRANCH  14  15
DOCKED: ATOM     15  N   UNL     1     -35.667  -8.797  15.301 -0.03 +0.00    +0.141 N  
DOCKED: ATOM     16  C   UNL     1     -37.048  -8.564  15.727 -0.01 +0.00    +0.285 C  
DOCKED: ATOM     17  C   UNL     1     -34.755  -7.919  16.036 -0.00 +0.00    +0.285 C  
DOCKED: ENDBRANCH  14  15
DOCKED: ENDBRANCH  13  14
DOCKED: ENDBRANCH  12  13
DOCKED: ENDBRANCH   2  12
DOCKED: BRANCH   2  18
DOCKED: ATOM     18  C   UNL     1     -38.285 -12.836  15.114 -0.17 +0.00    +0.006 A  
DOCKED: ATOM     19  C   UNL     1     -37.621 -13.517  16.133 -0.22 +0.00    +0.001 A  
DOCKED: ATOM     20  C   UNL     1     -38.353 -14.140  17.146 -0.14 +0.00    +0.029 A  
DOCKED: ATOM     21  C   UNL     1     -39.745 -14.080  17.138 -0.04 +0.00    +0.140 A  
DOCKED: ATOM     22  C   UNL     1     -40.409 -13.397  16.118 -0.13 +0.00    +0.029 A  
DOCKED: ATOM     23  F   UNL     1     -40.447 -14.676  18.110 -0.04 -0.00    -0.204 F  
DOCKED: ATOM     24  C   UNL     1     -39.678 -12.775  15.105 -0.14 +0.00    +0.001 A  
DOCKED: ENDBRANCH   2  18
DOCKED: TORSDOF 5
DOCKED: TER
DOCKED: ENDMDL
________________________________________________________________________________


    FINAL DOCKED STATE:
    ________________________


Run:   115 / 512
Time taken for this run:   0.002s

DOCKED: MODEL        115
DOCKED: USER    Run = 115
DOCKED: USER
DOCKED: USER    Estimated Free Energy of Binding    =  -3.48 kcal/mol  [=(1)+(2)+(3)-(4)]
DOCKED: USER
DOCKED: USER    (1) Final Intermolecular Energy     =  -4.98 kcal/mol
DOCKED: USER        vdW + Hbond + desolv Energy     =  -4.98 kcal/mol
DOCKED: USER        Electrostatic Energy            =  +0.00 kcal/mol
DOCKED: USER        Moving Ligand-Fixed Receptor    =  -4.98 kcal/mol
DOCKED: USER        Moving Ligand-Moving Receptor   =  +0.00 kcal/mol
DOCKED: USER    (2) Final Total Internal Energy     =  -1.59 kcal/mol
DOCKED: USER    (3) Torsional Free Energy           =  +1.49 kcal/mol
DOCKED: USER    (4) Unbound System's Energy         =  -1.59 kcal/mol
DOCKED: USER
DOCKED: USER
DOCKED: REMARK  5 active torsions:
DOCKED: REMARK  status: ('A' for Active; 'I' for Inactive)
DOCKED: REMARK    1  A    between atoms: C_2  and  C_19 
DOCKED: REMARK    2  A    between atoms: C_2  and  C_11 
DOCKED: REMARK    3  A    between atoms: C_19  and  C_20 
DOCKED: REMARK    4  A    between atoms: C_20  and  C_21 
DOCKED: REMARK    5  A    between atoms: C_21  and  N_22 
DOCKED: USER                              x       y       z     vdW  Elec       q    Type
DOCKED: USER                           _______ _______ _______ _____ _____    ______ ____
DOCKED: ROOT
DOCKED: ATOM      1  O   UNL     1     -30.909   0.296   4.475 -0.03 -0.00    -0.346 OA 
DOCKED: ATOM      2  C   UNL     1     -30.592   0.084   3.062 -0.07 +0.00    +0.130 C  
DOCKED: ATOM      3  C   UNL     1     -31.895  -0.362   2.464 -0.15 +0.00    +0.004 A  
DOCKED: ATOM      4  C   UNL     1     -32.894  -0.303   3.425 -0.24 +0.00    +0.006 A  
DOCKED: ATOM      5  C   UNL     1     -32.333   0.190   4.703 -0.17 +0.00    +0.169 C  
DOCKED: ATOM      6  C   UNL     1     -32.176  -0.775   1.170 -0.18 -0.00    -0.001 A  
DOCKED: ATOM      7  C   UNL     1     -34.199  -0.658   3.130 -0.31 +0.00    +0.008 A  
DOCKED: ATOM      8  C   UNL     1     -33.486  -1.140   0.858 -0.28 +0.00    +0.010 A  
DOCKED: ATOM      9  C   UNL     1     -34.493  -1.081   1.833 -0.35 +0.00    +0.068 A  
DOCKED: ATOM     10  N   UNL     1     -36.917  -1.761   1.219 -2.53 -0.00    -0.191 NA 
DOCKED: ATOM     11  C   UNL     1     -35.829  -1.456   1.495 -0.42 +0.00    +0.101 C  
DOCKED: ENDROOT
DOCKED: BRANCH   2  12
DOCKED: ATOM     12  C   UNL     1     -30.090   1.399   2.477 -0.10 +0.00    +0.038 C  
DOCKED: BRANCH  12  13
DOCKED: ATOM     13  C   UNL     1     -29.734   2.398   3.577 -0.06 +0.00    +0.038 C  
DOCKED: BRANCH  13  14
DOCKED: ATOM     14  C   UNL     1     -28.246   2.332   3.918 +0.00 +0.00    +0.251 C  
DOCKED: BRANCH  14  15
DOCKED: ATOM     15  N   UNL     1     -27.958   1.138   4.704 -0.01 +0.00    +0.141 N  
DOCKED: ATOM     16  C   UNL     1     -26.514   0.927   4.812 +0.00 +0.00    +0.285 C  
DOCKED: ATOM     17  C   UNL     1     -28.557   1.240   6.036 -0.01 +0.00    +0.285 C  
DOCKED: ENDBRANCH  14  15
DOCKED: ENDBRANCH  13  14
DOCKED: ENDBRANCH  12  13
DOCKED: ENDBRANCH   2  12
DOCKED: BRANCH   2  18
DOCKED: ATOM     18  C   UNL     1     -29.535  -0.968   3.005 -0.03 +0.00    +0.006 A  
DOCKED: ATOM     19  C   UNL     1     -28.657  -1.016   1.924 -0.01 +0.00    +0.001 A  
DOCKED: ATOM     20  C   UNL     1     -27.669  -2.001   1.872 -0.00 +0.00    +0.029 A  
DOCKED: ATOM     21  C   UNL     1     -27.562  -2.936   2.900 -0.00 +0.00    +0.140 A  
DOCKED: ATOM     22  C   UNL     1     -28.442  -2.887   3.982 -0.00 +0.00    +0.029 A  
DOCKED: ATOM     23  F   UNL     1     -26.613  -3.880   2.851 +0.00 -0.00    -0.204 F  
DOCKED: ATOM     24  C   UNL     1     -29.430  -1.903   4.034 -0.02 +0.00    +0.001 A  
DOCKED: ENDBRANCH   2  18
DOCKED: TORSDOF 5
DOCKED: TER
DOCKED: ENDMDL
________________________________________________________________________________


    FINAL DOCKED STATE:
    ________________________


Run:   116 / 512
Time taken for this run:   0.002s

DOCKED: MODEL        116
DOCKED: USER    Run = 116
DOCKED: USER
DOCKED: USER    Estimated Free Energy of Binding    =  -4.84 kcal/mol  [=(1)+(2)+(3)-(4)]
DOCKED: USER
DOCKED: USER    (1) Final Intermolecular Energy     =  -6.33 kcal/mol
DOCKED: USER        vdW + Hbond + desolv Energy     =  -6.33 kcal/mol
DOCKED: USER        Electrostatic Energy            =  +0.00 kcal/mol
DOCKED: USER        Moving Ligand-Fixed Receptor    =  -6.33 kcal/mol
DOCKED: USER        Moving Ligand-Moving Receptor   =  +0.00 kcal/mol
DOCKED: USER    (2) Final Total Internal Energy     =  -1.33 kcal/mol
DOCKED: USER    (3) Torsional Free Energy           =  +1.49 kcal/mol
DOCKED: USER    (4) Unbound System's Energy         =  -1.33 kcal/mol
DOCKED: USER
DOCKED: USER
DOCKED: REMARK  5 active torsions:
DOCKED: REMARK  status: ('A' for Active; 'I' for Inactive)
DOCKED: REMARK    1  A    between atoms: C_2  and  C_19 
DOCKED: REMARK    2  A    between atoms: C_2  and  C_11 
DOCKED: REMARK    3  A    between atoms: C_19  and  C_20 
DOCKED: REMARK    4  A    between atoms: C_20  and  C_21 
DOCKED: REMARK    5  A    between atoms: C_21  and  N_22 
DOCKED: USER                              x       y       z     vdW  Elec       q    Type
DOCKED: USER                           _______ _______ _______ _____ _____    ______ ____
DOCKED: ROOT
DOCKED: ATOM      1  O   UNL     1     -36.912 -13.200  14.725 -0.09 -0.00    -0.346 OA 
DOCKED: ATOM      2  C   UNL     1     -36.997 -11.838  14.196 -0.19 +0.00    +0.130 C  
DOCKED: ATOM      3  C   UNL     1     -37.533 -12.025  12.806 -0.31 +0.00    +0.004 A  
DOCKED: ATOM      4  C   UNL     1     -37.833 -13.364  12.598 -0.38 +0.00    +0.006 A  
DOCKED: ATOM      5  C   UNL     1     -37.533 -14.142  13.820 -0.19 +0.00    +0.169 C  
DOCKED: ATOM      6  C   UNL     1     -37.749 -11.084  11.810 -0.29 -0.00    -0.001 A  
DOCKED: ATOM      7  C   UNL     1     -38.352 -13.807  11.393 -0.45 +0.00    +0.008 A  
DOCKED: ATOM      8  C   UNL     1     -38.268 -11.516  10.588 +0.01 +0.00    +0.010 A  
DOCKED: ATOM      9  C   UNL     1     -38.568 -12.871  10.381 -0.40 +0.00    +0.068 A  
DOCKED: ATOM     10  N   UNL     1     -39.535 -13.638   8.103 -2.28 -0.00    -0.191 NA 
DOCKED: ATOM     11  C   UNL     1     -39.101 -13.294   9.125 -0.51 +0.00    +0.101 C  
DOCKED: ENDROOT
DOCKED: BRANCH   2  12
DOCKED: ATOM     12  C   UNL     1     -37.931 -11.031  15.089 -0.10 +0.00    +0.038 C  
DOCKED: BRANCH  12  13
DOCKED: ATOM     13  C   UNL     1     -39.396 -11.314  14.762 -0.10 +0.00    +0.038 C  
DOCKED: BRANCH  13  14
DOCKED: ATOM     14  C   UNL     1     -39.936 -12.465  15.609 -0.05 +0.00    +0.251 C  
DOCKED: BRANCH  14  15
DOCKED: ATOM     15  N   UNL     1     -39.334 -12.443  16.937 -0.05 +0.00    +0.141 N  
DOCKED: ATOM     16  C   UNL     1     -40.345 -12.165  17.958 -0.01 +0.00    +0.285 C  
DOCKED: ATOM     17  C   UNL     1     -38.663 -13.713  17.219 -0.09 +0.00    +0.285 C  
DOCKED: ENDBRANCH  14  15
DOCKED: ENDBRANCH  13  14
DOCKED: ENDBRANCH  12  13
DOCKED: ENDBRANCH   2  12
DOCKED: BRANCH   2  18
DOCKED: ATOM     18  C   UNL     1     -35.615 -11.276  14.215 -0.19 +0.00    +0.006 A  
DOCKED: ATOM     19  C   UNL     1     -35.420  -9.901  14.089 -0.14 +0.00    +0.001 A  
DOCKED: ATOM     20  C   UNL     1     -34.127  -9.376  14.106 -0.10 +0.00    +0.029 A  
DOCKED: ATOM     21  C   UNL     1     -33.032 -10.226  14.250 -0.09 +0.00    +0.140 A  
DOCKED: ATOM     22  C   UNL     1     -33.227 -11.601  14.377 -0.17 +0.00    +0.029 A  
DOCKED: ATOM     23  F   UNL     1     -31.791  -9.722  14.269 -0.01 -0.00    -0.204 F  
DOCKED: ATOM     24  C   UNL     1     -34.520 -12.127  14.359 -0.14 +0.00    +0.001 A  
DOCKED: ENDBRANCH   2  18
DOCKED: TORSDOF 5
DOCKED: TER
DOCKED: ENDMDL
________________________________________________________________________________


    FINAL DOCKED STATE:
    ________________________


Run:   117 / 512
Time taken for this run:   0.002s

DOCKED: MODEL        117
DOCKED: USER    Run = 117
DOCKED: USER
DOCKED: USER    Estimated Free Energy of Binding    =  -3.95 kcal/mol  [=(1)+(2)+(3)-(4)]
DOCKED: USER
DOCKED: USER    (1) Final Intermolecular Energy     =  -5.44 kcal/mol
DOCKED: USER        vdW + Hbond + desolv Energy     =  -5.44 kcal/mol
DOCKED: USER        Electrostatic Energy            =  +0.00 kcal/mol
DOCKED: USER        Moving Ligand-Fixed Receptor    =  -5.44 kcal/mol
DOCKED: USER        Moving Ligand-Moving Receptor   =  +0.00 kcal/mol
DOCKED: USER    (2) Final Total Internal Energy     =  -1.54 kcal/mol
DOCKED: USER    (3) Torsional Free Energy           =  +1.49 kcal/mol
DOCKED: USER    (4) Unbound System's Energy         =  -1.54 kcal/mol
DOCKED: USER
DOCKED: USER
DOCKED: REMARK  5 active torsions:
DOCKED: REMARK  status: ('A' for Active; 'I' for Inactive)
DOCKED: REMARK    1  A    between atoms: C_2  and  C_19 
DOCKED: REMARK    2  A    between atoms: C_2  and  C_11 
DOCKED: REMARK    3  A    between atoms: C_19  and  C_20 
DOCKED: REMARK    4  A    between atoms: C_20  and  C_21 
DOCKED: REMARK    5  A    between atoms: C_21  and  N_22 
DOCKED: USER                              x       y       z     vdW  Elec       q    Type
DOCKED: USER                           _______ _______ _______ _____ _____    ______ ____
DOCKED: ROOT
DOCKED: ATOM      1  O   UNL     1     -28.812 -10.374   6.037 +0.01 -0.00    -0.346 OA 
DOCKED: ATOM      2  C   UNL     1     -30.180  -9.913   6.278 -0.05 +0.00    +0.130 C  
DOCKED: ATOM      3  C   UNL     1     -30.784 -11.000   7.118 -0.12 +0.00    +0.004 A  
DOCKED: ATOM      4  C   UNL     1     -29.816 -11.945   7.425 -0.08 +0.00    +0.006 A  
DOCKED: ATOM      5  C   UNL     1     -28.520 -11.549   6.829 -0.02 +0.00    +0.169 C  
DOCKED: ATOM      6  C   UNL     1     -32.083 -11.136   7.584 -0.27 -0.00    -0.001 A  
DOCKED: ATOM      7  C   UNL     1     -30.111 -13.055   8.199 -0.16 +0.00    +0.008 A  
DOCKED: ATOM      8  C   UNL     1     -32.398 -12.251   8.362 -0.32 +0.00    +0.010 A  
DOCKED: ATOM      9  C   UNL     1     -31.416 -13.205   8.669 -0.29 +0.00    +0.068 A  
DOCKED: ATOM     10  N   UNL     1     -32.033 -15.261  10.120 -2.65 -0.00    -0.191 NA 
DOCKED: ATOM     11  C   UNL     1     -31.757 -14.339   9.468 -0.36 +0.00    +0.101 C  
DOCKED: ENDROOT
DOCKED: BRANCH   2  12
DOCKED: ATOM     12  C   UNL     1     -30.117  -8.571   6.998 -0.03 +0.00    +0.038 C  
DOCKED: BRANCH  12  13
DOCKED: ATOM     13  C   UNL     1     -28.781  -7.871   6.756 -0.00 +0.00    +0.038 C  
DOCKED: BRANCH  13  14
DOCKED: ATOM     14  C   UNL     1     -28.623  -7.483   5.287 -0.00 +0.00    +0.251 C  
DOCKED: BRANCH  14  15
DOCKED: ATOM     15  N   UNL     1     -27.302  -7.867   4.801 -0.00 +0.00    +0.141 N  
DOCKED: ATOM     16  C   UNL     1     -26.514  -8.474   5.874 +0.00 +0.00    +0.285 C  
DOCKED: ATOM     17  C   UNL     1     -27.417  -8.790   3.671 +0.00 +0.00    +0.285 C  
DOCKED: ENDBRANCH  14  15
DOCKED: ENDBRANCH  13  14
DOCKED: ENDBRANCH  12  13
DOCKED: ENDBRANCH   2  12
DOCKED: BRANCH   2  18
DOCKED: ATOM     18  C   UNL     1     -30.835  -9.777   4.944 -0.11 +0.00    +0.006 A  
DOCKED: ATOM     19  C   UNL     1     -30.471 -10.626   3.899 -0.13 +0.00    +0.001 A  
DOCKED: ATOM     20  C   UNL     1     -31.084 -10.498   2.652 -0.16 +0.00    +0.029 A  
DOCKED: ATOM     21  C   UNL     1     -32.060  -9.523   2.452 -0.20 +0.00    +0.140 A  
DOCKED: ATOM     22  C   UNL     1     -32.425  -8.675   3.497 -0.21 +0.00    +0.029 A  
DOCKED: ATOM     23  F   UNL     1     -32.650  -9.402   1.256 -0.12 -0.00    -0.204 F  
DOCKED: ATOM     24  C   UNL     1     -31.811  -8.802   4.745 -0.16 +0.00    +0.001 A  
DOCKED: ENDBRANCH   2  18
DOCKED: TORSDOF 5
DOCKED: TER
DOCKED: ENDMDL
________________________________________________________________________________


    FINAL DOCKED STATE:
    ________________________


Run:   118 / 512
Time taken for this run:   0.002s

DOCKED: MODEL        118
DOCKED: USER    Run = 118
DOCKED: USER
DOCKED: USER    Estimated Free Energy of Binding    =  -5.03 kcal/mol  [=(1)+(2)+(3)-(4)]
DOCKED: USER
DOCKED: USER    (1) Final Intermolecular Energy     =  -6.52 kcal/mol
DOCKED: USER        vdW + Hbond + desolv Energy     =  -6.52 kcal/mol
DOCKED: USER        Electrostatic Energy            =  +0.00 kcal/mol
DOCKED: USER        Moving Ligand-Fixed Receptor    =  -6.52 kcal/mol
DOCKED: USER        Moving Ligand-Moving Receptor   =  +0.00 kcal/mol
DOCKED: USER    (2) Final Total Internal Energy     =  -1.14 kcal/mol
DOCKED: USER    (3) Torsional Free Energy           =  +1.49 kcal/mol
DOCKED: USER    (4) Unbound System's Energy         =  -1.14 kcal/mol
DOCKED: USER
DOCKED: USER
DOCKED: REMARK  5 active torsions:
DOCKED: REMARK  status: ('A' for Active; 'I' for Inactive)
DOCKED: REMARK    1  A    between atoms: C_2  and  C_19 
DOCKED: REMARK    2  A    between atoms: C_2  and  C_11 
DOCKED: REMARK    3  A    between atoms: C_19  and  C_20 
DOCKED: REMARK    4  A    between atoms: C_20  and  C_21 
DOCKED: REMARK    5  A    between atoms: C_21  and  N_22 
DOCKED: USER                              x       y       z     vdW  Elec       q    Type
DOCKED: USER                           _______ _______ _______ _____ _____    ______ ____
DOCKED: ROOT
DOCKED: ATOM      1  O   UNL     1     -38.284 -12.867  14.587 -0.05 -0.00    -0.346 OA 
DOCKED: ATOM      2  C   UNL     1     -37.938 -11.621  13.901 -0.16 +0.00    +0.130 C  
DOCKED: ATOM      3  C   UNL     1     -38.240 -11.909  12.459 -0.32 +0.00    +0.004 A  
DOCKED: ATOM      4  C   UNL     1     -38.813 -13.168  12.344 -0.33 +0.00    +0.006 A  
DOCKED: ATOM      5  C   UNL     1     -38.939 -13.786  13.683 -0.15 +0.00    +0.169 C  
DOCKED: ATOM      6  C   UNL     1     -38.036 -11.115  11.340 -0.22 -0.00    -0.001 A  
DOCKED: ATOM      7  C   UNL     1     -39.194 -13.677  11.115 -0.44 +0.00    +0.008 A  
DOCKED: ATOM      8  C   UNL     1     -38.411 -11.616  10.092 +0.25 +0.00    +0.010 A  
DOCKED: ATOM      9  C   UNL     1     -38.988 -12.890   9.980 -0.42 +0.00    +0.068 A  
DOCKED: ATOM     10  N   UNL     1     -39.677 -13.787   7.650 -2.62 -0.00    -0.191 NA 
DOCKED: ATOM     11  C   UNL     1     -39.367 -13.385   8.695 -0.34 +0.00    +0.101 C  
DOCKED: ENDROOT
DOCKED: BRANCH   2  12
DOCKED: ATOM     12  C   UNL     1     -38.796 -10.500  14.475 -0.11 +0.00    +0.038 C  
DOCKED: BRANCH  12  13
DOCKED: ATOM     13  C   UNL     1     -40.126 -10.381  13.734 -0.17 +0.00    +0.038 C  
DOCKED: BRANCH  13  14
DOCKED: ATOM     14  C   UNL     1     -40.195  -9.082  12.933 -0.17 +0.00    +0.251 C  
DOCKED: BRANCH  14  15
DOCKED: ATOM     15  N   UNL     1     -41.559  -8.839  12.477 -0.19 +0.00    +0.141 N  
DOCKED: ATOM     16  C   UNL     1     -42.450  -9.912  12.919 -0.15 +0.00    +0.285 C  
DOCKED: ATOM     17  C   UNL     1     -42.042  -7.545  12.962 -0.13 +0.00    +0.285 C  
DOCKED: ENDBRANCH  14  15
DOCKED: ENDBRANCH  13  14
DOCKED: ENDBRANCH  12  13
DOCKED: ENDBRANCH   2  12
DOCKED: BRANCH   2  18
DOCKED: ATOM     18  C   UNL     1     -36.488 -11.372  14.153 -0.20 +0.00    +0.006 A  
DOCKED: ATOM     19  C   UNL     1     -35.612 -12.447  14.296 -0.14 +0.00    +0.001 A  
DOCKED: ATOM     20  C   UNL     1     -34.256 -12.213  14.532 -0.07 +0.00    +0.029 A  
DOCKED: ATOM     21  C   UNL     1     -33.780 -10.906  14.624 -0.11 +0.00    +0.140 A  
DOCKED: ATOM     22  C   UNL     1     -34.657  -9.832  14.481 -0.11 +0.00    +0.029 A  
DOCKED: ATOM     23  F   UNL     1     -32.479 -10.682  14.849 -0.02 -0.00    -0.204 F  
DOCKED: ATOM     24  C   UNL     1     -36.014 -10.065  14.245 -0.14 +0.00    +0.001 A  
DOCKED: ENDBRANCH   2  18
DOCKED: TORSDOF 5
DOCKED: TER
DOCKED: ENDMDL
________________________________________________________________________________


    FINAL DOCKED STATE:
    ________________________


Run:   119 / 512
Time taken for this run:   0.002s

DOCKED: MODEL        119
DOCKED: USER    Run = 119
DOCKED: USER
DOCKED: USER    Estimated Free Energy of Binding    =  -3.34 kcal/mol  [=(1)+(2)+(3)-(4)]
DOCKED: USER
DOCKED: USER    (1) Final Intermolecular Energy     =  -4.83 kcal/mol
DOCKED: USER        vdW + Hbond + desolv Energy     =  -4.83 kcal/mol
DOCKED: USER        Electrostatic Energy            =  +0.00 kcal/mol
DOCKED: USER        Moving Ligand-Fixed Receptor    =  -4.83 kcal/mol
DOCKED: USER        Moving Ligand-Moving Receptor   =  +0.00 kcal/mol
DOCKED: USER    (2) Final Total Internal Energy     =  -1.41 kcal/mol
DOCKED: USER    (3) Torsional Free Energy           =  +1.49 kcal/mol
DOCKED: USER    (4) Unbound System's Energy         =  -1.41 kcal/mol
DOCKED: USER
DOCKED: USER
DOCKED: REMARK  5 active torsions:
DOCKED: REMARK  status: ('A' for Active; 'I' for Inactive)
DOCKED: REMARK    1  A    between atoms: C_2  and  C_19 
DOCKED: REMARK    2  A    between atoms: C_2  and  C_11 
DOCKED: REMARK    3  A    between atoms: C_19  and  C_20 
DOCKED: REMARK    4  A    between atoms: C_20  and  C_21 
DOCKED: REMARK    5  A    between atoms: C_21  and  N_22 
DOCKED: USER                              x       y       z     vdW  Elec       q    Type
DOCKED: USER                           _______ _______ _______ _____ _____    ______ ____
DOCKED: ROOT
DOCKED: ATOM      1  O   UNL     1     -36.581 -10.705  16.127 -0.01 -0.00    -0.346 OA 
DOCKED: ATOM      2  C   UNL     1     -36.236 -10.200  14.798 -0.09 +0.00    +0.130 C  
DOCKED: ATOM      3  C   UNL     1     -36.941 -11.140  13.863 -0.20 +0.00    +0.004 A  
DOCKED: ATOM      4  C   UNL     1     -37.710 -12.035  14.592 -0.16 +0.00    +0.006 A  
DOCKED: ATOM      5  C   UNL     1     -37.581 -11.747  16.038 -0.07 +0.00    +0.169 C  
DOCKED: ATOM      6  C   UNL     1     -36.912 -11.191  12.477 -0.18 -0.00    -0.001 A  
DOCKED: ATOM      7  C   UNL     1     -38.470 -13.009  13.967 -0.22 +0.00    +0.008 A  
DOCKED: ATOM      8  C   UNL     1     -37.669 -12.171  11.831 -0.33 +0.00    +0.010 A  
DOCKED: ATOM      9  C   UNL     1     -38.444 -13.075  12.573 -0.28 +0.00    +0.068 A  
DOCKED: ATOM     10  N   UNL     1     -39.842 -14.877  11.344 -2.42 -0.00    -0.191 NA 
DOCKED: ATOM     11  C   UNL     1     -39.214 -14.069  11.895 -0.14 +0.00    +0.101 C  
DOCKED: ENDROOT
DOCKED: BRANCH   2  12
DOCKED: ATOM     12  C   UNL     1     -36.734  -8.764  14.682 -0.07 +0.00    +0.038 C  
DOCKED: BRANCH  12  13
DOCKED: ATOM     13  C   UNL     1     -36.221  -7.903  15.835 -0.02 +0.00    +0.038 C  
DOCKED: BRANCH  13  14
DOCKED: ATOM     14  C   UNL     1     -37.160  -7.979  17.037 -0.00 +0.00    +0.251 C  
DOCKED: BRANCH  14  15
DOCKED: ATOM     15  N   UNL     1     -36.462  -8.533  18.191 -0.00 +0.00    +0.141 N  
DOCKED: ATOM     16  C   UNL     1     -35.029  -8.656  17.918 -0.00 +0.00    +0.285 C  
DOCKED: ATOM     17  C   UNL     1     -36.684  -7.703  19.376 +0.00 +0.00    +0.285 C  
DOCKED: ENDBRANCH  14  15
DOCKED: ENDBRANCH  13  14
DOCKED: ENDBRANCH  12  13
DOCKED: ENDBRANCH   2  12
DOCKED: BRANCH   2  18
DOCKED: ATOM     18  C   UNL     1     -34.750 -10.267  14.678 -0.12 +0.00    +0.006 A  
DOCKED: ATOM     19  C   UNL     1     -34.075  -9.354  13.868 -0.11 +0.00    +0.001 A  
DOCKED: ATOM     20  C   UNL     1     -32.686  -9.417  13.757 -0.09 +0.00    +0.029 A  
DOCKED: ATOM     21  C   UNL     1     -31.974 -10.391  14.455 -0.07 +0.00    +0.140 A  
DOCKED: ATOM     22  C   UNL     1     -32.649 -11.303  15.265 -0.12 +0.00    +0.029 A  
DOCKED: ATOM     23  F   UNL     1     -30.640 -10.450  14.349 -0.00 -0.00    -0.204 F  
DOCKED: ATOM     24  C   UNL     1     -34.040 -11.242  15.377 -0.14 +0.00    +0.001 A  
DOCKED: ENDBRANCH   2  18
DOCKED: TORSDOF 5
DOCKED: TER
DOCKED: ENDMDL
________________________________________________________________________________


    FINAL DOCKED STATE:
    ________________________


Run:   120 / 512
Time taken for this run:   0.002s

DOCKED: MODEL        120
DOCKED: USER    Run = 120
DOCKED: USER
DOCKED: USER    Estimated Free Energy of Binding    =  -4.57 kcal/mol  [=(1)+(2)+(3)-(4)]
DOCKED: USER
DOCKED: USER    (1) Final Intermolecular Energy     =  -6.06 kcal/mol
DOCKED: USER        vdW + Hbond + desolv Energy     =  -6.06 kcal/mol
DOCKED: USER        Electrostatic Energy            =  +0.00 kcal/mol
DOCKED: USER        Moving Ligand-Fixed Receptor    =  -6.06 kcal/mol
DOCKED: USER        Moving Ligand-Moving Receptor   =  +0.00 kcal/mol
DOCKED: USER    (2) Final Total Internal Energy     =  -1.32 kcal/mol
DOCKED: USER    (3) Torsional Free Energy           =  +1.49 kcal/mol
DOCKED: USER    (4) Unbound System's Energy         =  -1.32 kcal/mol
DOCKED: USER
DOCKED: USER
DOCKED: REMARK  5 active torsions:
DOCKED: REMARK  status: ('A' for Active; 'I' for Inactive)
DOCKED: REMARK    1  A    between atoms: C_2  and  C_19 
DOCKED: REMARK    2  A    between atoms: C_2  and  C_11 
DOCKED: REMARK    3  A    between atoms: C_19  and  C_20 
DOCKED: REMARK    4  A    between atoms: C_20  and  C_21 
DOCKED: REMARK    5  A    between atoms: C_21  and  N_22 
DOCKED: USER                              x       y       z     vdW  Elec       q    Type
DOCKED: USER                           _______ _______ _______ _____ _____    ______ ____
DOCKED: ROOT
DOCKED: ATOM      1  O   UNL     1     -37.109  -8.208  12.854 -0.07 -0.00    -0.346 OA 
DOCKED: ATOM      2  C   UNL     1     -38.421  -8.411  13.469 -0.15 +0.00    +0.130 C  
DOCKED: ATOM      3  C   UNL     1     -38.784  -9.817  13.087 -0.22 +0.00    +0.004 A  
DOCKED: ATOM      4  C   UNL     1     -37.725 -10.404  12.408 -0.28 +0.00    +0.006 A  
DOCKED: ATOM      5  C   UNL     1     -36.601  -9.447  12.306 -0.13 +0.00    +0.169 C  
DOCKED: ATOM      6  C   UNL     1     -39.952 -10.524  13.330 -0.19 -0.00    -0.001 A  
DOCKED: ATOM      7  C   UNL     1     -37.799 -11.708  11.947 -0.33 +0.00    +0.008 A  
DOCKED: ATOM      8  C   UNL     1     -40.044 -11.838  12.868 -0.21 +0.00    +0.010 A  
DOCKED: ATOM      9  C   UNL     1     -38.972 -12.427  12.181 -0.27 +0.00    +0.068 A  
DOCKED: ATOM     10  N   UNL     1     -39.172 -14.870  11.342 -2.61 -0.00    -0.191 NA 
DOCKED: ATOM     11  C   UNL     1     -39.082 -13.774  11.718 -0.37 +0.00    +0.101 C  
DOCKED: ENDROOT
DOCKED: BRANCH   2  12
DOCKED: ATOM     12  C   UNL     1     -38.283  -8.223  14.975 -0.05 +0.00    +0.038 C  
DOCKED: BRANCH  12  13
DOCKED: ATOM     13  C   UNL     1     -36.988  -7.494  15.329 -0.03 +0.00    +0.038 C  
DOCKED: BRANCH  13  14
DOCKED: ATOM     14  C   UNL     1     -36.006  -8.429  16.033 -0.01 +0.00    +0.251 C  
DOCKED: BRANCH  14  15
DOCKED: ATOM     15  N   UNL     1     -35.241  -9.192  15.054 -0.04 +0.00    +0.141 N  
DOCKED: ATOM     16  C   UNL     1     -34.096  -8.416  14.576 -0.03 +0.00    +0.285 C  
DOCKED: ATOM     17  C   UNL     1     -34.790 -10.461  15.628 -0.05 +0.00    +0.285 C  
DOCKED: ENDBRANCH  14  15
DOCKED: ENDBRANCH  13  14
DOCKED: ENDBRANCH  12  13
DOCKED: ENDBRANCH   2  12
DOCKED: BRANCH   2  18
DOCKED: ATOM     18  C   UNL     1     -39.341  -7.393  12.881 -0.20 +0.00    +0.006 A  
DOCKED: ATOM     19  C   UNL     1     -38.839  -6.414  12.025 -0.17 +0.00    +0.001 A  
DOCKED: ATOM     20  C   UNL     1     -39.700  -5.462  11.476 -0.14 +0.00    +0.029 A  
DOCKED: ATOM     21  C   UNL     1     -41.059  -5.492  11.784 -0.11 +0.00    +0.140 A  
DOCKED: ATOM     22  C   UNL     1     -41.560  -6.472  12.641 -0.18 +0.00    +0.029 A  
DOCKED: ATOM     23  F   UNL     1     -41.886  -4.579  11.256 -0.02 -0.00    -0.204 F  
DOCKED: ATOM     24  C   UNL     1     -40.700  -7.424  13.191 -0.20 +0.00    +0.001 A  
DOCKED: ENDBRANCH   2  18
DOCKED: TORSDOF 5
DOCKED: TER
DOCKED: ENDMDL
________________________________________________________________________________


    FINAL DOCKED STATE:
    ________________________


Run:   121 / 512
Time taken for this run:   0.002s

DOCKED: MODEL        121
DOCKED: USER    Run = 121
DOCKED: USER
DOCKED: USER    Estimated Free Energy of Binding    =  -3.95 kcal/mol  [=(1)+(2)+(3)-(4)]
DOCKED: USER
DOCKED: USER    (1) Final Intermolecular Energy     =  -5.44 kcal/mol
DOCKED: USER        vdW + Hbond + desolv Energy     =  -5.44 kcal/mol
DOCKED: USER        Electrostatic Energy            =  +0.00 kcal/mol
DOCKED: USER        Moving Ligand-Fixed Receptor    =  -5.44 kcal/mol
DOCKED: USER        Moving Ligand-Moving Receptor   =  +0.00 kcal/mol
DOCKED: USER    (2) Final Total Internal Energy     =  -1.27 kcal/mol
DOCKED: USER    (3) Torsional Free Energy           =  +1.49 kcal/mol
DOCKED: USER    (4) Unbound System's Energy         =  -1.27 kcal/mol
DOCKED: USER
DOCKED: USER
DOCKED: REMARK  5 active torsions:
DOCKED: REMARK  status: ('A' for Active; 'I' for Inactive)
DOCKED: REMARK    1  A    between atoms: C_2  and  C_19 
DOCKED: REMARK    2  A    between atoms: C_2  and  C_11 
DOCKED: REMARK    3  A    between atoms: C_19  and  C_20 
DOCKED: REMARK    4  A    between atoms: C_20  and  C_21 
DOCKED: REMARK    5  A    between atoms: C_21  and  N_22 
DOCKED: USER                              x       y       z     vdW  Elec       q    Type
DOCKED: USER                           _______ _______ _______ _____ _____    ______ ____
DOCKED: ROOT
DOCKED: ATOM      1  O   UNL     1     -28.686 -10.955   5.507 +0.01 -0.00    -0.346 OA 
DOCKED: ATOM      2  C   UNL     1     -29.922 -10.285   5.912 -0.06 +0.00    +0.130 C  
DOCKED: ATOM      3  C   UNL     1     -30.566 -11.260   6.855 -0.11 +0.00    +0.004 A  
DOCKED: ATOM      4  C   UNL     1     -29.721 -12.341   7.059 -0.09 +0.00    +0.006 A  
DOCKED: ATOM      5  C   UNL     1     -28.472 -12.155   6.286 -0.02 +0.00    +0.169 C  
DOCKED: ATOM      6  C   UNL     1     -31.797 -11.189   7.492 -0.24 -0.00    -0.001 A  
DOCKED: ATOM      7  C   UNL     1     -30.075 -13.385   7.896 -0.17 +0.00    +0.008 A  
DOCKED: ATOM      8  C   UNL     1     -32.170 -12.236   8.337 -0.31 +0.00    +0.010 A  
DOCKED: ATOM      9  C   UNL     1     -31.313 -13.328   8.538 -0.29 +0.00    +0.068 A  
DOCKED: ATOM     10  N   UNL     1     -32.034 -15.252  10.116 -2.64 -0.00    -0.191 NA 
DOCKED: ATOM     11  C   UNL     1     -31.711 -14.389   9.408 -0.39 +0.00    +0.101 C  
DOCKED: ENDROOT
DOCKED: BRANCH   2  12
DOCKED: ATOM     12  C   UNL     1     -29.560  -8.964   6.579 -0.02 +0.00    +0.038 C  
DOCKED: BRANCH  12  13
DOCKED: ATOM     13  C   UNL     1     -28.337  -8.326   5.923 -0.00 +0.00    +0.038 C  
DOCKED: BRANCH  13  14
DOCKED: ATOM     14  C   UNL     1     -27.311  -7.899   6.971 +0.00 +0.00    +0.251 C  
DOCKED: BRANCH  14  15
DOCKED: ATOM     15  N   UNL     1     -25.982  -8.373   6.602 +0.00 +0.00    +0.141 N  
DOCKED: ATOM     16  C   UNL     1     -25.674  -9.629   7.287 +0.00 +0.00    +0.285 C  
DOCKED: ATOM     17  C   UNL     1     -25.881  -8.549   5.152 +0.00 +0.00    +0.285 C  
DOCKED: ENDBRANCH  14  15
DOCKED: ENDBRANCH  13  14
DOCKED: ENDBRANCH  12  13
DOCKED: ENDBRANCH   2  12
DOCKED: BRANCH   2  18
DOCKED: ATOM     18  C   UNL     1     -30.723 -10.061   4.672 -0.12 +0.00    +0.006 A  
DOCKED: ATOM     19  C   UNL     1     -30.527 -10.877   3.559 -0.13 +0.00    +0.001 A  
DOCKED: ATOM     20  C   UNL     1     -31.276 -10.666   2.401 -0.16 +0.00    +0.029 A  
DOCKED: ATOM     21  C   UNL     1     -32.219  -9.640   2.357 -0.19 +0.00    +0.140 A  
DOCKED: ATOM     22  C   UNL     1     -32.415  -8.824   3.472 -0.21 +0.00    +0.029 A  
DOCKED: ATOM     23  F   UNL     1     -32.939  -9.439   1.246 -0.13 -0.00    -0.204 F  
DOCKED: ATOM     24  C   UNL     1     -31.666  -9.034   4.631 -0.15 +0.00    +0.001 A  
DOCKED: ENDBRANCH   2  18
DOCKED: TORSDOF 5
DOCKED: TER
DOCKED: ENDMDL
________________________________________________________________________________


    FINAL DOCKED STATE:
    ________________________


Run:   122 / 512
Time taken for this run:   0.002s

DOCKED: MODEL        122
DOCKED: USER    Run = 122
DOCKED: USER
DOCKED: USER    Estimated Free Energy of Binding    =  -4.09 kcal/mol  [=(1)+(2)+(3)-(4)]
DOCKED: USER
DOCKED: USER    (1) Final Intermolecular Energy     =  -5.58 kcal/mol
DOCKED: USER        vdW + Hbond + desolv Energy     =  -5.58 kcal/mol
DOCKED: USER        Electrostatic Energy            =  +0.00 kcal/mol
DOCKED: USER        Moving Ligand-Fixed Receptor    =  -5.58 kcal/mol
DOCKED: USER        Moving Ligand-Moving Receptor   =  +0.00 kcal/mol
DOCKED: USER    (2) Final Total Internal Energy     =  -1.11 kcal/mol
DOCKED: USER    (3) Torsional Free Energy           =  +1.49 kcal/mol
DOCKED: USER    (4) Unbound System's Energy         =  -1.11 kcal/mol
DOCKED: USER
DOCKED: USER
DOCKED: REMARK  5 active torsions:
DOCKED: REMARK  status: ('A' for Active; 'I' for Inactive)
DOCKED: REMARK    1  A    between atoms: C_2  and  C_19 
DOCKED: REMARK    2  A    between atoms: C_2  and  C_11 
DOCKED: REMARK    3  A    between atoms: C_19  and  C_20 
DOCKED: REMARK    4  A    between atoms: C_20  and  C_21 
DOCKED: REMARK    5  A    between atoms: C_21  and  N_22 
DOCKED: USER                              x       y       z     vdW  Elec       q    Type
DOCKED: USER                           _______ _______ _______ _____ _____    ______ ____
DOCKED: ROOT
DOCKED: ATOM      1  O   UNL     1     -31.316  -1.877   5.611 -0.07 -0.00    -0.346 OA 
DOCKED: ATOM      2  C   UNL     1     -32.020  -3.159   5.657 -0.12 +0.00    +0.130 C  
DOCKED: ATOM      3  C   UNL     1     -33.173  -2.970   4.714 -0.16 +0.00    +0.004 A  
DOCKED: ATOM      4  C   UNL     1     -33.075  -1.731   4.098 -0.14 +0.00    +0.006 A  
DOCKED: ATOM      5  C   UNL     1     -31.862  -1.028   4.574 -0.14 +0.00    +0.169 C  
DOCKED: ATOM      6  C   UNL     1     -34.219  -3.832   4.416 -0.25 -0.00    -0.001 A  
DOCKED: ATOM      7  C   UNL     1     -34.014  -1.309   3.173 -0.29 +0.00    +0.008 A  
DOCKED: ATOM      8  C   UNL     1     -35.177  -3.420   3.488 -0.16 +0.00    +0.010 A  
DOCKED: ATOM      9  C   UNL     1     -35.074  -2.165   2.869 -0.35 +0.00    +0.068 A  
DOCKED: ATOM     10  N   UNL     1     -36.866  -1.432   1.147 -2.36 -0.00    -0.191 NA 
DOCKED: ATOM     11  C   UNL     1     -36.063  -1.761   1.920 -0.42 +0.00    +0.101 C  
DOCKED: ENDROOT
DOCKED: BRANCH   2  12
DOCKED: ATOM     12  C   UNL     1     -31.060  -4.254   5.208 -0.04 +0.00    +0.038 C  
DOCKED: BRANCH  12  13
DOCKED: ATOM     13  C   UNL     1     -31.725  -5.628   5.246 -0.04 +0.00    +0.038 C  
DOCKED: BRANCH  13  14
DOCKED: ATOM     14  C   UNL     1     -31.366  -6.446   4.007 -0.02 +0.00    +0.251 C  
DOCKED: BRANCH  14  15
DOCKED: ATOM     15  N   UNL     1     -32.308  -7.545   3.834 -0.13 +0.00    +0.141 N  
DOCKED: ATOM     16  C   UNL     1     -33.002  -7.832   5.091 -0.14 +0.00    +0.285 C  
DOCKED: ATOM     17  C   UNL     1     -33.275  -7.235   2.780 -0.16 +0.00    +0.285 C  
DOCKED: ENDBRANCH  14  15
DOCKED: ENDBRANCH  13  14
DOCKED: ENDBRANCH  12  13
DOCKED: ENDBRANCH   2  12
DOCKED: BRANCH   2  18
DOCKED: ATOM     18  C   UNL     1     -32.453  -3.368   7.070 -0.14 +0.00    +0.006 A  
DOCKED: ATOM     19  C   UNL     1     -31.508  -3.661   8.052 -0.09 +0.00    +0.001 A  
DOCKED: ATOM     20  C   UNL     1     -31.914  -3.857   9.373 -0.07 +0.00    +0.029 A  
DOCKED: ATOM     21  C   UNL     1     -33.263  -3.759   9.709 -0.09 +0.00    +0.140 A  
DOCKED: ATOM     22  C   UNL     1     -34.208  -3.466   8.726 -0.16 +0.00    +0.029 A  
DOCKED: ATOM     23  F   UNL     1     -33.653  -3.945  10.977 -0.01 -0.00    -0.204 F  
DOCKED: ATOM     24  C   UNL     1     -33.803  -3.271   7.405 -0.03 +0.00    +0.001 A  
DOCKED: ENDBRANCH   2  18
DOCKED: TORSDOF 5
DOCKED: TER
DOCKED: ENDMDL
________________________________________________________________________________


    FINAL DOCKED STATE:
    ________________________


Run:   123 / 512
Time taken for this run:   0.002s

DOCKED: MODEL        123
DOCKED: USER    Run = 123
DOCKED: USER
DOCKED: USER    Estimated Free Energy of Binding    =  -4.34 kcal/mol  [=(1)+(2)+(3)-(4)]
DOCKED: USER
DOCKED: USER    (1) Final Intermolecular Energy     =  -5.83 kcal/mol
DOCKED: USER        vdW + Hbond + desolv Energy     =  -5.83 kcal/mol
DOCKED: USER        Electrostatic Energy            =  +0.00 kcal/mol
DOCKED: USER        Moving Ligand-Fixed Receptor    =  -5.83 kcal/mol
DOCKED: USER        Moving Ligand-Moving Receptor   =  +0.00 kcal/mol
DOCKED: USER    (2) Final Total Internal Energy     =  -1.43 kcal/mol
DOCKED: USER    (3) Torsional Free Energy           =  +1.49 kcal/mol
DOCKED: USER    (4) Unbound System's Energy         =  -1.43 kcal/mol
DOCKED: USER
DOCKED: USER
DOCKED: REMARK  5 active torsions:
DOCKED: REMARK  status: ('A' for Active; 'I' for Inactive)
DOCKED: REMARK    1  A    between atoms: C_2  and  C_19 
DOCKED: REMARK    2  A    between atoms: C_2  and  C_11 
DOCKED: REMARK    3  A    between atoms: C_19  and  C_20 
DOCKED: REMARK    4  A    between atoms: C_20  and  C_21 
DOCKED: REMARK    5  A    between atoms: C_21  and  N_22 
DOCKED: USER                              x       y       z     vdW  Elec       q    Type
DOCKED: USER                           _______ _______ _______ _____ _____    ______ ____
DOCKED: ROOT
DOCKED: ATOM      1  O   UNL     1     -37.299  -8.046  13.342 -0.04 -0.00    -0.346 OA 
DOCKED: ATOM      2  C   UNL     1     -38.752  -8.082  13.512 -0.14 +0.00    +0.130 C  
DOCKED: ATOM      3  C   UNL     1     -39.134  -9.459  13.054 -0.22 +0.00    +0.004 A  
DOCKED: ATOM      4  C   UNL     1     -37.991 -10.185  12.753 -0.26 +0.00    +0.006 A  
DOCKED: ATOM      5  C   UNL     1     -36.790  -9.356  12.999 -0.18 +0.00    +0.169 C  
DOCKED: ATOM      6  C   UNL     1     -40.393 -10.028  12.924 -0.22 -0.00    -0.001 A  
DOCKED: ATOM      7  C   UNL     1     -38.065 -11.495  12.310 -0.32 +0.00    +0.008 A  
DOCKED: ATOM      8  C   UNL     1     -40.484 -11.346  12.475 -0.23 +0.00    +0.010 A  
DOCKED: ATOM      9  C   UNL     1     -39.326 -12.076  12.170 -0.25 +0.00    +0.068 A  
DOCKED: ATOM     10  N   UNL     1     -39.531 -14.523  11.344 -2.56 -0.00    -0.191 NA 
DOCKED: ATOM     11  C   UNL     1     -39.439 -13.425  11.714 -0.36 +0.00    +0.101 C  
DOCKED: ENDROOT
DOCKED: BRANCH   2  12
DOCKED: ATOM     12  C   UNL     1     -39.071  -7.835  14.982 -0.05 +0.00    +0.038 C  
DOCKED: BRANCH  12  13
DOCKED: ATOM     13  C   UNL     1     -37.799  -7.622  15.800 -0.02 +0.00    +0.038 C  
DOCKED: BRANCH  13  14
DOCKED: ATOM     14  C   UNL     1     -37.567  -8.782  16.767 -0.00 +0.00    +0.251 C  
DOCKED: BRANCH  14  15
DOCKED: ATOM     15  N   UNL     1     -37.161  -9.977  16.038 -0.02 +0.00    +0.141 N  
DOCKED: ATOM     16  C   UNL     1     -35.812 -10.387  16.431 -0.02 +0.00    +0.285 C  
DOCKED: ATOM     17  C   UNL     1     -38.110 -11.068  16.266 -0.02 +0.00    +0.285 C  
DOCKED: ENDBRANCH  14  15
DOCKED: ENDBRANCH  13  14
DOCKED: ENDBRANCH  12  13
DOCKED: ENDBRANCH   2  12
DOCKED: BRANCH   2  18
DOCKED: ATOM     18  C   UNL     1     -39.318  -7.003  12.650 -0.20 +0.00    +0.006 A  
DOCKED: ATOM     19  C   UNL     1     -40.682  -6.718  12.697 -0.20 +0.00    +0.001 A  
DOCKED: ATOM     20  C   UNL     1     -41.211  -5.710  11.890 -0.13 +0.00    +0.029 A  
DOCKED: ATOM     21  C   UNL     1     -40.376  -4.988  11.039 -0.08 +0.00    +0.140 A  
DOCKED: ATOM     22  C   UNL     1     -39.012  -5.274  10.992 -0.13 +0.00    +0.029 A  
DOCKED: ATOM     23  F   UNL     1     -40.883  -4.019  10.266 -0.03 -0.00    -0.204 F  
DOCKED: ATOM     24  C   UNL     1     -38.482  -6.283  11.799 -0.15 +0.00    +0.001 A  
DOCKED: ENDBRANCH   2  18
DOCKED: TORSDOF 5
DOCKED: TER
DOCKED: ENDMDL
________________________________________________________________________________


    FINAL DOCKED STATE:
    ________________________


Run:   124 / 512
Time taken for this run:   0.002s

DOCKED: MODEL        124
DOCKED: USER    Run = 124
DOCKED: USER
DOCKED: USER    Estimated Free Energy of Binding    =  -3.57 kcal/mol  [=(1)+(2)+(3)-(4)]
DOCKED: USER
DOCKED: USER    (1) Final Intermolecular Energy     =  -5.07 kcal/mol
DOCKED: USER        vdW + Hbond + desolv Energy     =  -5.07 kcal/mol
DOCKED: USER        Electrostatic Energy            =  +0.00 kcal/mol
DOCKED: USER        Moving Ligand-Fixed Receptor    =  -5.07 kcal/mol
DOCKED: USER        Moving Ligand-Moving Receptor   =  +0.00 kcal/mol
DOCKED: USER    (2) Final Total Internal Energy     =  -1.13 kcal/mol
DOCKED: USER    (3) Torsional Free Energy           =  +1.49 kcal/mol
DOCKED: USER    (4) Unbound System's Energy         =  -1.13 kcal/mol
DOCKED: USER
DOCKED: USER
DOCKED: REMARK  5 active torsions:
DOCKED: REMARK  status: ('A' for Active; 'I' for Inactive)
DOCKED: REMARK    1  A    between atoms: C_2  and  C_19 
DOCKED: REMARK    2  A    between atoms: C_2  and  C_11 
DOCKED: REMARK    3  A    between atoms: C_19  and  C_20 
DOCKED: REMARK    4  A    between atoms: C_20  and  C_21 
DOCKED: REMARK    5  A    between atoms: C_21  and  N_22 
DOCKED: USER                              x       y       z     vdW  Elec       q    Type
DOCKED: USER                           _______ _______ _______ _____ _____    ______ ____
DOCKED: ROOT
DOCKED: ATOM      1  O   UNL     1     -29.998  -0.031   2.195 -0.01 -0.00    -0.346 OA 
DOCKED: ATOM      2  C   UNL     1     -30.736  -0.212   3.446 -0.07 +0.00    +0.130 C  
DOCKED: ATOM      3  C   UNL     1     -32.146  -0.470   2.997 -0.17 +0.00    +0.004 A  
DOCKED: ATOM      4  C   UNL     1     -32.190  -0.540   1.612 -0.16 +0.00    +0.006 A  
DOCKED: ATOM      5  C   UNL     1     -30.831  -0.349   1.056 -0.08 +0.00    +0.169 C  
DOCKED: ATOM      6  C   UNL     1     -33.295  -0.640   3.755 -0.22 -0.00    -0.001 A  
DOCKED: ATOM      7  C   UNL     1     -33.376  -0.776   0.940 -0.27 +0.00    +0.008 A  
DOCKED: ATOM      8  C   UNL     1     -34.501  -0.875   3.092 -0.30 +0.00    +0.010 A  
DOCKED: ATOM      9  C   UNL     1     -34.541  -0.943   1.691 -0.35 +0.00    +0.068 A  
DOCKED: ATOM     10  N   UNL     1     -36.794  -1.385   0.491 -2.57 -0.00    -0.191 NA 
DOCKED: ATOM     11  C   UNL     1     -35.783  -1.186   1.029 -0.32 +0.00    +0.101 C  
DOCKED: ENDROOT
DOCKED: BRANCH   2  12
DOCKED: ATOM     12  C   UNL     1     -30.128  -1.390   4.198 -0.05 +0.00    +0.038 C  
DOCKED: BRANCH  12  13
DOCKED: ATOM     13  C   UNL     1     -28.620  -1.223   4.370 -0.02 +0.00    +0.038 C  
DOCKED: BRANCH  13  14
DOCKED: ATOM     14  C   UNL     1     -27.877  -2.500   3.982 -0.00 +0.00    +0.251 C  
DOCKED: BRANCH  14  15
DOCKED: ATOM     15  N   UNL     1     -26.961  -2.239   2.878 -0.00 +0.00    +0.141 N  
DOCKED: ATOM     16  C   UNL     1     -26.549  -0.834   2.872 +0.00 +0.00    +0.285 C  
DOCKED: ATOM     17  C   UNL     1     -25.789  -3.111   2.964 +0.00 +0.00    +0.285 C  
DOCKED: ENDBRANCH  14  15
DOCKED: ENDBRANCH  13  14
DOCKED: ENDBRANCH  12  13
DOCKED: ENDBRANCH   2  12
DOCKED: BRANCH   2  18
DOCKED: ATOM     18  C   UNL     1     -30.595   1.054   4.223 -0.09 +0.00    +0.006 A  
DOCKED: ATOM     19  C   UNL     1     -29.604   1.973   3.883 -0.04 +0.00    +0.001 A  
DOCKED: ATOM     20  C   UNL     1     -29.473   3.156   4.611 -0.03 +0.00    +0.029 A  
DOCKED: ATOM     21  C   UNL     1     -30.333   3.419   5.676 -0.03 +0.00    +0.140 A  
DOCKED: ATOM     22  C   UNL     1     -31.324   2.498   6.016 -0.13 +0.00    +0.029 A  
DOCKED: ATOM     23  F   UNL     1     -30.208   4.555   6.374 +0.00 -0.00    -0.204 F  
DOCKED: ATOM     24  C   UNL     1     -31.456   1.314   5.288 -0.17 +0.00    +0.001 A  
DOCKED: ENDBRANCH   2  18
DOCKED: TORSDOF 5
DOCKED: TER
DOCKED: ENDMDL
________________________________________________________________________________


    FINAL DOCKED STATE:
    ________________________


Run:   125 / 512
Time taken for this run:   0.002s

DOCKED: MODEL        125
DOCKED: USER    Run = 125
DOCKED: USER
DOCKED: USER    Estimated Free Energy of Binding    =  -4.81 kcal/mol  [=(1)+(2)+(3)-(4)]
DOCKED: USER
DOCKED: USER    (1) Final Intermolecular Energy     =  -6.31 kcal/mol
DOCKED: USER        vdW + Hbond + desolv Energy     =  -6.31 kcal/mol
DOCKED: USER        Electrostatic Energy            =  +0.00 kcal/mol
DOCKED: USER        Moving Ligand-Fixed Receptor    =  -6.31 kcal/mol
DOCKED: USER        Moving Ligand-Moving Receptor   =  +0.00 kcal/mol
DOCKED: USER    (2) Final Total Internal Energy     =  -1.28 kcal/mol
DOCKED: USER    (3) Torsional Free Energy           =  +1.49 kcal/mol
DOCKED: USER    (4) Unbound System's Energy         =  -1.28 kcal/mol
DOCKED: USER
DOCKED: USER
DOCKED: REMARK  5 active torsions:
DOCKED: REMARK  status: ('A' for Active; 'I' for Inactive)
DOCKED: REMARK    1  A    between atoms: C_2  and  C_19 
DOCKED: REMARK    2  A    between atoms: C_2  and  C_11 
DOCKED: REMARK    3  A    between atoms: C_19  and  C_20 
DOCKED: REMARK    4  A    between atoms: C_20  and  C_21 
DOCKED: REMARK    5  A    between atoms: C_21  and  N_22 
DOCKED: USER                              x       y       z     vdW  Elec       q    Type
DOCKED: USER                           _______ _______ _______ _____ _____    ______ ____
DOCKED: ROOT
DOCKED: ATOM      1  O   UNL     1     -34.458  -4.667   6.273 -0.07 -0.00    -0.346 OA 
DOCKED: ATOM      2  C   UNL     1     -33.310  -4.588   5.368 -0.13 +0.00    +0.130 C  
DOCKED: ATOM      3  C   UNL     1     -33.836  -3.828   4.185 -0.22 +0.00    +0.004 A  
DOCKED: ATOM      4  C   UNL     1     -35.136  -3.413   4.437 -0.30 +0.00    +0.006 A  
DOCKED: ATOM      5  C   UNL     1     -35.550  -3.851   5.789 -0.24 +0.00    +0.169 C  
DOCKED: ATOM      6  C   UNL     1     -33.210  -3.519   2.986 -0.17 -0.00    -0.001 A  
DOCKED: ATOM      7  C   UNL     1     -35.853  -2.683   3.505 -0.37 +0.00    +0.008 A  
DOCKED: ATOM      8  C   UNL     1     -33.921  -2.788   2.034 -0.24 +0.00    +0.010 A  
DOCKED: ATOM      9  C   UNL     1     -35.236  -2.372   2.292 -0.24 +0.00    +0.068 A  
DOCKED: ATOM     10  N   UNL     1     -36.526  -1.011   0.504 -2.53 -0.00    -0.191 NA 
DOCKED: ATOM     11  C   UNL     1     -35.948  -1.622   1.306 -0.34 +0.00    +0.101 C  
DOCKED: ENDROOT
DOCKED: BRANCH   2  12
DOCKED: ATOM     12  C   UNL     1     -32.179  -3.860   6.086 -0.11 +0.00    +0.038 C  
DOCKED: BRANCH  12  13
DOCKED: ATOM     13  C   UNL     1     -32.269  -2.350   5.879 -0.07 +0.00    +0.038 C  
DOCKED: BRANCH  13  14
DOCKED: ATOM     14  C   UNL     1     -31.112  -1.843   5.020 -0.08 +0.00    +0.251 C  
DOCKED: BRANCH  14  15
DOCKED: ATOM     15  N   UNL     1     -31.605  -0.938   3.989 -0.10 +0.00    +0.141 N  
DOCKED: ATOM     16  C   UNL     1     -32.192   0.260   4.591 -0.14 +0.00    +0.285 C  
DOCKED: ATOM     17  C   UNL     1     -30.527  -0.568   3.070 -0.02 +0.00    +0.285 C  
DOCKED: ENDBRANCH  14  15
DOCKED: ENDBRANCH  13  14
DOCKED: ENDBRANCH  12  13
DOCKED: ENDBRANCH   2  12
DOCKED: BRANCH   2  18
DOCKED: ATOM     18  C   UNL     1     -32.921  -5.990   5.034 -0.11 +0.00    +0.006 A  
DOCKED: ATOM     19  C   UNL     1     -33.351  -6.565   3.839 -0.21 +0.00    +0.001 A  
DOCKED: ATOM     20  C   UNL     1     -32.987  -7.876   3.527 -0.22 +0.00    +0.029 A  
DOCKED: ATOM     21  C   UNL     1     -32.194  -8.608   4.409 -0.16 +0.00    +0.140 A  
DOCKED: ATOM     22  C   UNL     1     -31.764  -8.031   5.604 -0.09 +0.00    +0.029 A  
DOCKED: ATOM     23  F   UNL     1     -31.843  -9.865   4.109 -0.08 -0.00    -0.204 F  
DOCKED: ATOM     24  C   UNL     1     -32.128  -6.720   5.917 -0.06 +0.00    +0.001 A  
DOCKED: ENDBRANCH   2  18
DOCKED: TORSDOF 5
DOCKED: TER
DOCKED: ENDMDL
________________________________________________________________________________


    FINAL DOCKED STATE:
    ________________________


Run:   126 / 512
Time taken for this run:   0.002s

DOCKED: MODEL        126
DOCKED: USER    Run = 126
DOCKED: USER
DOCKED: USER    Estimated Free Energy of Binding    =  -3.97 kcal/mol  [=(1)+(2)+(3)-(4)]
DOCKED: USER
DOCKED: USER    (1) Final Intermolecular Energy     =  -5.47 kcal/mol
DOCKED: USER        vdW + Hbond + desolv Energy     =  -5.47 kcal/mol
DOCKED: USER        Electrostatic Energy            =  +0.00 kcal/mol
DOCKED: USER        Moving Ligand-Fixed Receptor    =  -5.47 kcal/mol
DOCKED: USER        Moving Ligand-Moving Receptor   =  +0.00 kcal/mol
DOCKED: USER    (2) Final Total Internal Energy     =  -1.19 kcal/mol
DOCKED: USER    (3) Torsional Free Energy           =  +1.49 kcal/mol
DOCKED: USER    (4) Unbound System's Energy         =  -1.19 kcal/mol
DOCKED: USER
DOCKED: USER
DOCKED: REMARK  5 active torsions:
DOCKED: REMARK  status: ('A' for Active; 'I' for Inactive)
DOCKED: REMARK    1  A    between atoms: C_2  and  C_19 
DOCKED: REMARK    2  A    between atoms: C_2  and  C_11 
DOCKED: REMARK    3  A    between atoms: C_19  and  C_20 
DOCKED: REMARK    4  A    between atoms: C_20  and  C_21 
DOCKED: REMARK    5  A    between atoms: C_21  and  N_22 
DOCKED: USER                              x       y       z     vdW  Elec       q    Type
DOCKED: USER                           _______ _______ _______ _____ _____    ______ ____
DOCKED: ROOT
DOCKED: ATOM      1  O   UNL     1     -31.432  -0.193   5.369 -0.08 -0.00    -0.346 OA 
DOCKED: ATOM      2  C   UNL     1     -31.279  -1.560   4.868 -0.11 +0.00    +0.130 C  
DOCKED: ATOM      3  C   UNL     1     -32.437  -1.730   3.928 -0.16 +0.00    +0.004 A  
DOCKED: ATOM      4  C   UNL     1     -33.128  -0.532   3.816 -0.24 +0.00    +0.006 A  
DOCKED: ATOM      5  C   UNL     1     -32.477   0.503   4.651 -0.20 +0.00    +0.169 C  
DOCKED: ATOM      6  C   UNL     1     -32.840  -2.853   3.220 -0.15 -0.00    -0.001 A  
DOCKED: ATOM      7  C   UNL     1     -34.241  -0.415   3.002 -0.23 +0.00    +0.008 A  
DOCKED: ATOM      8  C   UNL     1     -33.964  -2.752   2.398 -0.25 +0.00    +0.010 A  
DOCKED: ATOM      9  C   UNL     1     -34.660  -1.539   2.289 -0.35 +0.00    +0.068 A  
DOCKED: ATOM     10  N   UNL     1     -36.738  -1.386   0.749 -2.55 -0.00    -0.191 NA 
DOCKED: ATOM     11  C   UNL     1     -35.806  -1.455   1.440 -0.43 +0.00    +0.101 C  
DOCKED: ENDROOT
DOCKED: BRANCH   2  12
DOCKED: ATOM     12  C   UNL     1     -29.928  -1.669   4.171 -0.04 +0.00    +0.038 C  
DOCKED: BRANCH  12  13
DOCKED: ATOM     13  C   UNL     1     -29.894  -0.842   2.888 -0.04 +0.00    +0.038 C  
DOCKED: BRANCH  13  14
DOCKED: ATOM     14  C   UNL     1     -28.715   0.129   2.891 -0.00 +0.00    +0.251 C  
DOCKED: BRANCH  14  15
DOCKED: ATOM     15  N   UNL     1     -29.008   1.284   2.050 -0.03 +0.00    +0.141 N  
DOCKED: ATOM     16  C   UNL     1     -29.162   0.880   0.652 -0.02 +0.00    +0.285 C  
DOCKED: ATOM     17  C   UNL     1     -30.215   1.968   2.516 -0.05 +0.00    +0.285 C  
DOCKED: ENDBRANCH  14  15
DOCKED: ENDBRANCH  13  14
DOCKED: ENDBRANCH  12  13
DOCKED: ENDBRANCH   2  12
DOCKED: BRANCH   2  18
DOCKED: ATOM     18  C   UNL     1     -31.350  -2.468   6.050 -0.12 +0.00    +0.006 A  
DOCKED: ATOM     19  C   UNL     1     -32.566  -3.047   6.411 -0.12 +0.00    +0.001 A  
DOCKED: ATOM     20  C   UNL     1     -32.631  -3.896   7.516 -0.12 +0.00    +0.029 A  
DOCKED: ATOM     21  C   UNL     1     -31.482  -4.165   8.258 -0.05 +0.00    +0.140 A  
DOCKED: ATOM     22  C   UNL     1     -30.266  -3.585   7.897 -0.05 +0.00    +0.029 A  
DOCKED: ATOM     23  F   UNL     1     -31.545  -4.981   9.318 -0.00 -0.00    -0.204 F  
DOCKED: ATOM     24  C   UNL     1     -30.200  -2.736   6.791 -0.07 +0.00    +0.001 A  
DOCKED: ENDBRANCH   2  18
DOCKED: TORSDOF 5
DOCKED: TER
DOCKED: ENDMDL
________________________________________________________________________________


    FINAL DOCKED STATE:
    ________________________


Run:   127 / 512
Time taken for this run:   0.002s

DOCKED: MODEL        127
DOCKED: USER    Run = 127
DOCKED: USER
DOCKED: USER    Estimated Free Energy of Binding    =  -5.74 kcal/mol  [=(1)+(2)+(3)-(4)]
DOCKED: USER
DOCKED: USER    (1) Final Intermolecular Energy     =  -7.23 kcal/mol
DOCKED: USER        vdW + Hbond + desolv Energy     =  -7.23 kcal/mol
DOCKED: USER        Electrostatic Energy            =  +0.00 kcal/mol
DOCKED: USER        Moving Ligand-Fixed Receptor    =  -7.23 kcal/mol
DOCKED: USER        Moving Ligand-Moving Receptor   =  +0.00 kcal/mol
DOCKED: USER    (2) Final Total Internal Energy     =  -1.02 kcal/mol
DOCKED: USER    (3) Torsional Free Energy           =  +1.49 kcal/mol
DOCKED: USER    (4) Unbound System's Energy         =  -1.02 kcal/mol
DOCKED: USER
DOCKED: USER
DOCKED: REMARK  5 active torsions:
DOCKED: REMARK  status: ('A' for Active; 'I' for Inactive)
DOCKED: REMARK    1  A    between atoms: C_2  and  C_19 
DOCKED: REMARK    2  A    between atoms: C_2  and  C_11 
DOCKED: REMARK    3  A    between atoms: C_19  and  C_20 
DOCKED: REMARK    4  A    between atoms: C_20  and  C_21 
DOCKED: REMARK    5  A    between atoms: C_21  and  N_22 
DOCKED: USER                              x       y       z     vdW  Elec       q    Type
DOCKED: USER                           _______ _______ _______ _____ _____    ______ ____
DOCKED: ROOT
DOCKED: ATOM      1  O   UNL     1     -37.717 -10.615  14.217 -0.03 -0.00    -0.346 OA 
DOCKED: ATOM      2  C   UNL     1     -37.193 -11.980  14.167 -0.19 +0.00    +0.130 C  
DOCKED: ATOM      3  C   UNL     1     -37.638 -12.487  12.826 -0.33 +0.00    +0.004 A  
DOCKED: ATOM      4  C   UNL     1     -38.266 -11.467  12.125 -0.33 +0.00    +0.006 A  
DOCKED: ATOM      5  C   UNL     1     -38.268 -10.229  12.936 -0.21 +0.00    +0.169 C  
DOCKED: ATOM      6  C   UNL     1     -37.490 -13.748  12.266 -0.41 -0.00    -0.001 A  
DOCKED: ATOM      7  C   UNL     1     -38.767 -11.670  10.851 -0.06 +0.00    +0.008 A  
DOCKED: ATOM      8  C   UNL     1     -37.994 -13.970  10.983 -0.45 +0.00    +0.010 A  
DOCKED: ATOM      9  C   UNL     1     -38.629 -12.936  10.280 -0.41 +0.00    +0.068 A  
DOCKED: ATOM     10  N   UNL     1     -39.550 -13.380   7.899 -2.64 -0.00    -0.191 NA 
DOCKED: ATOM     11  C   UNL     1     -39.138 -13.181   8.967 -0.48 +0.00    +0.101 C  
DOCKED: ENDROOT
DOCKED: BRANCH   2  12
DOCKED: ATOM     12  C   UNL     1     -35.676 -11.920  14.304 -0.25 +0.00    +0.038 C  
DOCKED: BRANCH  12  13
DOCKED: ATOM     13  C   UNL     1     -35.135 -10.548  13.909 -0.12 +0.00    +0.038 C  
DOCKED: BRANCH  13  14
DOCKED: ATOM     14  C   UNL     1     -33.734 -10.325  14.477 -0.09 +0.00    +0.251 C  
DOCKED: BRANCH  14  15
DOCKED: ATOM     15  N   UNL     1     -32.882 -11.472  14.190 -0.14 +0.00    +0.141 N  
DOCKED: ATOM     16  C   UNL     1     -31.760 -11.081  13.336 -0.07 +0.00    +0.285 C  
DOCKED: ATOM     17  C   UNL     1     -32.390 -12.073  15.431 -0.08 +0.00    +0.285 C  
DOCKED: ENDBRANCH  14  15
DOCKED: ENDBRANCH  13  14
DOCKED: ENDBRANCH  12  13
DOCKED: ENDBRANCH   2  12
DOCKED: BRANCH   2  18
DOCKED: ATOM     18  C   UNL     1     -37.807 -12.726  15.304 -0.17 +0.00    +0.006 A  
DOCKED: ATOM     19  C   UNL     1     -36.994 -13.326  16.264 -0.18 +0.00    +0.001 A  
DOCKED: ATOM     20  C   UNL     1     -37.570 -14.023  17.327 -0.22 +0.00    +0.029 A  
DOCKED: ATOM     21  C   UNL     1     -38.957 -14.118  17.428 -0.06 +0.00    +0.140 A  
DOCKED: ATOM     22  C   UNL     1     -39.770 -13.518  16.467 -0.14 +0.00    +0.029 A  
DOCKED: ATOM     23  F   UNL     1     -39.510 -14.786  18.449 -0.04 -0.00    -0.204 F  
DOCKED: ATOM     24  C   UNL     1     -39.195 -12.821  15.403 -0.15 +0.00    +0.001 A  
DOCKED: ENDBRANCH   2  18
DOCKED: TORSDOF 5
DOCKED: TER
DOCKED: ENDMDL
________________________________________________________________________________


    FINAL DOCKED STATE:
    ________________________


Run:   128 / 512
Time taken for this run:   0.002s

DOCKED: MODEL        128
DOCKED: USER    Run = 128
DOCKED: USER
DOCKED: USER    Estimated Free Energy of Binding    =  -4.37 kcal/mol  [=(1)+(2)+(3)-(4)]
DOCKED: USER
DOCKED: USER    (1) Final Intermolecular Energy     =  -5.86 kcal/mol
DOCKED: USER        vdW + Hbond + desolv Energy     =  -5.86 kcal/mol
DOCKED: USER        Electrostatic Energy            =  +0.00 kcal/mol
DOCKED: USER        Moving Ligand-Fixed Receptor    =  -5.86 kcal/mol
DOCKED: USER        Moving Ligand-Moving Receptor   =  +0.00 kcal/mol
DOCKED: USER    (2) Final Total Internal Energy     =  -1.42 kcal/mol
DOCKED: USER    (3) Torsional Free Energy           =  +1.49 kcal/mol
DOCKED: USER    (4) Unbound System's Energy         =  -1.42 kcal/mol
DOCKED: USER
DOCKED: USER
DOCKED: REMARK  5 active torsions:
DOCKED: REMARK  status: ('A' for Active; 'I' for Inactive)
DOCKED: REMARK    1  A    between atoms: C_2  and  C_19 
DOCKED: REMARK    2  A    between atoms: C_2  and  C_11 
DOCKED: REMARK    3  A    between atoms: C_19  and  C_20 
DOCKED: REMARK    4  A    between atoms: C_20  and  C_21 
DOCKED: REMARK    5  A    between atoms: C_21  and  N_22 
DOCKED: USER                              x       y       z     vdW  Elec       q    Type
DOCKED: USER                           _______ _______ _______ _____ _____    ______ ____
DOCKED: ROOT
DOCKED: ATOM      1  O   UNL     1     -37.034  -8.206  13.453 -0.04 -0.00    -0.346 OA 
DOCKED: ATOM      2  C   UNL     1     -38.494  -8.160  13.550 -0.14 +0.00    +0.130 C  
DOCKED: ATOM      3  C   UNL     1     -38.930  -9.515  13.073 -0.21 +0.00    +0.004 A  
DOCKED: ATOM      4  C   UNL     1     -37.815 -10.305  12.829 -0.26 +0.00    +0.006 A  
DOCKED: ATOM      5  C   UNL     1     -36.583  -9.544  13.136 -0.17 +0.00    +0.169 C  
DOCKED: ATOM      6  C   UNL     1     -40.210 -10.012  12.880 -0.22 -0.00    -0.001 A  
DOCKED: ATOM      7  C   UNL     1     -37.940 -11.610  12.384 -0.32 +0.00    +0.008 A  
DOCKED: ATOM      8  C   UNL     1     -40.353 -11.325  12.427 -0.21 +0.00    +0.010 A  
DOCKED: ATOM      9  C   UNL     1     -39.223 -12.120  12.181 -0.25 +0.00    +0.068 A  
DOCKED: ATOM     10  N   UNL     1     -39.523 -14.554  11.345 -2.56 -0.00    -0.191 NA 
DOCKED: ATOM     11  C   UNL     1     -39.388 -13.462  11.719 -0.36 +0.00    +0.101 C  
DOCKED: ENDROOT
DOCKED: BRANCH   2  12
DOCKED: ATOM     12  C   UNL     1     -38.872  -7.892  15.002 -0.05 +0.00    +0.038 C  
DOCKED: BRANCH  12  13
DOCKED: ATOM     13  C   UNL     1     -39.253  -9.182  15.725 -0.04 +0.00    +0.038 C  
DOCKED: BRANCH  13  14
DOCKED: ATOM     14  C   UNL     1     -38.111  -9.670  16.615 -0.01 +0.00    +0.251 C  
DOCKED: BRANCH  14  15
DOCKED: ATOM     15  N   UNL     1     -38.070 -11.128  16.633 -0.03 +0.00    +0.141 N  
DOCKED: ATOM     16  C   UNL     1     -39.298 -11.686  16.064 -0.02 +0.00    +0.285 C  
DOCKED: ATOM     17  C   UNL     1     -36.902 -11.620  15.901 -0.05 +0.00    +0.285 C  
DOCKED: ENDBRANCH  14  15
DOCKED: ENDBRANCH  13  14
DOCKED: ENDBRANCH  12  13
DOCKED: ENDBRANCH   2  12
DOCKED: BRANCH   2  18
DOCKED: ATOM     18  C   UNL     1     -38.956  -7.054  12.661 -0.19 +0.00    +0.006 A  
DOCKED: ATOM     19  C   UNL     1     -40.307  -6.713  12.616 -0.21 +0.00    +0.001 A  
DOCKED: ATOM     20  C   UNL     1     -40.737  -5.679  11.784 -0.14 +0.00    +0.029 A  
DOCKED: ATOM     21  C   UNL     1     -39.816  -4.988  10.998 -0.10 +0.00    +0.140 A  
DOCKED: ATOM     22  C   UNL     1     -38.465  -5.328  11.044 -0.15 +0.00    +0.029 A  
DOCKED: ATOM     23  F   UNL     1     -40.229  -3.994  10.201 -0.03 -0.00    -0.204 F  
DOCKED: ATOM     24  C   UNL     1     -38.033  -6.363  11.875 -0.12 +0.00    +0.001 A  
DOCKED: ENDBRANCH   2  18
DOCKED: TORSDOF 5
DOCKED: TER
DOCKED: ENDMDL
________________________________________________________________________________


    FINAL DOCKED STATE:
    ________________________


Run:   129 / 512
Time taken for this run:   0.002s

DOCKED: MODEL        129
DOCKED: USER    Run = 129
DOCKED: USER
DOCKED: USER    Estimated Free Energy of Binding    =  -6.07 kcal/mol  [=(1)+(2)+(3)-(4)]
DOCKED: USER
DOCKED: USER    (1) Final Intermolecular Energy     =  -7.57 kcal/mol
DOCKED: USER        vdW + Hbond + desolv Energy     =  -7.57 kcal/mol
DOCKED: USER        Electrostatic Energy            =  +0.00 kcal/mol
DOCKED: USER        Moving Ligand-Fixed Receptor    =  -7.57 kcal/mol
DOCKED: USER        Moving Ligand-Moving Receptor   =  +0.00 kcal/mol
DOCKED: USER    (2) Final Total Internal Energy     =  -0.99 kcal/mol
DOCKED: USER    (3) Torsional Free Energy           =  +1.49 kcal/mol
DOCKED: USER    (4) Unbound System's Energy         =  -0.99 kcal/mol
DOCKED: USER
DOCKED: USER
DOCKED: REMARK  5 active torsions:
DOCKED: REMARK  status: ('A' for Active; 'I' for Inactive)
DOCKED: REMARK    1  A    between atoms: C_2  and  C_19 
DOCKED: REMARK    2  A    between atoms: C_2  and  C_11 
DOCKED: REMARK    3  A    between atoms: C_19  and  C_20 
DOCKED: REMARK    4  A    between atoms: C_20  and  C_21 
DOCKED: REMARK    5  A    between atoms: C_21  and  N_22 
DOCKED: USER                              x       y       z     vdW  Elec       q    Type
DOCKED: USER                           _______ _______ _______ _____ _____    ______ ____
DOCKED: ROOT
DOCKED: ATOM      1  O   UNL     1     -37.422 -10.794  13.961 -0.04 -0.00    -0.346 OA 
DOCKED: ATOM      2  C   UNL     1     -37.057 -12.211  13.912 -0.23 +0.00    +0.130 C  
DOCKED: ATOM      3  C   UNL     1     -37.564 -12.667  12.575 -0.35 +0.00    +0.004 A  
DOCKED: ATOM      4  C   UNL     1     -38.076 -11.583  11.875 -0.35 +0.00    +0.006 A  
DOCKED: ATOM      5  C   UNL     1     -37.933 -10.351  12.683 -0.23 +0.00    +0.169 C  
DOCKED: ATOM      6  C   UNL     1     -37.563 -13.937  12.018 -0.36 -0.00    -0.001 A  
DOCKED: ATOM      7  C   UNL     1     -38.604 -11.731  10.604 -0.07 +0.00    +0.008 A  
DOCKED: ATOM      8  C   UNL     1     -38.097 -14.103  10.739 -0.45 +0.00    +0.010 A  
DOCKED: ATOM      9  C   UNL     1     -38.614 -13.005  10.036 -0.42 +0.00    +0.068 A  
DOCKED: ATOM     10  N   UNL     1     -39.593 -13.347   7.661 -2.92 -0.00    -0.191 NA 
DOCKED: ATOM     11  C   UNL     1     -39.155 -13.194   8.726 -0.44 +0.00    +0.101 C  
DOCKED: ENDROOT
DOCKED: BRANCH   2  12
DOCKED: ATOM     12  C   UNL     1     -35.542 -12.323  14.042 -0.22 +0.00    +0.038 C  
DOCKED: BRANCH  12  13
DOCKED: ATOM     13  C   UNL     1     -34.986 -11.275  15.004 -0.17 +0.00    +0.038 C  
DOCKED: BRANCH  13  14
DOCKED: ATOM     14  C   UNL     1     -33.465 -11.368  15.099 -0.11 +0.00    +0.251 C  
DOCKED: BRANCH  14  15
DOCKED: ATOM     15  N   UNL     1     -32.862 -11.187  13.784 -0.09 +0.00    +0.141 N  
DOCKED: ATOM     16  C   UNL     1     -32.448  -9.796  13.593 -0.07 +0.00    +0.285 C  
DOCKED: ATOM     17  C   UNL     1     -31.719 -12.085  13.612 -0.10 +0.00    +0.285 C  
DOCKED: ENDBRANCH  14  15
DOCKED: ENDBRANCH  13  14
DOCKED: ENDBRANCH  12  13
DOCKED: ENDBRANCH   2  12
DOCKED: BRANCH   2  18
DOCKED: ATOM     18  C   UNL     1     -37.746 -12.879  15.055 -0.19 +0.00    +0.006 A  
DOCKED: ATOM     19  C   UNL     1     -39.138 -12.924  15.098 -0.16 +0.00    +0.001 A  
DOCKED: ATOM     20  C   UNL     1     -39.781 -13.549  16.167 -0.15 +0.00    +0.029 A  
DOCKED: ATOM     21  C   UNL     1     -39.031 -14.128  17.190 -0.02 +0.00    +0.140 A  
DOCKED: ATOM     22  C   UNL     1     -37.638 -14.083  17.146 -0.22 +0.00    +0.029 A  
DOCKED: ATOM     23  F   UNL     1     -39.649 -14.730  18.215 -0.03 -0.00    -0.204 F  
DOCKED: ATOM     24  C   UNL     1     -36.994 -13.457  16.077 -0.16 +0.00    +0.001 A  
DOCKED: ENDBRANCH   2  18
DOCKED: TORSDOF 5
DOCKED: TER
DOCKED: ENDMDL
________________________________________________________________________________


    FINAL DOCKED STATE:
    ________________________


Run:   130 / 512
Time taken for this run:   0.002s

DOCKED: MODEL        130
DOCKED: USER    Run = 130
DOCKED: USER
DOCKED: USER    Estimated Free Energy of Binding    =  -5.37 kcal/mol  [=(1)+(2)+(3)-(4)]
DOCKED: USER
DOCKED: USER    (1) Final Intermolecular Energy     =  -6.86 kcal/mol
DOCKED: USER        vdW + Hbond + desolv Energy     =  -6.86 kcal/mol
DOCKED: USER        Electrostatic Energy            =  +0.00 kcal/mol
DOCKED: USER        Moving Ligand-Fixed Receptor    =  -6.86 kcal/mol
DOCKED: USER        Moving Ligand-Moving Receptor   =  +0.00 kcal/mol
DOCKED: USER    (2) Final Total Internal Energy     =  -1.35 kcal/mol
DOCKED: USER    (3) Torsional Free Energy           =  +1.49 kcal/mol
DOCKED: USER    (4) Unbound System's Energy         =  -1.35 kcal/mol
DOCKED: USER
DOCKED: USER
DOCKED: REMARK  5 active torsions:
DOCKED: REMARK  status: ('A' for Active; 'I' for Inactive)
DOCKED: REMARK    1  A    between atoms: C_2  and  C_19 
DOCKED: REMARK    2  A    between atoms: C_2  and  C_11 
DOCKED: REMARK    3  A    between atoms: C_19  and  C_20 
DOCKED: REMARK    4  A    between atoms: C_20  and  C_21 
DOCKED: REMARK    5  A    between atoms: C_21  and  N_22 
DOCKED: USER                              x       y       z     vdW  Elec       q    Type
DOCKED: USER                           _______ _______ _______ _____ _____    ______ ____
DOCKED: ROOT
DOCKED: ATOM      1  O   UNL     1     -37.941 -10.559  14.109 -0.03 -0.00    -0.346 OA 
DOCKED: ATOM      2  C   UNL     1     -37.178 -11.806  14.047 -0.19 +0.00    +0.130 C  
DOCKED: ATOM      3  C   UNL     1     -37.604 -12.425  12.747 -0.33 +0.00    +0.004 A  
DOCKED: ATOM      4  C   UNL     1     -38.451 -11.557  12.073 -0.33 +0.00    +0.006 A  
DOCKED: ATOM      5  C   UNL     1     -38.631 -10.317  12.861 -0.21 +0.00    +0.169 C  
DOCKED: ATOM      6  C   UNL     1     -37.260 -13.652  12.201 -0.42 -0.00    -0.001 A  
DOCKED: ATOM      7  C   UNL     1     -38.984 -11.885  10.838 -0.15 +0.00    +0.008 A  
DOCKED: ATOM      8  C   UNL     1     -37.793 -14.000  10.958 -0.34 +0.00    +0.010 A  
DOCKED: ATOM      9  C   UNL     1     -38.650 -13.120  10.280 -0.43 +0.00    +0.068 A  
DOCKED: ATOM     10  N   UNL     1     -39.618 -13.794   7.973 -2.32 -0.00    -0.191 NA 
DOCKED: ATOM     11  C   UNL     1     -39.185 -13.492   9.008 -0.48 +0.00    +0.101 C  
DOCKED: ENDROOT
DOCKED: BRANCH   2  12
DOCKED: ATOM     12  C   UNL     1     -35.693 -11.465  14.084 -0.22 +0.00    +0.038 C  
DOCKED: BRANCH  12  13
DOCKED: ATOM     13  C   UNL     1     -35.443 -10.140  14.802 -0.12 +0.00    +0.038 C  
DOCKED: BRANCH  13  14
DOCKED: ATOM     14  C   UNL     1     -34.544  -9.226  13.971 -0.08 +0.00    +0.251 C  
DOCKED: BRANCH  14  15
DOCKED: ATOM     15  N   UNL     1     -35.320  -8.129  13.405 -0.08 +0.00    +0.141 N  
DOCKED: ATOM     16  C   UNL     1     -35.792  -8.470  12.062 -0.11 +0.00    +0.285 C  
DOCKED: ATOM     17  C   UNL     1     -36.453  -7.798  14.272 -0.03 +0.00    +0.285 C  
DOCKED: ENDBRANCH  14  15
DOCKED: ENDBRANCH  13  14
DOCKED: ENDBRANCH  12  13
DOCKED: ENDBRANCH   2  12
DOCKED: BRANCH   2  18
DOCKED: ATOM     18  C   UNL     1     -37.573 -12.618  15.235 -0.17 +0.00    +0.006 A  
DOCKED: ATOM     19  C   UNL     1     -38.900 -13.012  15.399 -0.17 +0.00    +0.001 A  
DOCKED: ATOM     20  C   UNL     1     -39.268 -13.771  16.511 -0.14 +0.00    +0.029 A  
DOCKED: ATOM     21  C   UNL     1     -38.310 -14.136  17.455 -0.12 +0.00    +0.140 A  
DOCKED: ATOM     22  C   UNL     1     -36.982 -13.742  17.290 -0.21 +0.00    +0.029 A  
DOCKED: ATOM     23  F   UNL     1     -38.663 -14.866  18.521 -0.04 -0.00    -0.204 F  
DOCKED: ATOM     24  C   UNL     1     -36.613 -12.982  16.179 -0.13 +0.00    +0.001 A  
DOCKED: ENDBRANCH   2  18
DOCKED: TORSDOF 5
DOCKED: TER
DOCKED: ENDMDL
________________________________________________________________________________


    FINAL DOCKED STATE:
    ________________________


Run:   131 / 512
Time taken for this run:   0.002s

DOCKED: MODEL        131
DOCKED: USER    Run = 131
DOCKED: USER
DOCKED: USER    Estimated Free Energy of Binding    =  -4.29 kcal/mol  [=(1)+(2)+(3)-(4)]
DOCKED: USER
DOCKED: USER    (1) Final Intermolecular Energy     =  -5.79 kcal/mol
DOCKED: USER        vdW + Hbond + desolv Energy     =  -5.79 kcal/mol
DOCKED: USER        Electrostatic Energy            =  +0.00 kcal/mol
DOCKED: USER        Moving Ligand-Fixed Receptor    =  -5.79 kcal/mol
DOCKED: USER        Moving Ligand-Moving Receptor   =  +0.00 kcal/mol
DOCKED: USER    (2) Final Total Internal Energy     =  -1.00 kcal/mol
DOCKED: USER    (3) Torsional Free Energy           =  +1.49 kcal/mol
DOCKED: USER    (4) Unbound System's Energy         =  -1.00 kcal/mol
DOCKED: USER
DOCKED: USER
DOCKED: REMARK  5 active torsions:
DOCKED: REMARK  status: ('A' for Active; 'I' for Inactive)
DOCKED: REMARK    1  A    between atoms: C_2  and  C_19 
DOCKED: REMARK    2  A    between atoms: C_2  and  C_11 
DOCKED: REMARK    3  A    between atoms: C_19  and  C_20 
DOCKED: REMARK    4  A    between atoms: C_20  and  C_21 
DOCKED: REMARK    5  A    between atoms: C_21  and  N_22 
DOCKED: USER                              x       y       z     vdW  Elec       q    Type
DOCKED: USER                           _______ _______ _______ _____ _____    ______ ____
DOCKED: ROOT
DOCKED: ATOM      1  O   UNL     1     -37.082  -7.901  12.613 -0.08 -0.00    -0.346 OA 
DOCKED: ATOM      2  C   UNL     1     -38.395  -7.996  13.252 -0.15 +0.00    +0.130 C  
DOCKED: ATOM      3  C   UNL     1     -38.841  -9.397  12.952 -0.22 +0.00    +0.004 A  
DOCKED: ATOM      4  C   UNL     1     -37.827 -10.080  12.295 -0.24 +0.00    +0.006 A  
DOCKED: ATOM      5  C   UNL     1     -36.652  -9.194  12.129 -0.12 +0.00    +0.169 C  
DOCKED: ATOM      6  C   UNL     1     -40.044 -10.023  13.247 -0.21 -0.00    -0.001 A  
DOCKED: ATOM      7  C   UNL     1     -37.979 -11.400  11.909 -0.33 +0.00    +0.008 A  
DOCKED: ATOM      8  C   UNL     1     -40.215 -11.353  12.860 -0.22 +0.00    +0.010 A  
DOCKED: ATOM      9  C   UNL     1     -39.187 -12.038  12.195 -0.25 +0.00    +0.068 A  
DOCKED: ATOM     10  N   UNL     1     -39.535 -14.508  11.495 -2.50 -0.00    -0.191 NA 
DOCKED: ATOM     11  C   UNL     1     -39.379 -13.400  11.808 -0.35 +0.00    +0.101 C  
DOCKED: ENDROOT
DOCKED: BRANCH   2  12
DOCKED: ATOM     12  C   UNL     1     -38.226  -7.733  14.744 -0.05 +0.00    +0.038 C  
DOCKED: BRANCH  12  13
DOCKED: ATOM     13  C   UNL     1     -37.399  -6.474  14.998 -0.02 +0.00    +0.038 C  
DOCKED: BRANCH  13  14
DOCKED: ATOM     14  C   UNL     1     -35.908  -6.800  15.065 -0.01 +0.00    +0.251 C  
DOCKED: BRANCH  14  15
DOCKED: ATOM     15  N   UNL     1     -35.491  -6.985  16.450 -0.00 +0.00    +0.141 N  
DOCKED: ATOM     16  C   UNL     1     -34.100  -6.567  16.630 -0.00 +0.00    +0.285 C  
DOCKED: ATOM     17  C   UNL     1     -36.367  -6.239  17.356 +0.00 +0.00    +0.285 C  
DOCKED: ENDBRANCH  14  15
DOCKED: ENDBRANCH  13  14
DOCKED: ENDBRANCH  12  13
DOCKED: ENDBRANCH   2  12
DOCKED: BRANCH   2  18
DOCKED: ATOM     18  C   UNL     1     -39.265  -6.961  12.619 -0.20 +0.00    +0.006 A  
DOCKED: ATOM     19  C   UNL     1     -38.689  -5.887  11.942 -0.17 +0.00    +0.001 A  
DOCKED: ATOM     20  C   UNL     1     -39.503  -4.920  11.351 -0.15 +0.00    +0.029 A  
DOCKED: ATOM     21  C   UNL     1     -40.890  -5.028  11.437 -0.11 +0.00    +0.140 A  
DOCKED: ATOM     22  C   UNL     1     -41.465  -6.103  12.114 -0.16 +0.00    +0.029 A  
DOCKED: ATOM     23  F   UNL     1     -41.671  -4.101  10.868 -0.02 -0.00    -0.204 F  
DOCKED: ATOM     24  C   UNL     1     -40.652  -7.071  12.707 -0.21 +0.00    +0.001 A  
DOCKED: ENDBRANCH   2  18
DOCKED: TORSDOF 5
DOCKED: TER
DOCKED: ENDMDL
________________________________________________________________________________


    FINAL DOCKED STATE:
    ________________________


Run:   132 / 512
Time taken for this run:   0.002s

DOCKED: MODEL        132
DOCKED: USER    Run = 132
DOCKED: USER
DOCKED: USER    Estimated Free Energy of Binding    =  -4.36 kcal/mol  [=(1)+(2)+(3)-(4)]
DOCKED: USER
DOCKED: USER    (1) Final Intermolecular Energy     =  -5.86 kcal/mol
DOCKED: USER        vdW + Hbond + desolv Energy     =  -5.86 kcal/mol
DOCKED: USER        Electrostatic Energy            =  +0.00 kcal/mol
DOCKED: USER        Moving Ligand-Fixed Receptor    =  -5.86 kcal/mol
DOCKED: USER        Moving Ligand-Moving Receptor   =  +0.00 kcal/mol
DOCKED: USER    (2) Final Total Internal Energy     =  -1.19 kcal/mol
DOCKED: USER    (3) Torsional Free Energy           =  +1.49 kcal/mol
DOCKED: USER    (4) Unbound System's Energy         =  -1.19 kcal/mol
DOCKED: USER
DOCKED: USER
DOCKED: REMARK  5 active torsions:
DOCKED: REMARK  status: ('A' for Active; 'I' for Inactive)
DOCKED: REMARK    1  A    between atoms: C_2  and  C_19 
DOCKED: REMARK    2  A    between atoms: C_2  and  C_11 
DOCKED: REMARK    3  A    between atoms: C_19  and  C_20 
DOCKED: REMARK    4  A    between atoms: C_20  and  C_21 
DOCKED: REMARK    5  A    between atoms: C_21  and  N_22 
DOCKED: USER                              x       y       z     vdW  Elec       q    Type
DOCKED: USER                           _______ _______ _______ _____ _____    ______ ____
DOCKED: ROOT
DOCKED: ATOM      1  O   UNL     1     -35.922  -4.398   7.727 -0.09 -0.00    -0.346 OA 
DOCKED: ATOM      2  C   UNL     1     -34.612  -4.323   7.079 -0.19 +0.00    +0.130 C  
DOCKED: ATOM      3  C   UNL     1     -34.914  -3.758   5.721 -0.22 +0.00    +0.004 A  
DOCKED: ATOM      4  C   UNL     1     -36.261  -3.434   5.639 -0.10 +0.00    +0.006 A  
DOCKED: ATOM      5  C   UNL     1     -36.932  -3.746   6.921 -0.23 +0.00    +0.169 C  
DOCKED: ATOM      6  C   UNL     1     -34.062  -3.536   4.649 -0.23 -0.00    -0.001 A  
DOCKED: ATOM      7  C   UNL     1     -36.801  -2.887   4.488 -0.08 +0.00    +0.008 A  
DOCKED: ATOM      8  C   UNL     1     -34.593  -2.989   3.480 -0.30 +0.00    +0.010 A  
DOCKED: ATOM      9  C   UNL     1     -35.956  -2.665   3.401 -0.31 +0.00    +0.068 A  
DOCKED: ATOM     10  N   UNL     1     -36.908  -1.645   1.217 -2.46 -0.00    -0.191 NA 
DOCKED: ATOM     11  C   UNL     1     -36.481  -2.103   2.196 -0.31 +0.00    +0.101 C  
DOCKED: ENDROOT
DOCKED: BRANCH   2  12
DOCKED: ATOM     12  C   UNL     1     -33.713  -3.417   7.913 -0.15 +0.00    +0.038 C  
DOCKED: BRANCH  12  13
DOCKED: ATOM     13  C   UNL     1     -34.179  -3.355   9.366 -0.16 +0.00    +0.038 C  
DOCKED: BRANCH  13  14
DOCKED: ATOM     14  C   UNL     1     -33.320  -4.250  10.257 -0.05 +0.00    +0.251 C  
DOCKED: BRANCH  14  15
DOCKED: ATOM     15  N   UNL     1     -32.018  -3.635  10.489 -0.05 +0.00    +0.141 N  
DOCKED: ATOM     16  C   UNL     1     -31.912  -3.155  11.867 -0.03 +0.00    +0.285 C  
DOCKED: ATOM     17  C   UNL     1     -30.942  -4.583  10.197 -0.01 +0.00    +0.285 C  
DOCKED: ENDBRANCH  14  15
DOCKED: ENDBRANCH  13  14
DOCKED: ENDBRANCH  12  13
DOCKED: ENDBRANCH   2  12
DOCKED: BRANCH   2  18
DOCKED: ATOM     18  C   UNL     1     -34.072  -5.713   7.023 -0.13 +0.00    +0.006 A  
DOCKED: ATOM     19  C   UNL     1     -32.694  -5.926   7.013 -0.06 +0.00    +0.001 A  
DOCKED: ATOM     20  C   UNL     1     -32.191  -7.226   6.961 -0.05 +0.00    +0.029 A  
DOCKED: ATOM     21  C   UNL     1     -33.065  -8.311   6.919 -0.14 +0.00    +0.140 A  
DOCKED: ATOM     22  C   UNL     1     -34.444  -8.098   6.930 -0.24 +0.00    +0.029 A  
DOCKED: ATOM     23  F   UNL     1     -32.582  -9.559   6.871 -0.06 -0.00    -0.204 F  
DOCKED: ATOM     24  C   UNL     1     -34.948  -6.797   6.982 -0.22 +0.00    +0.001 A  
DOCKED: ENDBRANCH   2  18
DOCKED: TORSDOF 5
DOCKED: TER
DOCKED: ENDMDL
________________________________________________________________________________


    FINAL DOCKED STATE:
    ________________________


Run:   133 / 512
Time taken for this run:   0.002s

DOCKED: MODEL        133
DOCKED: USER    Run = 133
DOCKED: USER
DOCKED: USER    Estimated Free Energy of Binding    =  -4.23 kcal/mol  [=(1)+(2)+(3)-(4)]
DOCKED: USER
DOCKED: USER    (1) Final Intermolecular Energy     =  -5.72 kcal/mol
DOCKED: USER        vdW + Hbond + desolv Energy     =  -5.72 kcal/mol
DOCKED: USER        Electrostatic Energy            =  +0.00 kcal/mol
DOCKED: USER        Moving Ligand-Fixed Receptor    =  -5.72 kcal/mol
DOCKED: USER        Moving Ligand-Moving Receptor   =  +0.00 kcal/mol
DOCKED: USER    (2) Final Total Internal Energy     =  -1.33 kcal/mol
DOCKED: USER    (3) Torsional Free Energy           =  +1.49 kcal/mol
DOCKED: USER    (4) Unbound System's Energy         =  -1.33 kcal/mol
DOCKED: USER
DOCKED: USER
DOCKED: REMARK  5 active torsions:
DOCKED: REMARK  status: ('A' for Active; 'I' for Inactive)
DOCKED: REMARK    1  A    between atoms: C_2  and  C_19 
DOCKED: REMARK    2  A    between atoms: C_2  and  C_11 
DOCKED: REMARK    3  A    between atoms: C_19  and  C_20 
DOCKED: REMARK    4  A    between atoms: C_20  and  C_21 
DOCKED: REMARK    5  A    between atoms: C_21  and  N_22 
DOCKED: USER                              x       y       z     vdW  Elec       q    Type
DOCKED: USER                           _______ _______ _______ _____ _____    ______ ____
DOCKED: ROOT
DOCKED: ATOM      1  O   UNL     1     -34.341 -10.805  14.524 -0.09 -0.00    -0.346 OA 
DOCKED: ATOM      2  C   UNL     1     -35.305  -9.844  13.987 -0.13 +0.00    +0.130 C  
DOCKED: ATOM      3  C   UNL     1     -36.342 -10.705  13.327 -0.18 +0.00    +0.004 A  
DOCKED: ATOM      4  C   UNL     1     -36.056 -12.043  13.560 -0.20 +0.00    +0.006 A  
DOCKED: ATOM      5  C   UNL     1     -34.836 -12.158  14.390 -0.11 +0.00    +0.169 C  
DOCKED: ATOM      6  C   UNL     1     -37.456 -10.334  12.587 -0.27 -0.00    -0.001 A  
DOCKED: ATOM      7  C   UNL     1     -36.865 -13.050  13.063 -0.35 +0.00    +0.008 A  
DOCKED: ATOM      8  C   UNL     1     -38.279 -11.338  12.075 -0.32 +0.00    +0.010 A  
DOCKED: ATOM      9  C   UNL     1     -37.985 -12.689  12.312 -0.31 +0.00    +0.068 A  
DOCKED: ATOM     10  N   UNL     1     -39.537 -14.528  11.352 -2.56 -0.00    -0.191 NA 
DOCKED: ATOM     11  C   UNL     1     -38.841 -13.703  11.782 -0.37 +0.00    +0.101 C  
DOCKED: ENDROOT
DOCKED: BRANCH   2  12
DOCKED: ATOM     12  C   UNL     1     -35.864  -9.024  15.144 -0.05 +0.00    +0.038 C  
DOCKED: BRANCH  12  13
DOCKED: ATOM     13  C   UNL     1     -36.686  -9.891  16.096 -0.04 +0.00    +0.038 C  
DOCKED: BRANCH  13  14
DOCKED: ATOM     14  C   UNL     1     -38.152  -9.461  16.103 -0.01 +0.00    +0.251 C  
DOCKED: BRANCH  14  15
DOCKED: ATOM     15  N   UNL     1     -39.009 -10.589  16.449 -0.02 +0.00    +0.141 N  
DOCKED: ATOM     16  C   UNL     1     -40.265 -10.531  15.699 -0.01 +0.00    +0.285 C  
DOCKED: ATOM     17  C   UNL     1     -38.322 -11.856  16.192 -0.03 +0.00    +0.285 C  
DOCKED: ENDBRANCH  14  15
DOCKED: ENDBRANCH  13  14
DOCKED: ENDBRANCH  12  13
DOCKED: ENDBRANCH   2  12
DOCKED: BRANCH   2  18
DOCKED: ATOM     18  C   UNL     1     -34.566  -8.978  13.022 -0.10 +0.00    +0.006 A  
DOCKED: ATOM     19  C   UNL     1     -33.173  -8.927  13.057 -0.10 +0.00    +0.001 A  
DOCKED: ATOM     20  C   UNL     1     -32.483  -8.117  12.154 -0.08 +0.00    +0.029 A  
DOCKED: ATOM     21  C   UNL     1     -33.187  -7.361  11.217 -0.07 +0.00    +0.140 A  
DOCKED: ATOM     22  C   UNL     1     -34.580  -7.414  11.182 -0.13 +0.00    +0.029 A  
DOCKED: ATOM     23  F   UNL     1     -32.525  -6.585  10.349 -0.00 -0.00    -0.204 F  
DOCKED: ATOM     24  C   UNL     1     -35.271  -8.223  12.086 -0.16 +0.00    +0.001 A  
DOCKED: ENDBRANCH   2  18
DOCKED: TORSDOF 5
DOCKED: TER
DOCKED: ENDMDL
________________________________________________________________________________


    FINAL DOCKED STATE:
    ________________________


Run:   134 / 512
Time taken for this run:   0.002s

DOCKED: MODEL        134
DOCKED: USER    Run = 134
DOCKED: USER
DOCKED: USER    Estimated Free Energy of Binding    =  -4.48 kcal/mol  [=(1)+(2)+(3)-(4)]
DOCKED: USER
DOCKED: USER    (1) Final Intermolecular Energy     =  -5.97 kcal/mol
DOCKED: USER        vdW + Hbond + desolv Energy     =  -5.97 kcal/mol
DOCKED: USER        Electrostatic Energy            =  +0.00 kcal/mol
DOCKED: USER        Moving Ligand-Fixed Receptor    =  -5.97 kcal/mol
DOCKED: USER        Moving Ligand-Moving Receptor   =  +0.00 kcal/mol
DOCKED: USER    (2) Final Total Internal Energy     =  -1.42 kcal/mol
DOCKED: USER    (3) Torsional Free Energy           =  +1.49 kcal/mol
DOCKED: USER    (4) Unbound System's Energy         =  -1.42 kcal/mol
DOCKED: USER
DOCKED: USER
DOCKED: REMARK  5 active torsions:
DOCKED: REMARK  status: ('A' for Active; 'I' for Inactive)
DOCKED: REMARK    1  A    between atoms: C_2  and  C_19 
DOCKED: REMARK    2  A    between atoms: C_2  and  C_11 
DOCKED: REMARK    3  A    between atoms: C_19  and  C_20 
DOCKED: REMARK    4  A    between atoms: C_20  and  C_21 
DOCKED: REMARK    5  A    between atoms: C_21  and  N_22 
DOCKED: USER                              x       y       z     vdW  Elec       q    Type
DOCKED: USER                           _______ _______ _______ _____ _____    ______ ____
DOCKED: ROOT
DOCKED: ATOM      1  O   UNL     1     -35.632  -4.584   7.587 -0.08 -0.00    -0.346 OA 
DOCKED: ATOM      2  C   UNL     1     -34.442  -4.790   6.761 -0.17 +0.00    +0.130 C  
DOCKED: ATOM      3  C   UNL     1     -34.803  -4.159   5.447 -0.27 +0.00    +0.004 A  
DOCKED: ATOM      4  C   UNL     1     -36.045  -3.549   5.548 -0.21 +0.00    +0.006 A  
DOCKED: ATOM      5  C   UNL     1     -36.579  -3.720   6.917 -0.27 +0.00    +0.169 C  
DOCKED: ATOM      6  C   UNL     1     -34.084  -4.118   4.261 -0.24 -0.00    -0.001 A  
DOCKED: ATOM      7  C   UNL     1     -36.611  -2.885   4.473 -0.10 +0.00    +0.008 A  
DOCKED: ATOM      8  C   UNL     1     -34.643  -3.456   3.167 -0.18 +0.00    +0.010 A  
DOCKED: ATOM      9  C   UNL     1     -35.900  -2.842   3.273 -0.19 +0.00    +0.068 A  
DOCKED: ATOM     10  N   UNL     1     -36.907  -1.617   1.224 -2.44 -0.00    -0.191 NA 
DOCKED: ATOM     11  C   UNL     1     -36.456  -2.167   2.142 -0.22 +0.00    +0.101 C  
DOCKED: ENDROOT
DOCKED: BRANCH   2  12
DOCKED: ATOM     12  C   UNL     1     -33.259  -4.110   7.440 -0.15 +0.00    +0.038 C  
DOCKED: BRANCH  12  13
DOCKED: ATOM     13  C   UNL     1     -33.622  -3.635   8.846 -0.15 +0.00    +0.038 C  
DOCKED: BRANCH  13  14
DOCKED: ATOM     14  C   UNL     1     -33.734  -4.812   9.812 -0.05 +0.00    +0.251 C  
DOCKED: BRANCH  14  15
DOCKED: ATOM     15  N   UNL     1     -32.776  -5.853   9.457 -0.03 +0.00    +0.141 N  
DOCKED: ATOM     16  C   UNL     1     -31.427  -5.480   9.884 -0.01 +0.00    +0.285 C  
DOCKED: ATOM     17  C   UNL     1     -33.162  -7.133  10.053 -0.06 +0.00    +0.285 C  
DOCKED: ENDBRANCH  14  15
DOCKED: ENDBRANCH  13  14
DOCKED: ENDBRANCH  12  13
DOCKED: ENDBRANCH   2  12
DOCKED: BRANCH   2  18
DOCKED: ATOM     18  C   UNL     1     -34.230  -6.264   6.659 -0.16 +0.00    +0.006 A  
DOCKED: ATOM     19  C   UNL     1     -33.168  -6.765   5.908 -0.12 +0.00    +0.001 A  
DOCKED: ATOM     20  C   UNL     1     -32.971  -8.143   5.814 -0.18 +0.00    +0.029 A  
DOCKED: ATOM     21  C   UNL     1     -33.836  -9.017   6.470 -0.19 +0.00    +0.140 A  
DOCKED: ATOM     22  C   UNL     1     -34.898  -8.515   7.222 -0.27 +0.00    +0.029 A  
DOCKED: ATOM     23  F   UNL     1     -33.646 -10.340   6.381 -0.03 -0.00    -0.204 F  
DOCKED: ATOM     24  C   UNL     1     -35.096  -7.137   7.316 -0.21 +0.00    +0.001 A  
DOCKED: ENDBRANCH   2  18
DOCKED: TORSDOF 5
DOCKED: TER
DOCKED: ENDMDL
________________________________________________________________________________


    FINAL DOCKED STATE:
    ________________________


Run:   135 / 512
Time taken for this run:   0.002s

DOCKED: MODEL        135
DOCKED: USER    Run = 135
DOCKED: USER
DOCKED: USER    Estimated Free Energy of Binding    =  -4.55 kcal/mol  [=(1)+(2)+(3)-(4)]
DOCKED: USER
DOCKED: USER    (1) Final Intermolecular Energy     =  -6.05 kcal/mol
DOCKED: USER        vdW + Hbond + desolv Energy     =  -6.05 kcal/mol
DOCKED: USER        Electrostatic Energy            =  +0.00 kcal/mol
DOCKED: USER        Moving Ligand-Fixed Receptor    =  -6.05 kcal/mol
DOCKED: USER        Moving Ligand-Moving Receptor   =  +0.00 kcal/mol
DOCKED: USER    (2) Final Total Internal Energy     =  -0.97 kcal/mol
DOCKED: USER    (3) Torsional Free Energy           =  +1.49 kcal/mol
DOCKED: USER    (4) Unbound System's Energy         =  -0.97 kcal/mol
DOCKED: USER
DOCKED: USER
DOCKED: REMARK  5 active torsions:
DOCKED: REMARK  status: ('A' for Active; 'I' for Inactive)
DOCKED: REMARK    1  A    between atoms: C_2  and  C_19 
DOCKED: REMARK    2  A    between atoms: C_2  and  C_11 
DOCKED: REMARK    3  A    between atoms: C_19  and  C_20 
DOCKED: REMARK    4  A    between atoms: C_20  and  C_21 
DOCKED: REMARK    5  A    between atoms: C_21  and  N_22 
DOCKED: USER                              x       y       z     vdW  Elec       q    Type
DOCKED: USER                           _______ _______ _______ _____ _____    ______ ____
DOCKED: ROOT
DOCKED: ATOM      1  O   UNL     1     -35.496 -10.814  15.238 -0.05 -0.00    -0.346 OA 
DOCKED: ATOM      2  C   UNL     1     -36.179  -9.924  14.298 -0.12 +0.00    +0.130 C  
DOCKED: ATOM      3  C   UNL     1     -36.978 -10.857  13.435 -0.22 +0.00    +0.004 A  
DOCKED: ATOM      4  C   UNL     1     -36.851 -12.155  13.909 -0.25 +0.00    +0.006 A  
DOCKED: ATOM      5  C   UNL     1     -35.982 -12.170  15.108 -0.14 +0.00    +0.169 C  
DOCKED: ATOM      6  C   UNL     1     -37.764 -10.578  12.327 -0.29 -0.00    -0.001 A  
DOCKED: ATOM      7  C   UNL     1     -37.496 -13.214  13.293 -0.34 +0.00    +0.008 A  
DOCKED: ATOM      8  C   UNL     1     -38.418 -11.635  11.692 -0.35 +0.00    +0.010 A  
DOCKED: ATOM      9  C   UNL     1     -38.285 -12.946  12.173 -0.32 +0.00    +0.068 A  
DOCKED: ATOM     10  N   UNL     1     -39.517 -14.885  10.974 -2.36 -0.00    -0.191 NA 
DOCKED: ATOM     11  C   UNL     1     -38.964 -14.015  11.512 -0.34 +0.00    +0.101 C  
DOCKED: ENDROOT
DOCKED: BRANCH   2  12
DOCKED: ATOM     12  C   UNL     1     -37.050  -8.959  15.094 -0.05 +0.00    +0.038 C  
DOCKED: BRANCH  12  13
DOCKED: ATOM     13  C   UNL     1     -38.163  -8.370  14.228 -0.09 +0.00    +0.038 C  
DOCKED: BRANCH  13  14
DOCKED: ATOM     14  C   UNL     1     -37.788  -6.979  13.722 -0.06 +0.00    +0.251 C  
DOCKED: BRANCH  14  15
DOCKED: ATOM     15  N   UNL     1     -38.398  -6.731  12.422 -0.15 +0.00    +0.141 N  
DOCKED: ATOM     16  C   UNL     1     -39.857  -6.706  12.532 -0.15 +0.00    +0.285 C  
DOCKED: ATOM     17  C   UNL     1     -37.911  -5.472  11.855 -0.10 +0.00    +0.285 C  
DOCKED: ENDBRANCH  14  15
DOCKED: ENDBRANCH  13  14
DOCKED: ENDBRANCH  12  13
DOCKED: ENDBRANCH   2  12
DOCKED: BRANCH   2  18
DOCKED: ATOM     18  C   UNL     1     -35.121  -9.194  13.541 -0.13 +0.00    +0.006 A  
DOCKED: ATOM     19  C   UNL     1     -35.424  -8.600  12.316 -0.16 +0.00    +0.001 A  
DOCKED: ATOM     20  C   UNL     1     -34.434  -7.918  11.609 -0.14 +0.00    +0.029 A  
DOCKED: ATOM     21  C   UNL     1     -33.142  -7.831  12.126 -0.07 +0.00    +0.140 A  
DOCKED: ATOM     22  C   UNL     1     -32.839  -8.425  13.351 -0.07 +0.00    +0.029 A  
DOCKED: ATOM     23  F   UNL     1     -32.192  -7.175  11.447 -0.01 -0.00    -0.204 F  
DOCKED: ATOM     24  C   UNL     1     -33.829  -9.108  14.059 -0.09 +0.00    +0.001 A  
DOCKED: ENDBRANCH   2  18
DOCKED: TORSDOF 5
DOCKED: TER
DOCKED: ENDMDL
________________________________________________________________________________


    FINAL DOCKED STATE:
    ________________________


Run:   136 / 512
Time taken for this run:   0.002s

DOCKED: MODEL        136
DOCKED: USER    Run = 136
DOCKED: USER
DOCKED: USER    Estimated Free Energy of Binding    =  -5.10 kcal/mol  [=(1)+(2)+(3)-(4)]
DOCKED: USER
DOCKED: USER    (1) Final Intermolecular Energy     =  -6.60 kcal/mol
DOCKED: USER        vdW + Hbond + desolv Energy     =  -6.60 kcal/mol
DOCKED: USER        Electrostatic Energy            =  +0.00 kcal/mol
DOCKED: USER        Moving Ligand-Fixed Receptor    =  -6.60 kcal/mol
DOCKED: USER        Moving Ligand-Moving Receptor   =  +0.00 kcal/mol
DOCKED: USER    (2) Final Total Internal Energy     =  -1.04 kcal/mol
DOCKED: USER    (3) Torsional Free Energy           =  +1.49 kcal/mol
DOCKED: USER    (4) Unbound System's Energy         =  -1.04 kcal/mol
DOCKED: USER
DOCKED: USER
DOCKED: REMARK  5 active torsions:
DOCKED: REMARK  status: ('A' for Active; 'I' for Inactive)
DOCKED: REMARK    1  A    between atoms: C_2  and  C_19 
DOCKED: REMARK    2  A    between atoms: C_2  and  C_11 
DOCKED: REMARK    3  A    between atoms: C_19  and  C_20 
DOCKED: REMARK    4  A    between atoms: C_20  and  C_21 
DOCKED: REMARK    5  A    between atoms: C_21  and  N_22 
DOCKED: USER                              x       y       z     vdW  Elec       q    Type
DOCKED: USER                           _______ _______ _______ _____ _____    ______ ____
DOCKED: ROOT
DOCKED: ATOM      1  O   UNL     1     -37.326 -10.529  13.952 -0.05 -0.00    -0.346 OA 
DOCKED: ATOM      2  C   UNL     1     -37.758 -11.906  14.196 -0.16 +0.00    +0.130 C  
DOCKED: ATOM      3  C   UNL     1     -38.221 -12.382  12.850 -0.29 +0.00    +0.004 A  
DOCKED: ATOM      4  C   UNL     1     -37.973 -11.403  11.898 -0.33 +0.00    +0.006 A  
DOCKED: ATOM      5  C   UNL     1     -37.327 -10.234  12.535 -0.23 +0.00    +0.169 C  
DOCKED: ATOM      6  C   UNL     1     -38.805 -13.589  12.494 -0.26 -0.00    -0.001 A  
DOCKED: ATOM      7  C   UNL     1     -38.302 -11.594  10.566 -0.03 +0.00    +0.008 A  
DOCKED: ATOM      8  C   UNL     1     -39.146 -13.794  11.156 -0.44 +0.00    +0.010 A  
DOCKED: ATOM      9  C   UNL     1     -38.895 -12.802  10.197 -0.41 +0.00    +0.068 A  
DOCKED: ATOM     10  N   UNL     1     -39.536 -13.217   7.721 -2.89 -0.00    -0.191 NA 
DOCKED: ATOM     11  C   UNL     1     -39.249 -13.030   8.832 -0.42 +0.00    +0.101 C  
DOCKED: ENDROOT
DOCKED: BRANCH   2  12
DOCKED: ATOM     12  C   UNL     1     -36.570 -12.697  14.729 -0.22 +0.00    +0.038 C  
DOCKED: BRANCH  12  13
DOCKED: ATOM     13  C   UNL     1     -35.251 -12.161  14.176 -0.20 +0.00    +0.038 C  
DOCKED: BRANCH  13  14
DOCKED: ATOM     14  C   UNL     1     -34.820 -10.895  14.914 -0.11 +0.00    +0.251 C  
DOCKED: BRANCH  14  15
DOCKED: ATOM     15  N   UNL     1     -33.424 -10.589  14.624 -0.10 +0.00    +0.141 N  
DOCKED: ATOM     16  C   UNL     1     -32.784 -11.706  13.928 -0.03 +0.00    +0.285 C  
DOCKED: ATOM     17  C   UNL     1     -33.320  -9.367  13.825 -0.07 +0.00    +0.285 C  
DOCKED: ENDBRANCH  14  15
DOCKED: ENDBRANCH  13  14
DOCKED: ENDBRANCH  12  13
DOCKED: ENDBRANCH   2  12
DOCKED: BRANCH   2  18
DOCKED: ATOM     18  C   UNL     1     -38.859 -11.846  15.202 -0.09 +0.00    +0.006 A  
DOCKED: ATOM     19  C   UNL     1     -38.559 -11.851  16.564 -0.07 +0.00    +0.001 A  
DOCKED: ATOM     20  C   UNL     1     -39.590 -11.795  17.503 -0.04 +0.00    +0.029 A  
DOCKED: ATOM     21  C   UNL     1     -40.917 -11.733  17.080 -0.02 +0.00    +0.140 A  
DOCKED: ATOM     22  C   UNL     1     -41.215 -11.727  15.718 -0.06 +0.00    +0.029 A  
DOCKED: ATOM     23  F   UNL     1     -41.905 -11.677  17.982 +0.01 -0.00    -0.204 F  
DOCKED: ATOM     24  C   UNL     1     -40.186 -11.784  14.777 -0.10 +0.00    +0.001 A  
DOCKED: ENDBRANCH   2  18
DOCKED: TORSDOF 5
DOCKED: TER
DOCKED: ENDMDL
________________________________________________________________________________


    FINAL DOCKED STATE:
    ________________________


Run:   137 / 512
Time taken for this run:   0.002s

DOCKED: MODEL        137
DOCKED: USER    Run = 137
DOCKED: USER
DOCKED: USER    Estimated Free Energy of Binding    =  -4.35 kcal/mol  [=(1)+(2)+(3)-(4)]
DOCKED: USER
DOCKED: USER    (1) Final Intermolecular Energy     =  -5.84 kcal/mol
DOCKED: USER        vdW + Hbond + desolv Energy     =  -5.84 kcal/mol
DOCKED: USER        Electrostatic Energy            =  +0.00 kcal/mol
DOCKED: USER        Moving Ligand-Fixed Receptor    =  -5.84 kcal/mol
DOCKED: USER        Moving Ligand-Moving Receptor   =  +0.00 kcal/mol
DOCKED: USER    (2) Final Total Internal Energy     =  -1.28 kcal/mol
DOCKED: USER    (3) Torsional Free Energy           =  +1.49 kcal/mol
DOCKED: USER    (4) Unbound System's Energy         =  -1.28 kcal/mol
DOCKED: USER
DOCKED: USER
DOCKED: REMARK  5 active torsions:
DOCKED: REMARK  status: ('A' for Active; 'I' for Inactive)
DOCKED: REMARK    1  A    between atoms: C_2  and  C_19 
DOCKED: REMARK    2  A    between atoms: C_2  and  C_11 
DOCKED: REMARK    3  A    between atoms: C_19  and  C_20 
DOCKED: REMARK    4  A    between atoms: C_20  and  C_21 
DOCKED: REMARK    5  A    between atoms: C_21  and  N_22 
DOCKED: USER                              x       y       z     vdW  Elec       q    Type
DOCKED: USER                           _______ _______ _______ _____ _____    ______ ____
DOCKED: ROOT
DOCKED: ATOM      1  O   UNL     1     -36.047 -10.068  15.207 -0.02 -0.00    -0.346 OA 
DOCKED: ATOM      2  C   UNL     1     -36.531  -9.361  14.020 -0.11 +0.00    +0.130 C  
DOCKED: ATOM      3  C   UNL     1     -37.152 -10.443  13.185 -0.23 +0.00    +0.004 A  
DOCKED: ATOM      4  C   UNL     1     -37.125 -11.643  13.881 -0.22 +0.00    +0.006 A  
DOCKED: ATOM      5  C   UNL     1     -36.506 -11.440  15.210 -0.11 +0.00    +0.169 C  
DOCKED: ATOM      6  C   UNL     1     -37.707 -10.369  11.916 -0.18 -0.00    -0.001 A  
DOCKED: ATOM      7  C   UNL     1     -37.644 -12.805  13.335 -0.30 +0.00    +0.008 A  
DOCKED: ATOM      8  C   UNL     1     -38.231 -11.532  11.349 -0.33 +0.00    +0.010 A  
DOCKED: ATOM      9  C   UNL     1     -38.200 -12.744  12.056 -0.32 +0.00    +0.068 A  
DOCKED: ATOM     10  N   UNL     1     -39.185 -14.884  10.977 -2.38 -0.00    -0.191 NA 
DOCKED: ATOM     11  C   UNL     1     -38.742 -13.924  11.461 -0.38 +0.00    +0.101 C  
DOCKED: ENDROOT
DOCKED: BRANCH   2  12
DOCKED: ATOM     12  C   UNL     1     -37.536  -8.304  14.465 -0.07 +0.00    +0.038 C  
DOCKED: BRANCH  12  13
DOCKED: ATOM     13  C   UNL     1     -38.952  -8.872  14.523 -0.09 +0.00    +0.038 C  
DOCKED: BRANCH  13  14
DOCKED: ATOM     14  C   UNL     1     -39.857  -8.198  13.493 -0.13 +0.00    +0.251 C  
DOCKED: BRANCH  14  15
DOCKED: ATOM     15  N   UNL     1     -41.006  -9.045  13.196 -0.18 +0.00    +0.141 N  
DOCKED: ATOM     16  C   UNL     1     -40.726 -10.438  13.549 -0.09 +0.00    +0.285 C  
DOCKED: ATOM     17  C   UNL     1     -42.194  -8.571  13.907 -0.08 +0.00    +0.285 C  
DOCKED: ENDBRANCH  14  15
DOCKED: ENDBRANCH  13  14
DOCKED: ENDBRANCH  12  13
DOCKED: ENDBRANCH   2  12
DOCKED: BRANCH   2  18
DOCKED: ATOM     18  C   UNL     1     -35.343  -8.735  13.371 -0.13 +0.00    +0.006 A  
DOCKED: ATOM     19  C   UNL     1     -34.082  -9.311  13.521 -0.11 +0.00    +0.001 A  
DOCKED: ATOM     20  C   UNL     1     -32.971  -8.724  12.913 -0.10 +0.00    +0.029 A  
DOCKED: ATOM     21  C   UNL     1     -33.123  -7.564  12.156 -0.06 +0.00    +0.140 A  
DOCKED: ATOM     22  C   UNL     1     -34.384  -6.988  12.006 -0.09 +0.00    +0.029 A  
DOCKED: ATOM     23  F   UNL     1     -32.057  -7.002  11.572 -0.00 -0.00    -0.204 F  
DOCKED: ATOM     24  C   UNL     1     -35.496  -7.574  12.614 -0.13 +0.00    +0.001 A  
DOCKED: ENDBRANCH   2  18
DOCKED: TORSDOF 5
DOCKED: TER
DOCKED: ENDMDL
________________________________________________________________________________


    FINAL DOCKED STATE:
    ________________________


Run:   138 / 512
Time taken for this run:   0.002s

DOCKED: MODEL        138
DOCKED: USER    Run = 138
DOCKED: USER
DOCKED: USER    Estimated Free Energy of Binding    =  -3.18 kcal/mol  [=(1)+(2)+(3)-(4)]
DOCKED: USER
DOCKED: USER    (1) Final Intermolecular Energy     =  -4.67 kcal/mol
DOCKED: USER        vdW + Hbond + desolv Energy     =  -4.67 kcal/mol
DOCKED: USER        Electrostatic Energy            =  +0.00 kcal/mol
DOCKED: USER        Moving Ligand-Fixed Receptor    =  -4.67 kcal/mol
DOCKED: USER        Moving Ligand-Moving Receptor   =  +0.00 kcal/mol
DOCKED: USER    (2) Final Total Internal Energy     =  -1.28 kcal/mol
DOCKED: USER    (3) Torsional Free Energy           =  +1.49 kcal/mol
DOCKED: USER    (4) Unbound System's Energy         =  -1.28 kcal/mol
DOCKED: USER
DOCKED: USER
DOCKED: REMARK  5 active torsions:
DOCKED: REMARK  status: ('A' for Active; 'I' for Inactive)
DOCKED: REMARK    1  A    between atoms: C_2  and  C_19 
DOCKED: REMARK    2  A    between atoms: C_2  and  C_11 
DOCKED: REMARK    3  A    between atoms: C_19  and  C_20 
DOCKED: REMARK    4  A    between atoms: C_20  and  C_21 
DOCKED: REMARK    5  A    between atoms: C_21  and  N_22 
DOCKED: USER                              x       y       z     vdW  Elec       q    Type
DOCKED: USER                           _______ _______ _______ _____ _____    ______ ____
DOCKED: ROOT
DOCKED: ATOM      1  O   UNL     1     -36.936 -12.088  13.918 -0.09 -0.00    -0.346 OA 
DOCKED: ATOM      2  C   UNL     1     -38.395 -12.003  13.833 -0.16 +0.00    +0.130 C  
DOCKED: ATOM      3  C   UNL     1     -38.870 -12.738  15.052 -0.15 +0.00    +0.004 A  
DOCKED: ATOM      4  C   UNL     1     -37.781 -13.115  15.825 -0.19 +0.00    +0.006 A  
DOCKED: ATOM      5  C   UNL     1     -36.528 -12.651  15.187 -0.13 +0.00    +0.169 C  
DOCKED: ATOM      6  C   UNL     1     -40.164 -13.040  15.451 -0.14 -0.00    -0.001 A  
DOCKED: ATOM      7  C   UNL     1     -37.944 -13.806  17.013 -0.21 +0.00    +0.008 A  
DOCKED: ATOM      8  C   UNL     1     -40.346 -13.740  16.645 -0.15 +0.00    +0.010 A  
DOCKED: ATOM      9  C   UNL     1     -39.241 -14.121  17.422 -0.08 +0.00    +0.068 A  
DOCKED: ATOM     10  N   UNL     1     -39.613 -15.415  19.636 -0.17 -0.00    -0.191 NA 
DOCKED: ATOM     11  C   UNL     1     -39.446 -14.835  18.643 -0.18 +0.00    +0.101 C  
DOCKED: ENDROOT
DOCKED: BRANCH   2  12
DOCKED: ATOM     12  C   UNL     1     -38.793 -10.532  13.835 -0.16 +0.00    +0.038 C  
DOCKED: BRANCH  12  13
DOCKED: ATOM     13  C   UNL     1     -38.466  -9.864  12.500 -0.27 +0.00    +0.038 C  
DOCKED: BRANCH  13  14
DOCKED: ATOM     14  C   UNL     1     -36.957  -9.740  12.303 -0.14 +0.00    +0.251 C  
DOCKED: BRANCH  14  15
DOCKED: ATOM     15  N   UNL     1     -36.379  -8.887  13.334 -0.12 +0.00    +0.141 N  
DOCKED: ATOM     16  C   UNL     1     -34.943  -9.137  13.467 -0.09 +0.00    +0.285 C  
DOCKED: ATOM     17  C   UNL     1     -36.622  -7.475  13.031 -0.08 +0.00    +0.285 C  
DOCKED: ENDBRANCH  14  15
DOCKED: ENDBRANCH  13  14
DOCKED: ENDBRANCH  12  13
DOCKED: ENDBRANCH   2  12
DOCKED: BRANCH   2  18
DOCKED: ATOM     18  C   UNL     1     -38.797 -12.668  12.559 -0.29 +0.00    +0.006 A  
DOCKED: ATOM     19  C   UNL     1     -37.839 -13.313  11.777 -0.42 +0.00    +0.001 A  
DOCKED: ATOM     20  C   UNL     1     -38.216 -13.934  10.586 -0.44 +0.00    +0.029 A  
DOCKED: ATOM     21  C   UNL     1     -39.549 -13.910  10.178 -0.33 +0.00    +0.140 A  
DOCKED: ATOM     22  C   UNL     1     -40.507 -13.264  10.961 -0.35 +0.00    +0.029 A  
DOCKED: ATOM     23  F   UNL     1     -39.911 -14.507   9.036 -0.03 -0.00    -0.204 F  
DOCKED: ATOM     24  C   UNL     1     -40.130 -12.642  12.152 -0.29 +0.00    +0.001 A  
DOCKED: ENDBRANCH   2  18
DOCKED: TORSDOF 5
DOCKED: TER
DOCKED: ENDMDL
________________________________________________________________________________


    FINAL DOCKED STATE:
    ________________________


Run:   139 / 512
Time taken for this run:   0.002s

DOCKED: MODEL        139
DOCKED: USER    Run = 139
DOCKED: USER
DOCKED: USER    Estimated Free Energy of Binding    =  -3.04 kcal/mol  [=(1)+(2)+(3)-(4)]
DOCKED: USER
DOCKED: USER    (1) Final Intermolecular Energy     =  -4.53 kcal/mol
DOCKED: USER        vdW + Hbond + desolv Energy     =  -4.53 kcal/mol
DOCKED: USER        Electrostatic Energy            =  +0.00 kcal/mol
DOCKED: USER        Moving Ligand-Fixed Receptor    =  -4.53 kcal/mol
DOCKED: USER        Moving Ligand-Moving Receptor   =  +0.00 kcal/mol
DOCKED: USER    (2) Final Total Internal Energy     =  -1.58 kcal/mol
DOCKED: USER    (3) Torsional Free Energy           =  +1.49 kcal/mol
DOCKED: USER    (4) Unbound System's Energy         =  -1.58 kcal/mol
DOCKED: USER
DOCKED: USER
DOCKED: REMARK  5 active torsions:
DOCKED: REMARK  status: ('A' for Active; 'I' for Inactive)
DOCKED: REMARK    1  A    between atoms: C_2  and  C_19 
DOCKED: REMARK    2  A    between atoms: C_2  and  C_11 
DOCKED: REMARK    3  A    between atoms: C_19  and  C_20 
DOCKED: REMARK    4  A    between atoms: C_20  and  C_21 
DOCKED: REMARK    5  A    between atoms: C_21  and  N_22 
DOCKED: USER                              x       y       z     vdW  Elec       q    Type
DOCKED: USER                           _______ _______ _______ _____ _____    ______ ____
DOCKED: ROOT
DOCKED: ATOM      1  O   UNL     1     -27.403 -14.841   4.533 -0.00 -0.00    -0.346 OA 
DOCKED: ATOM      2  C   UNL     1     -28.368 -13.753   4.367 -0.04 +0.00    +0.130 C  
DOCKED: ATOM      3  C   UNL     1     -29.309 -13.928   5.524 -0.10 +0.00    +0.004 A  
DOCKED: ATOM      4  C   UNL     1     -28.860 -14.955   6.340 -0.14 +0.00    +0.006 A  
DOCKED: ATOM      5  C   UNL     1     -27.602 -15.516   5.797 -0.07 +0.00    +0.169 C  
DOCKED: ATOM      6  C   UNL     1     -30.464 -13.226   5.834 -0.15 -0.00    -0.001 A  
DOCKED: ATOM      7  C   UNL     1     -29.547 -15.318   7.486 -0.21 +0.00    +0.008 A  
DOCKED: ATOM      8  C   UNL     1     -31.171 -13.582   6.984 -0.25 +0.00    +0.010 A  
DOCKED: ATOM      9  C   UNL     1     -30.714 -14.623   7.806 -0.27 +0.00    +0.068 A  
DOCKED: ATOM     10  N   UNL     1     -32.047 -15.256   9.935 -2.57 -0.00    -0.191 NA 
DOCKED: ATOM     11  C   UNL     1     -31.449 -14.973   8.980 -0.30 +0.00    +0.101 C  
DOCKED: ENDROOT
DOCKED: BRANCH   2  12
DOCKED: ATOM     12  C   UNL     1     -27.614 -12.429   4.410 -0.02 +0.00    +0.038 C  
DOCKED: BRANCH  12  13
DOCKED: ATOM     13  C   UNL     1     -26.102 -12.648   4.403 -0.01 +0.00    +0.038 C  
DOCKED: BRANCH  13  14
DOCKED: ATOM     14  C   UNL     1     -25.522 -12.430   3.006 -0.00 +0.00    +0.251 C  
DOCKED: BRANCH  14  15
DOCKED: ATOM     15  N   UNL     1     -26.136 -13.348   2.054 -0.00 +0.00    +0.141 N  
DOCKED: ATOM     16  C   UNL     1     -26.124 -12.776   0.706 -0.00 +0.00    +0.285 C  
DOCKED: ATOM     17  C   UNL     1     -25.446 -14.639   2.063 -0.00 +0.00    +0.285 C  
DOCKED: ENDBRANCH  14  15
DOCKED: ENDBRANCH  13  14
DOCKED: ENDBRANCH  12  13
DOCKED: ENDBRANCH   2  12
DOCKED: BRANCH   2  18
DOCKED: ATOM     18  C   UNL     1     -29.028 -13.954   3.044 -0.07 +0.00    +0.006 A  
DOCKED: ATOM     19  C   UNL     1     -29.179 -15.240   2.529 -0.07 +0.00    +0.001 A  
DOCKED: ATOM     20  C   UNL     1     -29.797 -15.426   1.291 -0.07 +0.00    +0.029 A  
DOCKED: ATOM     21  C   UNL     1     -30.263 -14.327   0.572 -0.00 +0.00    +0.140 A  
DOCKED: ATOM     22  C   UNL     1     -30.112 -13.040   1.088 -0.06 +0.00    +0.029 A  
DOCKED: ATOM     23  F   UNL     1     -30.857 -14.506  -0.615 -0.03 -0.00    -0.204 F  
DOCKED: ATOM     24  C   UNL     1     -29.494 -12.853   2.326 -0.09 +0.00    +0.001 A  
DOCKED: ENDBRANCH   2  18
DOCKED: TORSDOF 5
DOCKED: TER
DOCKED: ENDMDL
________________________________________________________________________________


    FINAL DOCKED STATE:
    ________________________


Run:   140 / 512
Time taken for this run:   0.002s

DOCKED: MODEL        140
DOCKED: USER    Run = 140
DOCKED: USER
DOCKED: USER    Estimated Free Energy of Binding    =  -4.45 kcal/mol  [=(1)+(2)+(3)-(4)]
DOCKED: USER
DOCKED: USER    (1) Final Intermolecular Energy     =  -5.94 kcal/mol
DOCKED: USER        vdW + Hbond + desolv Energy     =  -5.94 kcal/mol
DOCKED: USER        Electrostatic Energy            =  +0.00 kcal/mol
DOCKED: USER        Moving Ligand-Fixed Receptor    =  -5.94 kcal/mol
DOCKED: USER        Moving Ligand-Moving Receptor   =  +0.00 kcal/mol
DOCKED: USER    (2) Final Total Internal Energy     =  -1.34 kcal/mol
DOCKED: USER    (3) Torsional Free Energy           =  +1.49 kcal/mol
DOCKED: USER    (4) Unbound System's Energy         =  -1.34 kcal/mol
DOCKED: USER
DOCKED: USER
DOCKED: REMARK  5 active torsions:
DOCKED: REMARK  status: ('A' for Active; 'I' for Inactive)
DOCKED: REMARK    1  A    between atoms: C_2  and  C_19 
DOCKED: REMARK    2  A    between atoms: C_2  and  C_11 
DOCKED: REMARK    3  A    between atoms: C_19  and  C_20 
DOCKED: REMARK    4  A    between atoms: C_20  and  C_21 
DOCKED: REMARK    5  A    between atoms: C_21  and  N_22 
DOCKED: USER                              x       y       z     vdW  Elec       q    Type
DOCKED: USER                           _______ _______ _______ _____ _____    ______ ____
DOCKED: ROOT
DOCKED: ATOM      1  O   UNL     1     -34.525 -10.595  14.475 -0.08 -0.00    -0.346 OA 
DOCKED: ATOM      2  C   UNL     1     -35.495  -9.691  13.856 -0.13 +0.00    +0.130 C  
DOCKED: ATOM      3  C   UNL     1     -36.485 -10.615  13.208 -0.21 +0.00    +0.004 A  
DOCKED: ATOM      4  C   UNL     1     -36.172 -11.930  13.523 -0.22 +0.00    +0.006 A  
DOCKED: ATOM      5  C   UNL     1     -34.978 -11.967  14.397 -0.16 +0.00    +0.169 C  
DOCKED: ATOM      6  C   UNL     1     -37.582 -10.315  12.414 -0.28 -0.00    -0.001 A  
DOCKED: ATOM      7  C   UNL     1     -36.936 -12.985  13.054 -0.35 +0.00    +0.008 A  
DOCKED: ATOM      8  C   UNL     1     -38.361 -11.368  11.930 -0.32 +0.00    +0.010 A  
DOCKED: ATOM      9  C   UNL     1     -38.039 -12.696  12.249 -0.31 +0.00    +0.068 A  
DOCKED: ATOM     10  N   UNL     1     -39.508 -14.627  11.338 -2.55 -0.00    -0.191 NA 
DOCKED: ATOM     11  C   UNL     1     -38.849 -13.761  11.746 -0.37 +0.00    +0.101 C  
DOCKED: ENDROOT
DOCKED: BRANCH   2  12
DOCKED: ATOM     12  C   UNL     1     -36.115  -8.827  14.948 -0.06 +0.00    +0.038 C  
DOCKED: BRANCH  12  13
DOCKED: ATOM     13  C   UNL     1     -37.377  -9.472  15.518 -0.05 +0.00    +0.038 C  
DOCKED: BRANCH  13  14
DOCKED: ATOM     14  C   UNL     1     -37.028 -10.606  16.480 -0.02 +0.00    +0.251 C  
DOCKED: BRANCH  14  15
DOCKED: ATOM     15  N   UNL     1     -38.177 -11.484  16.667 -0.03 +0.00    +0.141 N  
DOCKED: ATOM     16  C   UNL     1     -39.181 -11.248  15.629 -0.02 +0.00    +0.285 C  
DOCKED: ATOM     17  C   UNL     1     -37.761 -12.887  16.661 -0.09 +0.00    +0.285 C  
DOCKED: ENDBRANCH  14  15
DOCKED: ENDBRANCH  13  14
DOCKED: ENDBRANCH  12  13
DOCKED: ENDBRANCH   2  12
DOCKED: BRANCH   2  18
DOCKED: ATOM     18  C   UNL     1     -34.747  -8.857  12.870 -0.13 +0.00    +0.006 A  
DOCKED: ATOM     19  C   UNL     1     -33.354  -8.812  12.911 -0.11 +0.00    +0.001 A  
DOCKED: ATOM     20  C   UNL     1     -32.655  -8.031  11.989 -0.09 +0.00    +0.029 A  
DOCKED: ATOM     21  C   UNL     1     -33.350  -7.299  11.028 -0.08 +0.00    +0.140 A  
DOCKED: ATOM     22  C   UNL     1     -34.743  -7.345  10.987 -0.13 +0.00    +0.029 A  
DOCKED: ATOM     23  F   UNL     1     -32.679  -6.551  10.142 -0.00 -0.00    -0.204 F  
DOCKED: ATOM     24  C   UNL     1     -35.443  -8.125  11.909 -0.16 +0.00    +0.001 A  
DOCKED: ENDBRANCH   2  18
DOCKED: TORSDOF 5
DOCKED: TER
DOCKED: ENDMDL
________________________________________________________________________________


    FINAL DOCKED STATE:
    ________________________


Run:   141 / 512
Time taken for this run:   0.002s

DOCKED: MODEL        141
DOCKED: USER    Run = 141
DOCKED: USER
DOCKED: USER    Estimated Free Energy of Binding    =  -3.82 kcal/mol  [=(1)+(2)+(3)-(4)]
DOCKED: USER
DOCKED: USER    (1) Final Intermolecular Energy     =  -5.31 kcal/mol
DOCKED: USER        vdW + Hbond + desolv Energy     =  -5.31 kcal/mol
DOCKED: USER        Electrostatic Energy            =  +0.00 kcal/mol
DOCKED: USER        Moving Ligand-Fixed Receptor    =  -5.31 kcal/mol
DOCKED: USER        Moving Ligand-Moving Receptor   =  +0.00 kcal/mol
DOCKED: USER    (2) Final Total Internal Energy     =  -1.29 kcal/mol
DOCKED: USER    (3) Torsional Free Energy           =  +1.49 kcal/mol
DOCKED: USER    (4) Unbound System's Energy         =  -1.29 kcal/mol
DOCKED: USER
DOCKED: USER
DOCKED: REMARK  5 active torsions:
DOCKED: REMARK  status: ('A' for Active; 'I' for Inactive)
DOCKED: REMARK    1  A    between atoms: C_2  and  C_19 
DOCKED: REMARK    2  A    between atoms: C_2  and  C_11 
DOCKED: REMARK    3  A    between atoms: C_19  and  C_20 
DOCKED: REMARK    4  A    between atoms: C_20  and  C_21 
DOCKED: REMARK    5  A    between atoms: C_21  and  N_22 
DOCKED: USER                              x       y       z     vdW  Elec       q    Type
DOCKED: USER                           _______ _______ _______ _____ _____    ______ ____
DOCKED: ROOT
DOCKED: ATOM      1  O   UNL     1     -31.325  -4.929   3.767 +0.01 -0.00    -0.346 OA 
DOCKED: ATOM      2  C   UNL     1     -32.529  -5.128   4.575 -0.08 +0.00    +0.130 C  
DOCKED: ATOM      3  C   UNL     1     -33.557  -4.263   3.906 -0.19 +0.00    +0.004 A  
DOCKED: ATOM      4  C   UNL     1     -33.021  -3.707   2.753 -0.16 +0.00    +0.006 A  
DOCKED: ATOM      5  C   UNL     1     -31.626  -4.167   2.575 -0.05 +0.00    +0.169 C  
DOCKED: ATOM      6  C   UNL     1     -34.867  -4.000   4.281 -0.27 -0.00    -0.001 A  
DOCKED: ATOM      7  C   UNL     1     -33.768  -2.869   1.943 -0.23 +0.00    +0.008 A  
DOCKED: ATOM      8  C   UNL     1     -35.632  -3.154   3.476 -0.19 +0.00    +0.010 A  
DOCKED: ATOM      9  C   UNL     1     -35.085  -2.592   2.313 -0.13 +0.00    +0.068 A  
DOCKED: ATOM     10  N   UNL     1     -36.534  -1.029   0.839 -2.37 -0.00    -0.191 NA 
DOCKED: ATOM     11  C   UNL     1     -35.884  -1.729   1.500 -0.40 +0.00    +0.101 C  
DOCKED: ENDROOT
DOCKED: BRANCH   2  12
DOCKED: ATOM     12  C   UNL     1     -32.889  -6.608   4.548 -0.16 +0.00    +0.038 C  
DOCKED: BRANCH  12  13
DOCKED: ATOM     13  C   UNL     1     -31.639  -7.486   4.528 -0.09 +0.00    +0.038 C  
DOCKED: BRANCH  13  14
DOCKED: ATOM     14  C   UNL     1     -31.626  -8.395   3.301 -0.12 +0.00    +0.251 C  
DOCKED: BRANCH  14  15
DOCKED: ATOM     15  N   UNL     1     -32.431  -7.816   2.232 -0.18 +0.00    +0.141 N  
DOCKED: ATOM     16  C   UNL     1     -31.583  -7.106   1.274 -0.07 +0.00    +0.285 C  
DOCKED: ATOM     17  C   UNL     1     -33.207  -8.854   1.551 -0.20 +0.00    +0.285 C  
DOCKED: ENDBRANCH  14  15
DOCKED: ENDBRANCH  13  14
DOCKED: ENDBRANCH  12  13
DOCKED: ENDBRANCH   2  12
DOCKED: BRANCH   2  18
DOCKED: ATOM     18  C   UNL     1     -32.203  -4.678   5.960 -0.07 +0.00    +0.006 A  
DOCKED: ATOM     19  C   UNL     1     -31.053  -3.926   6.197 -0.05 +0.00    +0.001 A  
DOCKED: ATOM     20  C   UNL     1     -30.750  -3.506   7.492 -0.07 +0.00    +0.029 A  
DOCKED: ATOM     21  C   UNL     1     -31.597  -3.838   8.549 -0.07 +0.00    +0.140 A  
DOCKED: ATOM     22  C   UNL     1     -32.747  -4.590   8.312 -0.08 +0.00    +0.029 A  
DOCKED: ATOM     23  F   UNL     1     -31.306  -3.434   9.792 -0.02 -0.00    -0.204 F  
DOCKED: ATOM     24  C   UNL     1     -33.051  -5.011   7.016 -0.09 +0.00    +0.001 A  
DOCKED: ENDBRANCH   2  18
DOCKED: TORSDOF 5
DOCKED: TER
DOCKED: ENDMDL
________________________________________________________________________________


    FINAL DOCKED STATE:
    ________________________


Run:   142 / 512
Time taken for this run:   0.002s

DOCKED: MODEL        142
DOCKED: USER    Run = 142
DOCKED: USER
DOCKED: USER    Estimated Free Energy of Binding    =  -4.15 kcal/mol  [=(1)+(2)+(3)-(4)]
DOCKED: USER
DOCKED: USER    (1) Final Intermolecular Energy     =  -5.64 kcal/mol
DOCKED: USER        vdW + Hbond + desolv Energy     =  -5.64 kcal/mol
DOCKED: USER        Electrostatic Energy            =  +0.00 kcal/mol
DOCKED: USER        Moving Ligand-Fixed Receptor    =  -5.64 kcal/mol
DOCKED: USER        Moving Ligand-Moving Receptor   =  +0.00 kcal/mol
DOCKED: USER    (2) Final Total Internal Energy     =  -1.26 kcal/mol
DOCKED: USER    (3) Torsional Free Energy           =  +1.49 kcal/mol
DOCKED: USER    (4) Unbound System's Energy         =  -1.26 kcal/mol
DOCKED: USER
DOCKED: USER
DOCKED: REMARK  5 active torsions:
DOCKED: REMARK  status: ('A' for Active; 'I' for Inactive)
DOCKED: REMARK    1  A    between atoms: C_2  and  C_19 
DOCKED: REMARK    2  A    between atoms: C_2  and  C_11 
DOCKED: REMARK    3  A    between atoms: C_19  and  C_20 
DOCKED: REMARK    4  A    between atoms: C_20  and  C_21 
DOCKED: REMARK    5  A    between atoms: C_21  and  N_22 
DOCKED: USER                              x       y       z     vdW  Elec       q    Type
DOCKED: USER                           _______ _______ _______ _____ _____    ______ ____
DOCKED: ROOT
DOCKED: ATOM      1  O   UNL     1     -40.585  -8.254  13.588 -0.07 -0.00    -0.346 OA 
DOCKED: ATOM      2  C   UNL     1     -39.164  -8.304  13.241 -0.18 +0.00    +0.130 C  
DOCKED: ATOM      3  C   UNL     1     -38.950  -9.725  12.804 -0.23 +0.00    +0.004 A  
DOCKED: ATOM      4  C   UNL     1     -40.164 -10.398  12.795 -0.21 +0.00    +0.006 A  
DOCKED: ATOM      5  C   UNL     1     -41.250  -9.481  13.207 -0.18 +0.00    +0.169 C  
DOCKED: ATOM      6  C   UNL     1     -37.778 -10.366  12.433 -0.28 -0.00    -0.001 A  
DOCKED: ATOM      7  C   UNL     1     -40.247 -11.729  12.422 -0.24 +0.00    +0.008 A  
DOCKED: ATOM      8  C   UNL     1     -37.844 -11.709  12.059 -0.34 +0.00    +0.010 A  
DOCKED: ATOM      9  C   UNL     1     -39.073 -12.387  12.053 -0.27 +0.00    +0.068 A  
DOCKED: ATOM     10  N   UNL     1     -39.161 -14.878  11.347 -2.61 -0.00    -0.191 NA 
DOCKED: ATOM     11  C   UNL     1     -39.122 -13.761  11.664 -0.38 +0.00    +0.101 C  
DOCKED: ENDROOT
DOCKED: BRANCH   2  12
DOCKED: ATOM     12  C   UNL     1     -38.902  -7.296  12.129 -0.15 +0.00    +0.038 C  
DOCKED: BRANCH  12  13
DOCKED: ATOM     13  C   UNL     1     -39.967  -6.200  12.109 -0.21 +0.00    +0.038 C  
DOCKED: BRANCH  13  14
DOCKED: ATOM     14  C   UNL     1     -39.404  -4.878  12.629 -0.06 +0.00    +0.251 C  
DOCKED: BRANCH  14  15
DOCKED: ATOM     15  N   UNL     1     -40.471  -4.062  13.197 -0.03 +0.00    +0.141 N  
DOCKED: ATOM     16  C   UNL     1     -41.778  -4.670  12.942 -0.03 +0.00    +0.285 C  
DOCKED: ATOM     17  C   UNL     1     -40.269  -3.878  14.635 -0.00 +0.00    +0.285 C  
DOCKED: ENDBRANCH  14  15
DOCKED: ENDBRANCH  13  14
DOCKED: ENDBRANCH  12  13
DOCKED: ENDBRANCH   2  12
DOCKED: BRANCH   2  18
DOCKED: ATOM     18  C   UNL     1     -38.401  -7.955  14.476 -0.06 +0.00    +0.006 A  
DOCKED: ATOM     19  C   UNL     1     -39.063  -7.396  15.568 -0.02 +0.00    +0.001 A  
DOCKED: ATOM     20  C   UNL     1     -38.349  -7.070  16.722 -0.00 +0.00    +0.029 A  
DOCKED: ATOM     21  C   UNL     1     -36.976  -7.302  16.781 -0.00 +0.00    +0.140 A  
DOCKED: ATOM     22  C   UNL     1     -36.314  -7.861  15.687 -0.02 +0.00    +0.029 A  
DOCKED: ATOM     23  F   UNL     1     -36.291  -6.990  17.889 +0.00 -0.00    -0.204 F  
DOCKED: ATOM     24  C   UNL     1     -37.028  -8.187  14.533 -0.06 +0.00    +0.001 A  
DOCKED: ENDBRANCH   2  18
DOCKED: TORSDOF 5
DOCKED: TER
DOCKED: ENDMDL
________________________________________________________________________________


    FINAL DOCKED STATE:
    ________________________


Run:   143 / 512
Time taken for this run:   0.002s

DOCKED: MODEL        143
DOCKED: USER    Run = 143
DOCKED: USER
DOCKED: USER    Estimated Free Energy of Binding    =  -4.12 kcal/mol  [=(1)+(2)+(3)-(4)]
DOCKED: USER
DOCKED: USER    (1) Final Intermolecular Energy     =  -5.61 kcal/mol
DOCKED: USER        vdW + Hbond + desolv Energy     =  -5.61 kcal/mol
DOCKED: USER        Electrostatic Energy            =  +0.00 kcal/mol
DOCKED: USER        Moving Ligand-Fixed Receptor    =  -5.61 kcal/mol
DOCKED: USER        Moving Ligand-Moving Receptor   =  +0.00 kcal/mol
DOCKED: USER    (2) Final Total Internal Energy     =  -1.14 kcal/mol
DOCKED: USER    (3) Torsional Free Energy           =  +1.49 kcal/mol
DOCKED: USER    (4) Unbound System's Energy         =  -1.14 kcal/mol
DOCKED: USER
DOCKED: USER
DOCKED: REMARK  5 active torsions:
DOCKED: REMARK  status: ('A' for Active; 'I' for Inactive)
DOCKED: REMARK    1  A    between atoms: C_2  and  C_19 
DOCKED: REMARK    2  A    between atoms: C_2  and  C_11 
DOCKED: REMARK    3  A    between atoms: C_19  and  C_20 
DOCKED: REMARK    4  A    between atoms: C_20  and  C_21 
DOCKED: REMARK    5  A    between atoms: C_21  and  N_22 
DOCKED: USER                              x       y       z     vdW  Elec       q    Type
DOCKED: USER                           _______ _______ _______ _____ _____    ______ ____
DOCKED: ROOT
DOCKED: ATOM      1  O   UNL     1     -34.599 -10.580  14.592 -0.08 -0.00    -0.346 OA 
DOCKED: ATOM      2  C   UNL     1     -35.690  -9.689  14.193 -0.12 +0.00    +0.130 C  
DOCKED: ATOM      3  C   UNL     1     -36.663 -10.600  13.503 -0.21 +0.00    +0.004 A  
DOCKED: ATOM      4  C   UNL     1     -36.221 -11.912  13.595 -0.24 +0.00    +0.006 A  
DOCKED: ATOM      5  C   UNL     1     -34.951 -11.962  14.353 -0.16 +0.00    +0.169 C  
DOCKED: ATOM      6  C   UNL     1     -37.851 -10.294  12.854 -0.26 -0.00    -0.001 A  
DOCKED: ATOM      7  C   UNL     1     -36.943 -12.957  13.044 -0.35 +0.00    +0.008 A  
DOCKED: ATOM      8  C   UNL     1     -38.588 -11.335  12.289 -0.30 +0.00    +0.010 A  
DOCKED: ATOM      9  C   UNL     1     -38.137 -12.660  12.383 -0.30 +0.00    +0.068 A  
DOCKED: ATOM     10  N   UNL     1     -39.532 -14.570  11.327 -2.54 -0.00    -0.191 NA 
DOCKED: ATOM     11  C   UNL     1     -38.906 -13.713  11.800 -0.36 +0.00    +0.101 C  
DOCKED: ENDROOT
DOCKED: BRANCH   2  12
DOCKED: ATOM     12  C   UNL     1     -36.268  -9.043  15.447 -0.04 +0.00    +0.038 C  
DOCKED: BRANCH  12  13
DOCKED: ATOM     13  C   UNL     1     -37.060 -10.051  16.277 -0.04 +0.00    +0.038 C  
DOCKED: BRANCH  13  14
DOCKED: ATOM     14  C   UNL     1     -37.102  -9.639  17.748 -0.00 +0.00    +0.251 C  
DOCKED: BRANCH  14  15
DOCKED: ATOM     15  N   UNL     1     -36.482 -10.663  18.580 -0.01 +0.00    +0.141 N  
DOCKED: ATOM     16  C   UNL     1     -37.254 -10.868  19.807 -0.00 +0.00    +0.285 C  
DOCKED: ATOM     17  C   UNL     1     -36.358 -11.921  17.842 -0.04 +0.00    +0.285 C  
DOCKED: ENDBRANCH  14  15
DOCKED: ENDBRANCH  13  14
DOCKED: ENDBRANCH  12  13
DOCKED: ENDBRANCH   2  12
DOCKED: BRANCH   2  18
DOCKED: ATOM     18  C   UNL     1     -35.105  -8.664  13.280 -0.13 +0.00    +0.006 A  
DOCKED: ATOM     19  C   UNL     1     -33.869  -8.893  12.676 -0.08 +0.00    +0.001 A  
DOCKED: ATOM     20  C   UNL     1     -33.323  -7.933  11.822 -0.10 +0.00    +0.029 A  
DOCKED: ATOM     21  C   UNL     1     -34.013  -6.748  11.575 -0.06 +0.00    +0.140 A  
DOCKED: ATOM     22  C   UNL     1     -35.249  -6.519  12.179 -0.08 +0.00    +0.029 A  
DOCKED: ATOM     23  F   UNL     1     -33.489  -5.827  10.754 -0.00 -0.00    -0.204 F  
DOCKED: ATOM     24  C   UNL     1     -35.795  -7.478  13.034 -0.11 +0.00    +0.001 A  
DOCKED: ENDBRANCH   2  18
DOCKED: TORSDOF 5
DOCKED: TER
DOCKED: ENDMDL
________________________________________________________________________________


    FINAL DOCKED STATE:
    ________________________


Run:   144 / 512
Time taken for this run:   0.002s

DOCKED: MODEL        144
DOCKED: USER    Run = 144
DOCKED: USER
DOCKED: USER    Estimated Free Energy of Binding    =  -5.08 kcal/mol  [=(1)+(2)+(3)-(4)]
DOCKED: USER
DOCKED: USER    (1) Final Intermolecular Energy     =  -6.57 kcal/mol
DOCKED: USER        vdW + Hbond + desolv Energy     =  -6.57 kcal/mol
DOCKED: USER        Electrostatic Energy            =  +0.00 kcal/mol
DOCKED: USER        Moving Ligand-Fixed Receptor    =  -6.57 kcal/mol
DOCKED: USER        Moving Ligand-Moving Receptor   =  +0.00 kcal/mol
DOCKED: USER    (2) Final Total Internal Energy     =  -1.11 kcal/mol
DOCKED: USER    (3) Torsional Free Energy           =  +1.49 kcal/mol
DOCKED: USER    (4) Unbound System's Energy         =  -1.11 kcal/mol
DOCKED: USER
DOCKED: USER
DOCKED: REMARK  5 active torsions:
DOCKED: REMARK  status: ('A' for Active; 'I' for Inactive)
DOCKED: REMARK    1  A    between atoms: C_2  and  C_19 
DOCKED: REMARK    2  A    between atoms: C_2  and  C_11 
DOCKED: REMARK    3  A    between atoms: C_19  and  C_20 
DOCKED: REMARK    4  A    between atoms: C_20  and  C_21 
DOCKED: REMARK    5  A    between atoms: C_21  and  N_22 
DOCKED: USER                              x       y       z     vdW  Elec       q    Type
DOCKED: USER                           _______ _______ _______ _____ _____    ______ ____
DOCKED: ROOT
DOCKED: ATOM      1  O   UNL     1     -40.603 -12.002  14.809 +0.00 -0.00    -0.346 OA 
DOCKED: ATOM      2  C   UNL     1     -39.252 -11.546  14.478 -0.09 +0.00    +0.130 C  
DOCKED: ATOM      3  C   UNL     1     -39.107 -11.880  13.021 -0.22 +0.00    +0.004 A  
DOCKED: ATOM      4  C   UNL     1     -40.307 -12.380  12.535 -0.25 +0.00    +0.006 A  
DOCKED: ATOM      5  C   UNL     1     -41.318 -12.399  13.616 -0.14 +0.00    +0.169 C  
DOCKED: ATOM      6  C   UNL     1     -38.005 -11.742  12.190 -0.34 -0.00    -0.001 A  
DOCKED: ATOM      7  C   UNL     1     -40.446 -12.760  11.211 -0.33 +0.00    +0.008 A  
DOCKED: ATOM      8  C   UNL     1     -38.128 -12.125  10.853 -0.26 +0.00    +0.010 A  
DOCKED: ATOM      9  C   UNL     1     -39.342 -12.631  10.366 -0.34 +0.00    +0.068 A  
DOCKED: ATOM     10  N   UNL     1     -39.537 -13.329   7.879 -2.67 -0.00    -0.191 NA 
DOCKED: ATOM     11  C   UNL     1     -39.450 -13.017   8.995 -0.34 +0.00    +0.101 C  
DOCKED: ENDROOT
DOCKED: BRANCH   2  12
DOCKED: ATOM     12  C   UNL     1     -39.165 -10.050  14.755 -0.08 +0.00    +0.038 C  
DOCKED: BRANCH  12  13
DOCKED: ATOM     13  C   UNL     1     -39.482  -9.233  13.505 -0.20 +0.00    +0.038 C  
DOCKED: BRANCH  13  14
DOCKED: ATOM     14  C   UNL     1     -40.971  -8.897  13.430 -0.14 +0.00    +0.251 C  
DOCKED: BRANCH  14  15
DOCKED: ATOM     15  N   UNL     1     -41.158  -7.499  13.063 -0.17 +0.00    +0.141 N  
DOCKED: ATOM     16  C   UNL     1     -40.143  -7.078  12.096 -0.04 +0.00    +0.285 C  
DOCKED: ATOM     17  C   UNL     1     -42.499  -7.284  12.517 -0.13 +0.00    +0.285 C  
DOCKED: ENDBRANCH  14  15
DOCKED: ENDBRANCH  13  14
DOCKED: ENDBRANCH  12  13
DOCKED: ENDBRANCH   2  12
DOCKED: BRANCH   2  18
DOCKED: ATOM     18  C   UNL     1     -38.309 -12.311  15.346 -0.12 +0.00    +0.006 A  
DOCKED: ATOM     19  C   UNL     1     -37.044 -11.795  15.623 -0.12 +0.00    +0.001 A  
DOCKED: ATOM     20  C   UNL     1     -36.163 -12.511  16.434 -0.12 +0.00    +0.029 A  
DOCKED: ATOM     21  C   UNL     1     -36.548 -13.740  16.968 -0.07 +0.00    +0.140 A  
DOCKED: ATOM     22  C   UNL     1     -37.814 -14.255  16.691 -0.15 +0.00    +0.029 A  
DOCKED: ATOM     23  F   UNL     1     -35.703 -14.426  17.748 -0.05 -0.00    -0.204 F  
DOCKED: ATOM     24  C   UNL     1     -38.696 -13.540  15.878 -0.20 +0.00    +0.001 A  
DOCKED: ENDBRANCH   2  18
DOCKED: TORSDOF 5
DOCKED: TER
DOCKED: ENDMDL
________________________________________________________________________________


    FINAL DOCKED STATE:
    ________________________


Run:   145 / 512
Time taken for this run:   0.002s

DOCKED: MODEL        145
DOCKED: USER    Run = 145
DOCKED: USER
DOCKED: USER    Estimated Free Energy of Binding    =  -4.14 kcal/mol  [=(1)+(2)+(3)-(4)]
DOCKED: USER
DOCKED: USER    (1) Final Intermolecular Energy     =  -5.63 kcal/mol
DOCKED: USER        vdW + Hbond + desolv Energy     =  -5.63 kcal/mol
DOCKED: USER        Electrostatic Energy            =  +0.00 kcal/mol
DOCKED: USER        Moving Ligand-Fixed Receptor    =  -5.63 kcal/mol
DOCKED: USER        Moving Ligand-Moving Receptor   =  +0.00 kcal/mol
DOCKED: USER    (2) Final Total Internal Energy     =  -1.36 kcal/mol
DOCKED: USER    (3) Torsional Free Energy           =  +1.49 kcal/mol
DOCKED: USER    (4) Unbound System's Energy         =  -1.36 kcal/mol
DOCKED: USER
DOCKED: USER
DOCKED: REMARK  5 active torsions:
DOCKED: REMARK  status: ('A' for Active; 'I' for Inactive)
DOCKED: REMARK    1  A    between atoms: C_2  and  C_19 
DOCKED: REMARK    2  A    between atoms: C_2  and  C_11 
DOCKED: REMARK    3  A    between atoms: C_19  and  C_20 
DOCKED: REMARK    4  A    between atoms: C_20  and  C_21 
DOCKED: REMARK    5  A    between atoms: C_21  and  N_22 
DOCKED: USER                              x       y       z     vdW  Elec       q    Type
DOCKED: USER                           _______ _______ _______ _____ _____    ______ ____
DOCKED: ROOT
DOCKED: ATOM      1  O   UNL     1     -34.610 -10.851  14.950 -0.07 -0.00    -0.346 OA 
DOCKED: ATOM      2  C   UNL     1     -35.382  -9.894  14.155 -0.12 +0.00    +0.130 C  
DOCKED: ATOM      3  C   UNL     1     -36.371 -10.752  13.421 -0.19 +0.00    +0.004 A  
DOCKED: ATOM      4  C   UNL     1     -36.251 -12.069  13.842 -0.25 +0.00    +0.006 A  
DOCKED: ATOM      5  C   UNL     1     -35.198 -12.170  14.878 -0.08 +0.00    +0.169 C  
DOCKED: ATOM      6  C   UNL     1     -37.311 -10.394  12.466 -0.28 -0.00    -0.001 A  
DOCKED: ATOM      7  C   UNL     1     -37.057 -13.068  13.324 -0.34 +0.00    +0.008 A  
DOCKED: ATOM      8  C   UNL     1     -38.128 -11.391  11.930 -0.33 +0.00    +0.010 A  
DOCKED: ATOM      9  C   UNL     1     -38.002 -12.721  12.357 -0.31 +0.00    +0.068 A  
DOCKED: ATOM     10  N   UNL     1     -39.538 -14.546  11.346 -2.56 -0.00    -0.191 NA 
DOCKED: ATOM     11  C   UNL     1     -38.848 -13.728  11.799 -0.36 +0.00    +0.101 C  
DOCKED: ENDROOT
DOCKED: BRANCH   2  12
DOCKED: ATOM     12  C   UNL     1     -36.045  -8.902  15.103 -0.05 +0.00    +0.038 C  
DOCKED: BRANCH  12  13
DOCKED: ATOM     13  C   UNL     1     -35.893  -9.337  16.560 -0.02 +0.00    +0.038 C  
DOCKED: BRANCH  13  14
DOCKED: ATOM     14  C   UNL     1     -35.072  -8.322  17.353 -0.00 +0.00    +0.251 C  
DOCKED: BRANCH  14  15
DOCKED: ATOM     15  N   UNL     1     -33.676  -8.359  16.932 -0.00 +0.00    +0.141 N  
DOCKED: ATOM     16  C   UNL     1     -32.939  -7.224  17.490 -0.00 +0.00    +0.285 C  
DOCKED: ATOM     17  C   UNL     1     -33.049  -9.619  17.336 -0.01 +0.00    +0.285 C  
DOCKED: ENDBRANCH  14  15
DOCKED: ENDBRANCH  13  14
DOCKED: ENDBRANCH  12  13
DOCKED: ENDBRANCH   2  12
DOCKED: BRANCH   2  18
DOCKED: ATOM     18  C   UNL     1     -34.420  -9.207  13.244 -0.10 +0.00    +0.006 A  
DOCKED: ATOM     19  C   UNL     1     -34.884  -8.287  12.305 -0.15 +0.00    +0.001 A  
DOCKED: ATOM     20  C   UNL     1     -33.984  -7.646  11.454 -0.12 +0.00    +0.029 A  
DOCKED: ATOM     21  C   UNL     1     -32.621  -7.925  11.543 -0.07 +0.00    +0.140 A  
DOCKED: ATOM     22  C   UNL     1     -32.156  -8.846  12.482 -0.09 +0.00    +0.029 A  
DOCKED: ATOM     23  F   UNL     1     -31.756  -7.309  10.727 -0.00 -0.00    -0.204 F  
DOCKED: ATOM     24  C   UNL     1     -33.057  -9.488  13.334 -0.09 +0.00    +0.001 A  
DOCKED: ENDBRANCH   2  18
DOCKED: TORSDOF 5
DOCKED: TER
DOCKED: ENDMDL
________________________________________________________________________________


    FINAL DOCKED STATE:
    ________________________


Run:   146 / 512
Time taken for this run:   0.002s

DOCKED: MODEL        146
DOCKED: USER    Run = 146
DOCKED: USER
DOCKED: USER    Estimated Free Energy of Binding    =  -5.56 kcal/mol  [=(1)+(2)+(3)-(4)]
DOCKED: USER
DOCKED: USER    (1) Final Intermolecular Energy     =  -7.05 kcal/mol
DOCKED: USER        vdW + Hbond + desolv Energy     =  -7.05 kcal/mol
DOCKED: USER        Electrostatic Energy            =  +0.00 kcal/mol
DOCKED: USER        Moving Ligand-Fixed Receptor    =  -7.05 kcal/mol
DOCKED: USER        Moving Ligand-Moving Receptor   =  +0.00 kcal/mol
DOCKED: USER    (2) Final Total Internal Energy     =  -1.46 kcal/mol
DOCKED: USER    (3) Torsional Free Energy           =  +1.49 kcal/mol
DOCKED: USER    (4) Unbound System's Energy         =  -1.46 kcal/mol
DOCKED: USER
DOCKED: USER
DOCKED: REMARK  5 active torsions:
DOCKED: REMARK  status: ('A' for Active; 'I' for Inactive)
DOCKED: REMARK    1  A    between atoms: C_2  and  C_19 
DOCKED: REMARK    2  A    between atoms: C_2  and  C_11 
DOCKED: REMARK    3  A    between atoms: C_19  and  C_20 
DOCKED: REMARK    4  A    between atoms: C_20  and  C_21 
DOCKED: REMARK    5  A    between atoms: C_21  and  N_22 
DOCKED: USER                              x       y       z     vdW  Elec       q    Type
DOCKED: USER                           _______ _______ _______ _____ _____    ______ ____
DOCKED: ROOT
DOCKED: ATOM      1  O   UNL     1     -37.094 -10.510  13.614 -0.07 -0.00    -0.346 OA 
DOCKED: ATOM      2  C   UNL     1     -37.094 -11.965  13.769 -0.22 +0.00    +0.130 C  
DOCKED: ATOM      3  C   UNL     1     -37.674 -12.464  12.478 -0.34 +0.00    +0.004 A  
DOCKED: ATOM      4  C   UNL     1     -37.885 -11.396  11.617 -0.29 +0.00    +0.006 A  
DOCKED: ATOM      5  C   UNL     1     -37.453 -10.137  12.264 -0.21 +0.00    +0.169 C  
DOCKED: ATOM      6  C   UNL     1     -37.981 -13.761  12.092 -0.38 -0.00    -0.001 A  
DOCKED: ATOM      7  C   UNL     1     -38.410 -11.585  10.350 +0.10 +0.00    +0.008 A  
DOCKED: ATOM      8  C   UNL     1     -38.515 -13.967  10.819 -0.50 +0.00    +0.010 A  
DOCKED: ATOM      9  C   UNL     1     -38.728 -12.884   9.952 -0.43 +0.00    +0.068 A  
DOCKED: ATOM     10  N   UNL     1     -39.717 -13.302   7.594 -3.05 -0.00    -0.191 NA 
DOCKED: ATOM     11  C   UNL     1     -39.274 -13.115   8.652 -0.36 +0.00    +0.101 C  
DOCKED: ENDROOT
DOCKED: BRANCH   2  12
DOCKED: ATOM     12  C   UNL     1     -35.658 -12.426  13.992 -0.23 +0.00    +0.038 C  
DOCKED: BRANCH  12  13
DOCKED: ATOM     13  C   UNL     1     -34.768 -11.274  14.452 -0.20 +0.00    +0.038 C  
DOCKED: BRANCH  13  14
DOCKED: ATOM     14  C   UNL     1     -34.061 -11.614  15.762 -0.09 +0.00    +0.251 C  
DOCKED: BRANCH  14  15
DOCKED: ATOM     15  N   UNL     1     -34.755 -10.998  16.887 -0.04 +0.00    +0.141 N  
DOCKED: ATOM     16  C   UNL     1     -35.531  -9.840  16.443 -0.01 +0.00    +0.285 C  
DOCKED: ATOM     17  C   UNL     1     -35.626 -11.969  17.550 -0.05 +0.00    +0.285 C  
DOCKED: ENDBRANCH  14  15
DOCKED: ENDBRANCH  13  14
DOCKED: ENDBRANCH  12  13
DOCKED: ENDBRANCH   2  12
DOCKED: BRANCH   2  18
DOCKED: ATOM     18  C   UNL     1     -37.950 -12.278  14.951 -0.14 +0.00    +0.006 A  
DOCKED: ATOM     19  C   UNL     1     -37.974 -13.572  15.470 -0.24 +0.00    +0.001 A  
DOCKED: ATOM     20  C   UNL     1     -38.775 -13.863  16.575 -0.13 +0.00    +0.029 A  
DOCKED: ATOM     21  C   UNL     1     -39.549 -12.862  17.159 -0.06 +0.00    +0.140 A  
DOCKED: ATOM     22  C   UNL     1     -39.523 -11.568  16.640 -0.04 +0.00    +0.029 A  
DOCKED: ATOM     23  F   UNL     1     -40.316 -13.141  18.221 +0.00 -0.00    -0.204 F  
DOCKED: ATOM     24  C   UNL     1     -38.723 -11.275  15.534 -0.07 +0.00    +0.001 A  
DOCKED: ENDBRANCH   2  18
DOCKED: TORSDOF 5
DOCKED: TER
DOCKED: ENDMDL
________________________________________________________________________________


    FINAL DOCKED STATE:
    ________________________


Run:   147 / 512
Time taken for this run:   0.002s

DOCKED: MODEL        147
DOCKED: USER    Run = 147
DOCKED: USER
DOCKED: USER    Estimated Free Energy of Binding    =  -3.47 kcal/mol  [=(1)+(2)+(3)-(4)]
DOCKED: USER
DOCKED: USER    (1) Final Intermolecular Energy     =  -4.97 kcal/mol
DOCKED: USER        vdW + Hbond + desolv Energy     =  -4.97 kcal/mol
DOCKED: USER        Electrostatic Energy            =  +0.00 kcal/mol
DOCKED: USER        Moving Ligand-Fixed Receptor    =  -4.97 kcal/mol
DOCKED: USER        Moving Ligand-Moving Receptor   =  +0.00 kcal/mol
DOCKED: USER    (2) Final Total Internal Energy     =  -1.36 kcal/mol
DOCKED: USER    (3) Torsional Free Energy           =  +1.49 kcal/mol
DOCKED: USER    (4) Unbound System's Energy         =  -1.36 kcal/mol
DOCKED: USER
DOCKED: USER
DOCKED: REMARK  5 active torsions:
DOCKED: REMARK  status: ('A' for Active; 'I' for Inactive)
DOCKED: REMARK    1  A    between atoms: C_2  and  C_19 
DOCKED: REMARK    2  A    between atoms: C_2  and  C_11 
DOCKED: REMARK    3  A    between atoms: C_19  and  C_20 
DOCKED: REMARK    4  A    between atoms: C_20  and  C_21 
DOCKED: REMARK    5  A    between atoms: C_21  and  N_22 
DOCKED: USER                              x       y       z     vdW  Elec       q    Type
DOCKED: USER                           _______ _______ _______ _____ _____    ______ ____
DOCKED: ROOT
DOCKED: ATOM      1  O   UNL     1     -31.178   0.100   3.607 -0.06 -0.00    -0.346 OA 
DOCKED: ATOM      2  C   UNL     1     -31.080  -0.326   2.210 -0.09 +0.00    +0.130 C  
DOCKED: ATOM      3  C   UNL     1     -32.467  -0.795   1.879 -0.18 +0.00    +0.004 A  
DOCKED: ATOM      4  C   UNL     1     -33.310  -0.555   2.955 -0.21 +0.00    +0.006 A  
DOCKED: ATOM      5  C   UNL     1     -32.554   0.091   4.052 -0.21 +0.00    +0.169 C  
DOCKED: ATOM      6  C   UNL     1     -32.947  -1.377   0.715 -0.22 -0.00    -0.001 A  
DOCKED: ATOM      7  C   UNL     1     -34.652  -0.890   2.908 -0.32 +0.00    +0.008 A  
DOCKED: ATOM      8  C   UNL     1     -34.297  -1.725   0.653 -0.35 +0.00    +0.010 A  
DOCKED: ATOM      9  C   UNL     1     -35.146  -1.482   1.744 -0.40 +0.00    +0.068 A  
DOCKED: ATOM     10  N   UNL     1     -37.649  -2.135   1.593 -2.49 -0.00    -0.191 NA 
DOCKED: ATOM     11  C   UNL     1     -36.526  -1.843   1.661 -0.13 +0.00    +0.101 C  
DOCKED: ENDROOT
DOCKED: BRANCH   2  12
DOCKED: ATOM     12  C   UNL     1     -30.641   0.868   1.371 -0.09 +0.00    +0.038 C  
DOCKED: BRANCH  12  13
DOCKED: ATOM     13  C   UNL     1     -29.120   1.007   1.352 -0.07 +0.00    +0.038 C  
DOCKED: BRANCH  13  14
DOCKED: ATOM     14  C   UNL     1     -28.617   1.705   2.615 -0.01 +0.00    +0.251 C  
DOCKED: BRANCH  14  15
DOCKED: ATOM     15  N   UNL     1     -29.626   2.628   3.120 -0.04 +0.00    +0.141 N  
DOCKED: ATOM     16  C   UNL     1     -29.686   2.578   4.582 -0.01 +0.00    +0.285 C  
DOCKED: ATOM     17  C   UNL     1     -29.347   3.993   2.671 -0.02 +0.00    +0.285 C  
DOCKED: ENDBRANCH  14  15
DOCKED: ENDBRANCH  13  14
DOCKED: ENDBRANCH  12  13
DOCKED: ENDBRANCH   2  12
DOCKED: BRANCH   2  18
DOCKED: ATOM     18  C   UNL     1     -30.068  -1.421   2.158 -0.03 +0.00    +0.006 A  
DOCKED: ATOM     19  C   UNL     1     -29.331  -1.744   3.298 -0.02 +0.00    +0.001 A  
DOCKED: ATOM     20  C   UNL     1     -28.384  -2.768   3.248 -0.00 +0.00    +0.029 A  
DOCKED: ATOM     21  C   UNL     1     -28.177  -3.468   2.060 -0.00 +0.00    +0.140 A  
DOCKED: ATOM     22  C   UNL     1     -28.914  -3.146   0.921 -0.00 +0.00    +0.029 A  
DOCKED: ATOM     23  F   UNL     1     -27.270  -4.453   2.013 +0.00 -0.00    -0.204 F  
DOCKED: ATOM     24  C   UNL     1     -29.861  -2.121   0.970 -0.02 +0.00    +0.001 A  
DOCKED: ENDBRANCH   2  18
DOCKED: TORSDOF 5
DOCKED: TER
DOCKED: ENDMDL
________________________________________________________________________________


    FINAL DOCKED STATE:
    ________________________


Run:   148 / 512
Time taken for this run:   0.002s

DOCKED: MODEL        148
DOCKED: USER    Run = 148
DOCKED: USER
DOCKED: USER    Estimated Free Energy of Binding    =  -3.54 kcal/mol  [=(1)+(2)+(3)-(4)]
DOCKED: USER
DOCKED: USER    (1) Final Intermolecular Energy     =  -5.03 kcal/mol
DOCKED: USER        vdW + Hbond + desolv Energy     =  -5.03 kcal/mol
DOCKED: USER        Electrostatic Energy            =  +0.00 kcal/mol
DOCKED: USER        Moving Ligand-Fixed Receptor    =  -5.03 kcal/mol
DOCKED: USER        Moving Ligand-Moving Receptor   =  +0.00 kcal/mol
DOCKED: USER    (2) Final Total Internal Energy     =  -1.33 kcal/mol
DOCKED: USER    (3) Torsional Free Energy           =  +1.49 kcal/mol
DOCKED: USER    (4) Unbound System's Energy         =  -1.33 kcal/mol
DOCKED: USER
DOCKED: USER
DOCKED: REMARK  5 active torsions:
DOCKED: REMARK  status: ('A' for Active; 'I' for Inactive)
DOCKED: REMARK    1  A    between atoms: C_2  and  C_19 
DOCKED: REMARK    2  A    between atoms: C_2  and  C_11 
DOCKED: REMARK    3  A    between atoms: C_19  and  C_20 
DOCKED: REMARK    4  A    between atoms: C_20  and  C_21 
DOCKED: REMARK    5  A    between atoms: C_21  and  N_22 
DOCKED: USER                              x       y       z     vdW  Elec       q    Type
DOCKED: USER                           _______ _______ _______ _____ _____    ______ ____
DOCKED: ROOT
DOCKED: ATOM      1  O   UNL     1     -36.640  -9.595  15.359 -0.01 -0.00    -0.346 OA 
DOCKED: ATOM      2  C   UNL     1     -37.588  -9.004  14.413 -0.07 +0.00    +0.130 C  
DOCKED: ATOM      3  C   UNL     1     -38.048 -10.170  13.588 -0.17 +0.00    +0.004 A  
DOCKED: ATOM      4  C   UNL     1     -37.497 -11.342  14.087 -0.17 +0.00    +0.006 A  
DOCKED: ATOM      5  C   UNL     1     -36.658 -11.039  15.268 -0.09 +0.00    +0.169 C  
DOCKED: ATOM      6  C   UNL     1     -38.895 -10.194  12.489 -0.25 -0.00    -0.001 A  
DOCKED: ATOM      7  C   UNL     1     -37.769 -12.570  13.508 -0.27 +0.00    +0.008 A  
DOCKED: ATOM      8  C   UNL     1     -39.175 -11.424  11.891 -0.23 +0.00    +0.010 A  
DOCKED: ATOM      9  C   UNL     1     -38.615 -12.606  12.399 -0.27 +0.00    +0.068 A  
DOCKED: ATOM     10  N   UNL     1     -39.159 -14.872  11.268 -2.56 -0.00    -0.191 NA 
DOCKED: ATOM     11  C   UNL     1     -38.914 -13.856  11.775 -0.30 +0.00    +0.101 C  
DOCKED: ENDROOT
DOCKED: BRANCH   2  12
DOCKED: ATOM     12  C   UNL     1     -38.717  -8.355  15.204 -0.04 +0.00    +0.038 C  
DOCKED: BRANCH  12  13
DOCKED: ATOM     13  C   UNL     1     -39.047  -9.155  16.463 -0.02 +0.00    +0.038 C  
DOCKED: BRANCH  13  14
DOCKED: ATOM     14  C   UNL     1     -40.555  -9.351  16.610 -0.00 +0.00    +0.251 C  
DOCKED: BRANCH  14  15
DOCKED: ATOM     15  N   UNL     1     -41.149  -9.693  15.323 -0.03 +0.00    +0.141 N  
DOCKED: ATOM     16  C   UNL     1     -41.440 -11.125  15.253 -0.01 +0.00    +0.285 C  
DOCKED: ATOM     17  C   UNL     1     -42.369  -8.916  15.097 -0.01 +0.00    +0.285 C  
DOCKED: ENDBRANCH  14  15
DOCKED: ENDBRANCH  13  14
DOCKED: ENDBRANCH  12  13
DOCKED: ENDBRANCH   2  12
DOCKED: BRANCH   2  18
DOCKED: ATOM     18  C   UNL     1     -36.835  -7.989  13.618 -0.10 +0.00    +0.006 A  
DOCKED: ATOM     19  C   UNL     1     -36.679  -6.694  14.111 -0.04 +0.00    +0.001 A  
DOCKED: ATOM     20  C   UNL     1     -35.975  -5.747  13.366 -0.03 +0.00    +0.029 A  
DOCKED: ATOM     21  C   UNL     1     -35.429  -6.095  12.132 -0.06 +0.00    +0.140 A  
DOCKED: ATOM     22  C   UNL     1     -35.585  -7.391  11.640 -0.11 +0.00    +0.029 A  
DOCKED: ATOM     23  F   UNL     1     -34.752  -5.186  11.419 -0.00 -0.00    -0.204 F  
DOCKED: ATOM     24  C   UNL     1     -36.289  -8.339  12.384 -0.17 +0.00    +0.001 A  
DOCKED: ENDBRANCH   2  18
DOCKED: TORSDOF 5
DOCKED: TER
DOCKED: ENDMDL
________________________________________________________________________________


    FINAL DOCKED STATE:
    ________________________


Run:   149 / 512
Time taken for this run:   0.002s

DOCKED: MODEL        149
DOCKED: USER    Run = 149
DOCKED: USER
DOCKED: USER    Estimated Free Energy of Binding    =  -4.20 kcal/mol  [=(1)+(2)+(3)-(4)]
DOCKED: USER
DOCKED: USER    (1) Final Intermolecular Energy     =  -5.69 kcal/mol
DOCKED: USER        vdW + Hbond + desolv Energy     =  -5.69 kcal/mol
DOCKED: USER        Electrostatic Energy            =  +0.00 kcal/mol
DOCKED: USER        Moving Ligand-Fixed Receptor    =  -5.69 kcal/mol
DOCKED: USER        Moving Ligand-Moving Receptor   =  +0.00 kcal/mol
DOCKED: USER    (2) Final Total Internal Energy     =  -1.25 kcal/mol
DOCKED: USER    (3) Torsional Free Energy           =  +1.49 kcal/mol
DOCKED: USER    (4) Unbound System's Energy         =  -1.25 kcal/mol
DOCKED: USER
DOCKED: USER
DOCKED: REMARK  5 active torsions:
DOCKED: REMARK  status: ('A' for Active; 'I' for Inactive)
DOCKED: REMARK    1  A    between atoms: C_2  and  C_19 
DOCKED: REMARK    2  A    between atoms: C_2  and  C_11 
DOCKED: REMARK    3  A    between atoms: C_19  and  C_20 
DOCKED: REMARK    4  A    between atoms: C_20  and  C_21 
DOCKED: REMARK    5  A    between atoms: C_21  and  N_22 
DOCKED: USER                              x       y       z     vdW  Elec       q    Type
DOCKED: USER                           _______ _______ _______ _____ _____    ______ ____
DOCKED: ROOT
DOCKED: ATOM      1  O   UNL     1     -34.765 -10.820  15.104 -0.06 -0.00    -0.346 OA 
DOCKED: ATOM      2  C   UNL     1     -35.462  -9.882  14.222 -0.12 +0.00    +0.130 C  
DOCKED: ATOM      3  C   UNL     1     -36.423 -10.750  13.462 -0.20 +0.00    +0.004 A  
DOCKED: ATOM      4  C   UNL     1     -36.359 -12.050  13.943 -0.25 +0.00    +0.006 A  
DOCKED: ATOM      5  C   UNL     1     -35.377 -12.130  15.047 -0.10 +0.00    +0.169 C  
DOCKED: ATOM      6  C   UNL     1     -37.291 -10.414  12.434 -0.28 -0.00    -0.001 A  
DOCKED: ATOM      7  C   UNL     1     -37.153 -13.054  13.414 -0.33 +0.00    +0.008 A  
DOCKED: ATOM      8  C   UNL     1     -38.095 -11.415  11.887 -0.34 +0.00    +0.010 A  
DOCKED: ATOM      9  C   UNL     1     -38.026 -12.729  12.376 -0.31 +0.00    +0.068 A  
DOCKED: ATOM     10  N   UNL     1     -39.536 -14.563  11.342 -2.56 -0.00    -0.191 NA 
DOCKED: ATOM     11  C   UNL     1     -38.859 -13.741  11.805 -0.36 +0.00    +0.101 C  
DOCKED: ENDROOT
DOCKED: BRANCH   2  12
DOCKED: ATOM     12  C   UNL     1     -36.161  -8.838  15.085 -0.05 +0.00    +0.038 C  
DOCKED: BRANCH  12  13
DOCKED: ATOM     13  C   UNL     1     -35.710  -8.926  16.542 -0.02 +0.00    +0.038 C  
DOCKED: BRANCH  13  14
DOCKED: ATOM     14  C   UNL     1     -36.670  -9.785  17.363 -0.01 +0.00    +0.251 C  
DOCKED: BRANCH  14  15
DOCKED: ATOM     15  N   UNL     1     -35.958 -10.902  17.971 -0.02 +0.00    +0.141 N  
DOCKED: ATOM     16  C   UNL     1     -35.440 -10.529  19.288 -0.00 +0.00    +0.285 C  
DOCKED: ATOM     17  C   UNL     1     -36.833 -12.071  18.082 -0.03 +0.00    +0.285 C  
DOCKED: ENDBRANCH  14  15
DOCKED: ENDBRANCH  13  14
DOCKED: ENDBRANCH  12  13
DOCKED: ENDBRANCH   2  12
DOCKED: BRANCH   2  18
DOCKED: ATOM     18  C   UNL     1     -34.429  -9.254  13.349 -0.11 +0.00    +0.006 A  
DOCKED: ATOM     19  C   UNL     1     -33.076  -9.502  13.581 -0.11 +0.00    +0.001 A  
DOCKED: ATOM     20  C   UNL     1     -32.111  -8.913  12.763 -0.09 +0.00    +0.029 A  
DOCKED: ATOM     21  C   UNL     1     -32.498  -8.079  11.715 -0.07 +0.00    +0.140 A  
DOCKED: ATOM     22  C   UNL     1     -33.851  -7.832  11.484 -0.12 +0.00    +0.029 A  
DOCKED: ATOM     23  F   UNL     1     -31.571  -7.516  10.929 -0.01 -0.00    -0.204 F  
DOCKED: ATOM     24  C   UNL     1     -34.818  -8.420  12.301 -0.15 +0.00    +0.001 A  
DOCKED: ENDBRANCH   2  18
DOCKED: TORSDOF 5
DOCKED: TER
DOCKED: ENDMDL
________________________________________________________________________________


    FINAL DOCKED STATE:
    ________________________


Run:   150 / 512
Time taken for this run:   0.002s

DOCKED: MODEL        150
DOCKED: USER    Run = 150
DOCKED: USER
DOCKED: USER    Estimated Free Energy of Binding    =  -4.68 kcal/mol  [=(1)+(2)+(3)-(4)]
DOCKED: USER
DOCKED: USER    (1) Final Intermolecular Energy     =  -6.18 kcal/mol
DOCKED: USER        vdW + Hbond + desolv Energy     =  -6.18 kcal/mol
DOCKED: USER        Electrostatic Energy            =  +0.00 kcal/mol
DOCKED: USER        Moving Ligand-Fixed Receptor    =  -6.18 kcal/mol
DOCKED: USER        Moving Ligand-Moving Receptor   =  +0.00 kcal/mol
DOCKED: USER    (2) Final Total Internal Energy     =  -1.27 kcal/mol
DOCKED: USER    (3) Torsional Free Energy           =  +1.49 kcal/mol
DOCKED: USER    (4) Unbound System's Energy         =  -1.27 kcal/mol
DOCKED: USER
DOCKED: USER
DOCKED: REMARK  5 active torsions:
DOCKED: REMARK  status: ('A' for Active; 'I' for Inactive)
DOCKED: REMARK    1  A    between atoms: C_2  and  C_19 
DOCKED: REMARK    2  A    between atoms: C_2  and  C_11 
DOCKED: REMARK    3  A    between atoms: C_19  and  C_20 
DOCKED: REMARK    4  A    between atoms: C_20  and  C_21 
DOCKED: REMARK    5  A    between atoms: C_21  and  N_22 
DOCKED: USER                              x       y       z     vdW  Elec       q    Type
DOCKED: USER                           _______ _______ _______ _____ _____    ______ ____
DOCKED: ROOT
DOCKED: ATOM      1  O   UNL     1     -35.180 -10.008  14.609 -0.05 -0.00    -0.346 OA 
DOCKED: ATOM      2  C   UNL     1     -35.971  -9.311  13.594 -0.14 +0.00    +0.130 C  
DOCKED: ATOM      3  C   UNL     1     -36.772 -10.404  12.948 -0.23 +0.00    +0.004 A  
DOCKED: ATOM      4  C   UNL     1     -36.543 -11.603  13.609 -0.25 +0.00    +0.006 A  
DOCKED: ATOM      5  C   UNL     1     -35.599 -11.388  14.728 -0.15 +0.00    +0.169 C  
DOCKED: ATOM      6  C   UNL     1     -37.642 -10.341  11.870 -0.14 -0.00    -0.001 A  
DOCKED: ATOM      7  C   UNL     1     -37.168 -12.774  13.214 -0.33 +0.00    +0.008 A  
DOCKED: ATOM      8  C   UNL     1     -38.277 -11.513  11.457 -0.33 +0.00    +0.010 A  
DOCKED: ATOM      9  C   UNL     1     -38.041 -12.724  12.127 -0.32 +0.00    +0.068 A  
DOCKED: ATOM     10  N   UNL     1     -39.240 -14.881  11.338 -2.60 -0.00    -0.191 NA 
DOCKED: ATOM     11  C   UNL     1     -38.701 -13.914  11.691 -0.31 +0.00    +0.101 C  
DOCKED: ENDROOT
DOCKED: BRANCH   2  12
DOCKED: ATOM     12  C   UNL     1     -36.841  -8.270  14.291 -0.08 +0.00    +0.038 C  
DOCKED: BRANCH  12  13
DOCKED: ATOM     13  C   UNL     1     -38.248  -8.805  14.550 -0.08 +0.00    +0.038 C  
DOCKED: BRANCH  13  14
DOCKED: ATOM     14  C   UNL     1     -39.277  -8.086  13.680 -0.11 +0.00    +0.251 C  
DOCKED: BRANCH  14  15
DOCKED: ATOM     15  N   UNL     1     -40.219  -9.044  13.112 -0.18 +0.00    +0.141 N  
DOCKED: ATOM     16  C   UNL     1     -40.370 -10.203  13.994 -0.06 +0.00    +0.285 C  
DOCKED: ATOM     17  C   UNL     1     -41.518  -8.413  12.877 -0.15 +0.00    +0.285 C  
DOCKED: ENDBRANCH  14  15
DOCKED: ENDBRANCH  13  14
DOCKED: ENDBRANCH  12  13
DOCKED: ENDBRANCH   2  12
DOCKED: BRANCH   2  18
DOCKED: ATOM     18  C   UNL     1     -35.006  -8.665  12.657 -0.14 +0.00    +0.006 A  
DOCKED: ATOM     19  C   UNL     1     -33.638  -8.897  12.796 -0.10 +0.00    +0.001 A  
DOCKED: ATOM     20  C   UNL     1     -32.737  -8.292  11.919 -0.10 +0.00    +0.029 A  
DOCKED: ATOM     21  C   UNL     1     -33.204  -7.458  10.905 -0.08 +0.00    +0.140 A  
DOCKED: ATOM     22  C   UNL     1     -34.572  -7.227  10.766 -0.13 +0.00    +0.029 A  
DOCKED: ATOM     23  F   UNL     1     -32.339  -6.880  10.062 -0.00 -0.00    -0.204 F  
DOCKED: ATOM     24  C   UNL     1     -35.475  -7.831  11.643 -0.13 +0.00    +0.001 A  
DOCKED: ENDBRANCH   2  18
DOCKED: TORSDOF 5
DOCKED: TER
DOCKED: ENDMDL
________________________________________________________________________________


    FINAL DOCKED STATE:
    ________________________


Run:   151 / 512
Time taken for this run:   0.002s

DOCKED: MODEL        151
DOCKED: USER    Run = 151
DOCKED: USER
DOCKED: USER    Estimated Free Energy of Binding    =  -3.78 kcal/mol  [=(1)+(2)+(3)-(4)]
DOCKED: USER
DOCKED: USER    (1) Final Intermolecular Energy     =  -5.27 kcal/mol
DOCKED: USER        vdW + Hbond + desolv Energy     =  -5.27 kcal/mol
DOCKED: USER        Electrostatic Energy            =  +0.00 kcal/mol
DOCKED: USER        Moving Ligand-Fixed Receptor    =  -5.27 kcal/mol
DOCKED: USER        Moving Ligand-Moving Receptor   =  +0.00 kcal/mol
DOCKED: USER    (2) Final Total Internal Energy     =  -1.45 kcal/mol
DOCKED: USER    (3) Torsional Free Energy           =  +1.49 kcal/mol
DOCKED: USER    (4) Unbound System's Energy         =  -1.45 kcal/mol
DOCKED: USER
DOCKED: USER
DOCKED: REMARK  5 active torsions:
DOCKED: REMARK  status: ('A' for Active; 'I' for Inactive)
DOCKED: REMARK    1  A    between atoms: C_2  and  C_19 
DOCKED: REMARK    2  A    between atoms: C_2  and  C_11 
DOCKED: REMARK    3  A    between atoms: C_19  and  C_20 
DOCKED: REMARK    4  A    between atoms: C_20  and  C_21 
DOCKED: REMARK    5  A    between atoms: C_21  and  N_22 
DOCKED: USER                              x       y       z     vdW  Elec       q    Type
DOCKED: USER                           _______ _______ _______ _____ _____    ______ ____
DOCKED: ROOT
DOCKED: ATOM      1  O   UNL     1     -30.273  -2.711   3.562 +0.01 -0.00    -0.346 OA 
DOCKED: ATOM      2  C   UNL     1     -30.886  -1.607   4.302 -0.07 +0.00    +0.130 C  
DOCKED: ATOM      3  C   UNL     1     -32.191  -1.382   3.595 -0.15 +0.00    +0.004 A  
DOCKED: ATOM      4  C   UNL     1     -32.360  -2.344   2.609 -0.11 +0.00    +0.006 A  
DOCKED: ATOM      5  C   UNL     1     -31.203  -3.266   2.603 -0.02 +0.00    +0.169 C  
DOCKED: ATOM      6  C   UNL     1     -33.157  -0.411   3.815 -0.25 -0.00    -0.001 A  
DOCKED: ATOM      7  C   UNL     1     -33.491  -2.367   1.811 -0.22 +0.00    +0.008 A  
DOCKED: ATOM      8  C   UNL     1     -34.301  -0.418   3.015 -0.22 +0.00    +0.010 A  
DOCKED: ATOM      9  C   UNL     1     -34.467  -1.391   2.018 -0.34 +0.00    +0.068 A  
DOCKED: ATOM     10  N   UNL     1     -36.605  -1.378   0.554 -2.54 -0.00    -0.191 NA 
DOCKED: ATOM     11  C   UNL     1     -35.646  -1.383   1.211 -0.44 +0.00    +0.101 C  
DOCKED: ENDROOT
DOCKED: BRANCH   2  12
DOCKED: ATOM     12  C   UNL     1     -31.063  -2.038   5.753 -0.13 +0.00    +0.038 C  
DOCKED: BRANCH  12  13
DOCKED: ATOM     13  C   UNL     1     -31.592  -3.467   5.849 -0.10 +0.00    +0.038 C  
DOCKED: BRANCH  13  14
DOCKED: ATOM     14  C   UNL     1     -33.096  -3.480   6.117 -0.10 +0.00    +0.251 C  
DOCKED: BRANCH  14  15
DOCKED: ATOM     15  N   UNL     1     -33.793  -4.204   5.061 -0.15 +0.00    +0.141 N  
DOCKED: ATOM     16  C   UNL     1     -33.097  -5.451   4.743 -0.09 +0.00    +0.285 C  
DOCKED: ATOM     17  C   UNL     1     -35.177  -4.480   5.452 -0.17 +0.00    +0.285 C  
DOCKED: ENDBRANCH  14  15
DOCKED: ENDBRANCH  13  14
DOCKED: ENDBRANCH  12  13
DOCKED: ENDBRANCH   2  12
DOCKED: BRANCH   2  18
DOCKED: ATOM     18  C   UNL     1     -29.959  -0.442   4.195 -0.05 +0.00    +0.006 A  
DOCKED: ATOM     19  C   UNL     1     -29.947   0.335   3.037 -0.06 +0.00    +0.001 A  
DOCKED: ATOM     20  C   UNL     1     -29.079   1.423   2.939 -0.03 +0.00    +0.029 A  
DOCKED: ATOM     21  C   UNL     1     -28.226   1.733   3.997 -0.00 +0.00    +0.140 A  
DOCKED: ATOM     22  C   UNL     1     -28.239   0.955   5.154 -0.01 +0.00    +0.029 A  
DOCKED: ATOM     23  F   UNL     1     -27.395   2.779   3.903 +0.00 -0.00    -0.204 F  
DOCKED: ATOM     24  C   UNL     1     -29.106  -0.134   5.254 -0.04 +0.00    +0.001 A  
DOCKED: ENDBRANCH   2  18
DOCKED: TORSDOF 5
DOCKED: TER
DOCKED: ENDMDL
________________________________________________________________________________


    FINAL DOCKED STATE:
    ________________________


Run:   152 / 512
Time taken for this run:   0.002s

DOCKED: MODEL        152
DOCKED: USER    Run = 152
DOCKED: USER
DOCKED: USER    Estimated Free Energy of Binding    =  -4.98 kcal/mol  [=(1)+(2)+(3)-(4)]
DOCKED: USER
DOCKED: USER    (1) Final Intermolecular Energy     =  -6.47 kcal/mol
DOCKED: USER        vdW + Hbond + desolv Energy     =  -6.47 kcal/mol
DOCKED: USER        Electrostatic Energy            =  +0.00 kcal/mol
DOCKED: USER        Moving Ligand-Fixed Receptor    =  -6.47 kcal/mol
DOCKED: USER        Moving Ligand-Moving Receptor   =  +0.00 kcal/mol
DOCKED: USER    (2) Final Total Internal Energy     =  -1.01 kcal/mol
DOCKED: USER    (3) Torsional Free Energy           =  +1.49 kcal/mol
DOCKED: USER    (4) Unbound System's Energy         =  -1.01 kcal/mol
DOCKED: USER
DOCKED: USER
DOCKED: REMARK  5 active torsions:
DOCKED: REMARK  status: ('A' for Active; 'I' for Inactive)
DOCKED: REMARK    1  A    between atoms: C_2  and  C_19 
DOCKED: REMARK    2  A    between atoms: C_2  and  C_11 
DOCKED: REMARK    3  A    between atoms: C_19  and  C_20 
DOCKED: REMARK    4  A    between atoms: C_20  and  C_21 
DOCKED: REMARK    5  A    between atoms: C_21  and  N_22 
DOCKED: USER                              x       y       z     vdW  Elec       q    Type
DOCKED: USER                           _______ _______ _______ _____ _____    ______ ____
DOCKED: ROOT
DOCKED: ATOM      1  O   UNL     1     -40.977 -12.112  14.377 -0.00 -0.00    -0.346 OA 
DOCKED: ATOM      2  C   UNL     1     -39.648 -11.567  14.098 -0.11 +0.00    +0.130 C  
DOCKED: ATOM      3  C   UNL     1     -39.423 -11.891  12.649 -0.24 +0.00    +0.004 A  
DOCKED: ATOM      4  C   UNL     1     -40.567 -12.470  12.117 -0.28 +0.00    +0.006 A  
DOCKED: ATOM      5  C   UNL     1     -41.616 -12.557  13.158 -0.16 +0.00    +0.169 C  
DOCKED: ATOM      6  C   UNL     1     -38.301 -11.680  11.862 -0.35 -0.00    -0.001 A  
DOCKED: ATOM      7  C   UNL     1     -40.627 -12.859  10.790 -0.30 +0.00    +0.008 A  
DOCKED: ATOM      8  C   UNL     1     -38.344 -12.071  10.522 -0.28 +0.00    +0.010 A  
DOCKED: ATOM      9  C   UNL     1     -39.502 -12.657   9.989 -0.32 +0.00    +0.068 A  
DOCKED: ATOM     10  N   UNL     1     -39.551 -13.367   7.498 -3.00 -0.00    -0.191 NA 
DOCKED: ATOM     11  C   UNL     1     -39.529 -13.049   8.616 -0.26 +0.00    +0.101 C  
DOCKED: ENDROOT
DOCKED: BRANCH   2  12
DOCKED: ATOM     12  C   UNL     1     -39.672 -10.069  14.374 -0.11 +0.00    +0.038 C  
DOCKED: BRANCH  12  13
DOCKED: ATOM     13  C   UNL     1     -41.101  -9.556  14.541 -0.11 +0.00    +0.038 C  
DOCKED: BRANCH  13  14
DOCKED: ATOM     14  C   UNL     1     -41.315  -8.970  15.935 -0.00 +0.00    +0.251 C  
DOCKED: BRANCH  14  15
DOCKED: ATOM     15  N   UNL     1     -41.480 -10.038  16.914 -0.01 +0.00    +0.141 N  
DOCKED: ATOM     16  C   UNL     1     -42.395 -11.063  16.410 -0.00 +0.00    +0.285 C  
DOCKED: ATOM     17  C   UNL     1     -40.186 -10.633  17.251 -0.00 +0.00    +0.285 C  
DOCKED: ENDBRANCH  14  15
DOCKED: ENDBRANCH  13  14
DOCKED: ENDBRANCH  12  13
DOCKED: ENDBRANCH   2  12
DOCKED: BRANCH   2  18
DOCKED: ATOM     18  C   UNL     1     -38.691 -12.267  15.005 -0.12 +0.00    +0.006 A  
DOCKED: ATOM     19  C   UNL     1     -37.329 -11.973  14.941 -0.15 +0.00    +0.001 A  
DOCKED: ATOM     20  C   UNL     1     -36.436 -12.628  15.789 -0.13 +0.00    +0.029 A  
DOCKED: ATOM     21  C   UNL     1     -36.904 -13.574  16.700 -0.13 +0.00    +0.140 A  
DOCKED: ATOM     22  C   UNL     1     -38.267 -13.866  16.764 -0.18 +0.00    +0.029 A  
DOCKED: ATOM     23  F   UNL     1     -36.047 -14.201  17.515 -0.05 -0.00    -0.204 F  
DOCKED: ATOM     24  C   UNL     1     -39.161 -13.212  15.915 -0.16 +0.00    +0.001 A  
DOCKED: ENDBRANCH   2  18
DOCKED: TORSDOF 5
DOCKED: TER
DOCKED: ENDMDL
________________________________________________________________________________


    FINAL DOCKED STATE:
    ________________________


Run:   153 / 512
Time taken for this run:   0.002s

DOCKED: MODEL        153
DOCKED: USER    Run = 153
DOCKED: USER
DOCKED: USER    Estimated Free Energy of Binding    =  -3.87 kcal/mol  [=(1)+(2)+(3)-(4)]
DOCKED: USER
DOCKED: USER    (1) Final Intermolecular Energy     =  -5.36 kcal/mol
DOCKED: USER        vdW + Hbond + desolv Energy     =  -5.36 kcal/mol
DOCKED: USER        Electrostatic Energy            =  +0.00 kcal/mol
DOCKED: USER        Moving Ligand-Fixed Receptor    =  -5.36 kcal/mol
DOCKED: USER        Moving Ligand-Moving Receptor   =  +0.00 kcal/mol
DOCKED: USER    (2) Final Total Internal Energy     =  -1.36 kcal/mol
DOCKED: USER    (3) Torsional Free Energy           =  +1.49 kcal/mol
DOCKED: USER    (4) Unbound System's Energy         =  -1.36 kcal/mol
DOCKED: USER
DOCKED: USER
DOCKED: REMARK  5 active torsions:
DOCKED: REMARK  status: ('A' for Active; 'I' for Inactive)
DOCKED: REMARK    1  A    between atoms: C_2  and  C_19 
DOCKED: REMARK    2  A    between atoms: C_2  and  C_11 
DOCKED: REMARK    3  A    between atoms: C_19  and  C_20 
DOCKED: REMARK    4  A    between atoms: C_20  and  C_21 
DOCKED: REMARK    5  A    between atoms: C_21  and  N_22 
DOCKED: USER                              x       y       z     vdW  Elec       q    Type
DOCKED: USER                           _______ _______ _______ _____ _____    ______ ____
DOCKED: ROOT
DOCKED: ATOM      1  O   UNL     1     -33.103  -9.217   6.478 -0.05 -0.00    -0.346 OA 
DOCKED: ATOM      2  C   UNL     1     -31.707  -9.569   6.217 -0.13 +0.00    +0.130 C  
DOCKED: ATOM      3  C   UNL     1     -31.502 -10.833   7.000 -0.18 +0.00    +0.004 A  
DOCKED: ATOM      4  C   UNL     1     -32.704 -11.230   7.569 -0.32 +0.00    +0.006 A  
DOCKED: ATOM      5  C   UNL     1     -33.774 -10.278   7.197 -0.27 +0.00    +0.169 C  
DOCKED: ATOM      6  C   UNL     1     -30.347 -11.579   7.185 -0.11 -0.00    -0.001 A  
DOCKED: ATOM      7  C   UNL     1     -32.792 -12.376   8.341 -0.20 +0.00    +0.008 A  
DOCKED: ATOM      8  C   UNL     1     -30.419 -12.735   7.964 -0.16 +0.00    +0.010 A  
DOCKED: ATOM      9  C   UNL     1     -31.636 -13.131   8.539 -0.30 +0.00    +0.068 A  
DOCKED: ATOM     10  N   UNL     1     -31.735 -15.285   9.976 -2.27 -0.00    -0.191 NA 
DOCKED: ATOM     11  C   UNL     1     -31.690 -14.318   9.332 -0.40 +0.00    +0.101 C  
DOCKED: ENDROOT
DOCKED: BRANCH   2  12
DOCKED: ATOM     12  C   UNL     1     -31.531  -9.766   4.716 -0.14 +0.00    +0.038 C  
DOCKED: BRANCH  12  13
DOCKED: ATOM     13  C   UNL     1     -31.684  -8.447   3.960 -0.15 +0.00    +0.038 C  
DOCKED: BRANCH  13  14
DOCKED: ATOM     14  C   UNL     1     -33.156  -8.127   3.705 -0.16 +0.00    +0.251 C  
DOCKED: BRANCH  14  15
DOCKED: ATOM     15  N   UNL     1     -33.328  -6.702   3.450 -0.20 +0.00    +0.141 N  
DOCKED: ATOM     16  C   UNL     1     -33.502  -5.971   4.706 -0.13 +0.00    +0.285 C  
DOCKED: ATOM     17  C   UNL     1     -32.185  -6.169   2.707 -0.08 +0.00    +0.285 C  
DOCKED: ENDBRANCH  14  15
DOCKED: ENDBRANCH  13  14
DOCKED: ENDBRANCH  12  13
DOCKED: ENDBRANCH   2  12
DOCKED: BRANCH   2  18
DOCKED: ATOM     18  C   UNL     1     -30.871  -8.436   6.713 -0.04 +0.00    +0.006 A  
DOCKED: ATOM     19  C   UNL     1     -29.511  -8.388   6.409 -0.01 +0.00    +0.001 A  
DOCKED: ATOM     20  C   UNL     1     -28.731  -7.329   6.874 -0.00 +0.00    +0.029 A  
DOCKED: ATOM     21  C   UNL     1     -29.312  -6.319   7.640 -0.00 +0.00    +0.140 A  
DOCKED: ATOM     22  C   UNL     1     -30.672  -6.367   7.943 -0.01 +0.00    +0.029 A  
DOCKED: ATOM     23  F   UNL     1     -28.563  -5.301   8.084 +0.00 -0.00    -0.204 F  
DOCKED: ATOM     24  C   UNL     1     -31.453  -7.427   7.479 -0.03 +0.00    +0.001 A  
DOCKED: ENDBRANCH   2  18
DOCKED: TORSDOF 5
DOCKED: TER
DOCKED: ENDMDL
________________________________________________________________________________


    FINAL DOCKED STATE:
    ________________________


Run:   154 / 512
Time taken for this run:   0.002s

DOCKED: MODEL        154
DOCKED: USER    Run = 154
DOCKED: USER
DOCKED: USER    Estimated Free Energy of Binding    =  -5.42 kcal/mol  [=(1)+(2)+(3)-(4)]
DOCKED: USER
DOCKED: USER    (1) Final Intermolecular Energy     =  -6.91 kcal/mol
DOCKED: USER        vdW + Hbond + desolv Energy     =  -6.91 kcal/mol
DOCKED: USER        Electrostatic Energy            =  +0.00 kcal/mol
DOCKED: USER        Moving Ligand-Fixed Receptor    =  -6.91 kcal/mol
DOCKED: USER        Moving Ligand-Moving Receptor   =  +0.00 kcal/mol
DOCKED: USER    (2) Final Total Internal Energy     =  -1.05 kcal/mol
DOCKED: USER    (3) Torsional Free Energy           =  +1.49 kcal/mol
DOCKED: USER    (4) Unbound System's Energy         =  -1.05 kcal/mol
DOCKED: USER
DOCKED: USER
DOCKED: REMARK  5 active torsions:
DOCKED: REMARK  status: ('A' for Active; 'I' for Inactive)
DOCKED: REMARK    1  A    between atoms: C_2  and  C_19 
DOCKED: REMARK    2  A    between atoms: C_2  and  C_11 
DOCKED: REMARK    3  A    between atoms: C_19  and  C_20 
DOCKED: REMARK    4  A    between atoms: C_20  and  C_21 
DOCKED: REMARK    5  A    between atoms: C_21  and  N_22 
DOCKED: USER                              x       y       z     vdW  Elec       q    Type
DOCKED: USER                           _______ _______ _______ _____ _____    ______ ____
DOCKED: ROOT
DOCKED: ATOM      1  O   UNL     1     -40.759 -11.739  14.375 -0.00 -0.00    -0.346 OA 
DOCKED: ATOM      2  C   UNL     1     -39.362 -11.423  14.074 -0.11 +0.00    +0.130 C  
DOCKED: ATOM      3  C   UNL     1     -39.206 -11.819  12.634 -0.25 +0.00    +0.004 A  
DOCKED: ATOM      4  C   UNL     1     -40.432 -12.222  12.125 -0.27 +0.00    +0.006 A  
DOCKED: ATOM      5  C   UNL     1     -41.472 -12.110  13.172 -0.16 +0.00    +0.169 C  
DOCKED: ATOM      6  C   UNL     1     -38.072 -11.811  11.835 -0.36 -0.00    -0.001 A  
DOCKED: ATOM      7  C   UNL     1     -40.566 -12.633  10.810 -0.28 +0.00    +0.008 A  
DOCKED: ATOM      8  C   UNL     1     -38.190 -12.228  10.508 -0.17 +0.00    +0.010 A  
DOCKED: ATOM      9  C   UNL     1     -39.431 -12.636   9.998 -0.33 +0.00    +0.068 A  
DOCKED: ATOM     10  N   UNL     1     -39.617 -13.398   7.529 -3.00 -0.00    -0.191 NA 
DOCKED: ATOM     11  C   UNL     1     -39.533 -13.057   8.636 -0.26 +0.00    +0.101 C  
DOCKED: ENDROOT
DOCKED: BRANCH   2  12
DOCKED: ATOM     12  C   UNL     1     -39.144  -9.932  14.306 -0.11 +0.00    +0.038 C  
DOCKED: BRANCH  12  13
DOCKED: ATOM     13  C   UNL     1     -39.940  -9.091  13.311 -0.22 +0.00    +0.038 C  
DOCKED: BRANCH  13  14
DOCKED: ATOM     14  C   UNL     1     -39.023  -8.155  12.526 -0.15 +0.00    +0.251 C  
DOCKED: BRANCH  14  15
DOCKED: ATOM     15  N   UNL     1     -39.241  -6.772  12.933 -0.14 +0.00    +0.141 N  
DOCKED: ATOM     16  C   UNL     1     -38.243  -6.363  13.924 -0.03 +0.00    +0.285 C  
DOCKED: ATOM     17  C   UNL     1     -39.199  -5.880  11.773 -0.11 +0.00    +0.285 C  
DOCKED: ENDBRANCH  14  15
DOCKED: ENDBRANCH  13  14
DOCKED: ENDBRANCH  12  13
DOCKED: ENDBRANCH   2  12
DOCKED: BRANCH   2  18
DOCKED: ATOM     18  C   UNL     1     -38.521 -12.240  14.996 -0.13 +0.00    +0.006 A  
DOCKED: ATOM     19  C   UNL     1     -37.761 -11.616  15.984 -0.08 +0.00    +0.001 A  
DOCKED: ATOM     20  C   UNL     1     -36.974 -12.381  16.846 -0.11 +0.00    +0.029 A  
DOCKED: ATOM     21  C   UNL     1     -36.949 -13.769  16.718 -0.13 +0.00    +0.140 A  
DOCKED: ATOM     22  C   UNL     1     -37.710 -14.394  15.730 -0.18 +0.00    +0.029 A  
DOCKED: ATOM     23  F   UNL     1     -36.196 -14.504  17.547 -0.07 -0.00    -0.204 F  
DOCKED: ATOM     24  C   UNL     1     -38.496 -13.629  14.867 -0.25 +0.00    +0.001 A  
DOCKED: ENDBRANCH   2  18
DOCKED: TORSDOF 5
DOCKED: TER
DOCKED: ENDMDL
________________________________________________________________________________


    FINAL DOCKED STATE:
    ________________________


Run:   155 / 512
Time taken for this run:   0.002s

DOCKED: MODEL        155
DOCKED: USER    Run = 155
DOCKED: USER
DOCKED: USER    Estimated Free Energy of Binding    =  -4.08 kcal/mol  [=(1)+(2)+(3)-(4)]
DOCKED: USER
DOCKED: USER    (1) Final Intermolecular Energy     =  -5.57 kcal/mol
DOCKED: USER        vdW + Hbond + desolv Energy     =  -5.57 kcal/mol
DOCKED: USER        Electrostatic Energy            =  +0.00 kcal/mol
DOCKED: USER        Moving Ligand-Fixed Receptor    =  -5.57 kcal/mol
DOCKED: USER        Moving Ligand-Moving Receptor   =  +0.00 kcal/mol
DOCKED: USER    (2) Final Total Internal Energy     =  -1.38 kcal/mol
DOCKED: USER    (3) Torsional Free Energy           =  +1.49 kcal/mol
DOCKED: USER    (4) Unbound System's Energy         =  -1.38 kcal/mol
DOCKED: USER
DOCKED: USER
DOCKED: REMARK  5 active torsions:
DOCKED: REMARK  status: ('A' for Active; 'I' for Inactive)
DOCKED: REMARK    1  A    between atoms: C_2  and  C_19 
DOCKED: REMARK    2  A    between atoms: C_2  and  C_11 
DOCKED: REMARK    3  A    between atoms: C_19  and  C_20 
DOCKED: REMARK    4  A    between atoms: C_20  and  C_21 
DOCKED: REMARK    5  A    between atoms: C_21  and  N_22 
DOCKED: USER                              x       y       z     vdW  Elec       q    Type
DOCKED: USER                           _______ _______ _______ _____ _____    ______ ____
DOCKED: ROOT
DOCKED: ATOM      1  O   UNL     1     -36.502  -8.561  13.723 -0.04 -0.00    -0.346 OA 
DOCKED: ATOM      2  C   UNL     1     -35.697  -9.682  14.208 -0.11 +0.00    +0.130 C  
DOCKED: ATOM      3  C   UNL     1     -36.410 -10.893  13.678 -0.21 +0.00    +0.004 A  
DOCKED: ATOM      4  C   UNL     1     -37.466 -10.496  12.869 -0.26 +0.00    +0.006 A  
DOCKED: ATOM      5  C   UNL     1     -37.516  -9.019  12.798 -0.19 +0.00    +0.169 C  
DOCKED: ATOM      6  C   UNL     1     -36.139 -12.237  13.886 -0.27 -0.00    -0.001 A  
DOCKED: ATOM      7  C   UNL     1     -38.285 -11.423  12.248 -0.32 +0.00    +0.008 A  
DOCKED: ATOM      8  C   UNL     1     -36.958 -13.184  13.270 -0.35 +0.00    +0.010 A  
DOCKED: ATOM      9  C   UNL     1     -38.026 -12.779  12.454 -0.31 +0.00    +0.068 A  
DOCKED: ATOM     10  N   UNL     1     -39.525 -14.563  11.321 -2.54 -0.00    -0.191 NA 
DOCKED: ATOM     11  C   UNL     1     -38.853 -13.762  11.830 -0.35 +0.00    +0.101 C  
DOCKED: ENDROOT
DOCKED: BRANCH   2  12
DOCKED: ATOM     12  C   UNL     1     -34.284  -9.537  13.655 -0.12 +0.00    +0.038 C  
DOCKED: BRANCH  12  13
DOCKED: ATOM     13  C   UNL     1     -33.723  -8.141  13.922 -0.07 +0.00    +0.038 C  
DOCKED: BRANCH  13  14
DOCKED: ATOM     14  C   UNL     1     -33.484  -7.386  12.616 -0.05 +0.00    +0.251 C  
DOCKED: BRANCH  14  15
DOCKED: ATOM     15  N   UNL     1     -34.601  -7.588  11.701 -0.11 +0.00    +0.141 N  
DOCKED: ATOM     16  C   UNL     1     -35.424  -6.381  11.617 -0.06 +0.00    +0.285 C  
DOCKED: ATOM     17  C   UNL     1     -34.118  -7.967  10.373 -0.09 +0.00    +0.285 C  
DOCKED: ENDBRANCH  14  15
DOCKED: ENDBRANCH  13  14
DOCKED: ENDBRANCH  12  13
DOCKED: ENDBRANCH   2  12
DOCKED: BRANCH   2  18
DOCKED: ATOM     18  C   UNL     1     -35.702  -9.610  15.699 -0.05 +0.00    +0.006 A  
DOCKED: ATOM     19  C   UNL     1     -34.606 -10.078  16.422 -0.04 +0.00    +0.001 A  
DOCKED: ATOM     20  C   UNL     1     -34.612 -10.010  17.816 -0.01 +0.00    +0.029 A  
DOCKED: ATOM     21  C   UNL     1     -35.713  -9.476  18.483 -0.00 +0.00    +0.140 A  
DOCKED: ATOM     22  C   UNL     1     -36.809  -9.008  17.759 -0.00 +0.00    +0.029 A  
DOCKED: ATOM     23  F   UNL     1     -35.718  -9.409  19.821 -0.00 -0.00    -0.204 F  
DOCKED: ATOM     24  C   UNL     1     -36.804  -9.075  16.365 -0.02 +0.00    +0.001 A  
DOCKED: ENDBRANCH   2  18
DOCKED: TORSDOF 5
DOCKED: TER
DOCKED: ENDMDL
________________________________________________________________________________


    FINAL DOCKED STATE:
    ________________________


Run:   156 / 512
Time taken for this run:   0.002s

DOCKED: MODEL        156
DOCKED: USER    Run = 156
DOCKED: USER
DOCKED: USER    Estimated Free Energy of Binding    =  -4.14 kcal/mol  [=(1)+(2)+(3)-(4)]
DOCKED: USER
DOCKED: USER    (1) Final Intermolecular Energy     =  -5.64 kcal/mol
DOCKED: USER        vdW + Hbond + desolv Energy     =  -5.64 kcal/mol
DOCKED: USER        Electrostatic Energy            =  +0.00 kcal/mol
DOCKED: USER        Moving Ligand-Fixed Receptor    =  -5.64 kcal/mol
DOCKED: USER        Moving Ligand-Moving Receptor   =  +0.00 kcal/mol
DOCKED: USER    (2) Final Total Internal Energy     =  -1.34 kcal/mol
DOCKED: USER    (3) Torsional Free Energy           =  +1.49 kcal/mol
DOCKED: USER    (4) Unbound System's Energy         =  -1.34 kcal/mol
DOCKED: USER
DOCKED: USER
DOCKED: REMARK  5 active torsions:
DOCKED: REMARK  status: ('A' for Active; 'I' for Inactive)
DOCKED: REMARK    1  A    between atoms: C_2  and  C_19 
DOCKED: REMARK    2  A    between atoms: C_2  and  C_11 
DOCKED: REMARK    3  A    between atoms: C_19  and  C_20 
DOCKED: REMARK    4  A    between atoms: C_20  and  C_21 
DOCKED: REMARK    5  A    between atoms: C_21  and  N_22 
DOCKED: USER                              x       y       z     vdW  Elec       q    Type
DOCKED: USER                           _______ _______ _______ _____ _____    ______ ____
DOCKED: ROOT
DOCKED: ATOM      1  O   UNL     1     -37.335  -9.330  15.214 -0.00 -0.00    -0.346 OA 
DOCKED: ATOM      2  C   UNL     1     -37.163  -8.980  13.804 -0.12 +0.00    +0.130 C  
DOCKED: ATOM      3  C   UNL     1     -37.638 -10.201  13.070 -0.24 +0.00    +0.004 A  
DOCKED: ATOM      4  C   UNL     1     -38.140 -11.124  13.976 -0.15 +0.00    +0.006 A  
DOCKED: ATOM      5  C   UNL     1     -38.046 -10.582  15.350 -0.04 +0.00    +0.169 C  
DOCKED: ATOM      6  C   UNL     1     -37.636 -10.468  11.709 -0.10 -0.00    -0.001 A  
DOCKED: ATOM      7  C   UNL     1     -38.651 -12.341  13.557 -0.20 +0.00    +0.008 A  
DOCKED: ATOM      8  C   UNL     1     -38.144 -11.692  11.271 -0.32 +0.00    +0.010 A  
DOCKED: ATOM      9  C   UNL     1     -38.649 -12.623  12.190 -0.29 +0.00    +0.068 A  
DOCKED: ATOM     10  N   UNL     1     -39.588 -14.885  11.343 -2.52 -0.00    -0.191 NA 
DOCKED: ATOM     11  C   UNL     1     -39.166 -13.871  11.723 -0.33 +0.00    +0.101 C  
DOCKED: ENDROOT
DOCKED: BRANCH   2  12
DOCKED: ATOM     12  C   UNL     1     -38.005  -7.744  13.507 -0.13 +0.00    +0.038 C  
DOCKED: BRANCH  12  13
DOCKED: ATOM     13  C   UNL     1     -39.219  -8.091  12.647 -0.23 +0.00    +0.038 C  
DOCKED: BRANCH  13  14
DOCKED: ATOM     14  C   UNL     1     -40.520  -7.863  13.415 -0.14 +0.00    +0.251 C  
DOCKED: BRANCH  14  15
DOCKED: ATOM     15  N   UNL     1     -41.009  -9.120  13.968 -0.09 +0.00    +0.141 N  
DOCKED: ATOM     16  C   UNL     1     -41.582  -8.910  15.299 -0.01 +0.00    +0.285 C  
DOCKED: ATOM     17  C   UNL     1     -42.002  -9.723  13.078 -0.13 +0.00    +0.285 C  
DOCKED: ENDBRANCH  14  15
DOCKED: ENDBRANCH  13  14
DOCKED: ENDBRANCH  12  13
DOCKED: ENDBRANCH   2  12
DOCKED: BRANCH   2  18
DOCKED: ATOM     18  C   UNL     1     -35.711  -8.704  13.596 -0.13 +0.00    +0.006 A  
DOCKED: ATOM     19  C   UNL     1     -34.796  -8.994  14.607 -0.08 +0.00    +0.001 A  
DOCKED: ATOM     20  C   UNL     1     -33.438  -8.736  14.411 -0.06 +0.00    +0.029 A  
DOCKED: ATOM     21  C   UNL     1     -32.999  -8.189  13.206 -0.06 +0.00    +0.140 A  
DOCKED: ATOM     22  C   UNL     1     -33.916  -7.900  12.196 -0.11 +0.00    +0.029 A  
DOCKED: ATOM     23  F   UNL     1     -31.696  -7.943  13.018 -0.00 -0.00    -0.204 F  
DOCKED: ATOM     24  C   UNL     1     -35.274  -8.157  12.391 -0.16 +0.00    +0.001 A  
DOCKED: ENDBRANCH   2  18
DOCKED: TORSDOF 5
DOCKED: TER
DOCKED: ENDMDL
________________________________________________________________________________


    FINAL DOCKED STATE:
    ________________________


Run:   157 / 512
Time taken for this run:   0.002s

DOCKED: MODEL        157
DOCKED: USER    Run = 157
DOCKED: USER
DOCKED: USER    Estimated Free Energy of Binding    =  -4.77 kcal/mol  [=(1)+(2)+(3)-(4)]
DOCKED: USER
DOCKED: USER    (1) Final Intermolecular Energy     =  -6.27 kcal/mol
DOCKED: USER        vdW + Hbond + desolv Energy     =  -6.27 kcal/mol
DOCKED: USER        Electrostatic Energy            =  +0.00 kcal/mol
DOCKED: USER        Moving Ligand-Fixed Receptor    =  -6.27 kcal/mol
DOCKED: USER        Moving Ligand-Moving Receptor   =  +0.00 kcal/mol
DOCKED: USER    (2) Final Total Internal Energy     =  -0.84 kcal/mol
DOCKED: USER    (3) Torsional Free Energy           =  +1.49 kcal/mol
DOCKED: USER    (4) Unbound System's Energy         =  -0.84 kcal/mol
DOCKED: USER
DOCKED: USER
DOCKED: REMARK  5 active torsions:
DOCKED: REMARK  status: ('A' for Active; 'I' for Inactive)
DOCKED: REMARK    1  A    between atoms: C_2  and  C_19 
DOCKED: REMARK    2  A    between atoms: C_2  and  C_11 
DOCKED: REMARK    3  A    between atoms: C_19  and  C_20 
DOCKED: REMARK    4  A    between atoms: C_20  and  C_21 
DOCKED: REMARK    5  A    between atoms: C_21  and  N_22 
DOCKED: USER                              x       y       z     vdW  Elec       q    Type
DOCKED: USER                           _______ _______ _______ _____ _____    ______ ____
DOCKED: ROOT
DOCKED: ATOM      1  O   UNL     1     -37.185 -10.437  14.087 -0.04 -0.00    -0.346 OA 
DOCKED: ATOM      2  C   UNL     1     -36.582 -11.771  14.060 -0.21 +0.00    +0.130 C  
DOCKED: ATOM      3  C   UNL     1     -37.164 -12.403  12.829 -0.32 +0.00    +0.004 A  
DOCKED: ATOM      4  C   UNL     1     -37.944 -11.476  12.152 -0.33 +0.00    +0.006 A  
DOCKED: ATOM      5  C   UNL     1     -37.923 -10.182  12.869 -0.22 +0.00    +0.169 C  
DOCKED: ATOM      6  C   UNL     1     -37.007 -13.692  12.341 -0.38 -0.00    -0.001 A  
DOCKED: ATOM      7  C   UNL     1     -38.593 -11.804  10.974 -0.29 +0.00    +0.008 A  
DOCKED: ATOM      8  C   UNL     1     -37.659 -14.040  11.156 -0.35 +0.00    +0.010 A  
DOCKED: ATOM      9  C   UNL     1     -38.448 -13.100  10.476 -0.41 +0.00    +0.068 A  
DOCKED: ATOM     10  N   UNL     1     -39.640 -13.776   8.277 -2.01 -0.00    -0.191 NA 
DOCKED: ATOM     11  C   UNL     1     -39.106 -13.473   9.264 -0.52 +0.00    +0.101 C  
DOCKED: ENDROOT
DOCKED: BRANCH   2  12
DOCKED: ATOM     12  C   UNL     1     -35.068 -11.614  13.987 -0.13 +0.00    +0.038 C  
DOCKED: BRANCH  12  13
DOCKED: ATOM     13  C   UNL     1     -34.648 -10.159  14.184 -0.14 +0.00    +0.038 C  
DOCKED: BRANCH  13  14
DOCKED: ATOM     14  C   UNL     1     -35.052  -9.653  15.568 -0.03 +0.00    +0.251 C  
DOCKED: BRANCH  14  15
DOCKED: ATOM     15  N   UNL     1     -34.245  -8.498  15.941 -0.01 +0.00    +0.141 N  
DOCKED: ATOM     16  C   UNL     1     -32.950  -8.924  16.474 -0.01 +0.00    +0.285 C  
DOCKED: ATOM     17  C   UNL     1     -34.053  -7.610  14.794 -0.01 +0.00    +0.285 C  
DOCKED: ENDBRANCH  14  15
DOCKED: ENDBRANCH  13  14
DOCKED: ENDBRANCH  12  13
DOCKED: ENDBRANCH   2  12
DOCKED: BRANCH   2  18
DOCKED: ATOM     18  C   UNL     1     -36.992 -12.461  15.317 -0.17 +0.00    +0.006 A  
DOCKED: ATOM     19  C   UNL     1     -37.083 -11.742  16.509 -0.09 +0.00    +0.001 A  
DOCKED: ATOM     20  C   UNL     1     -37.466 -12.389  17.684 -0.08 +0.00    +0.029 A  
DOCKED: ATOM     21  C   UNL     1     -37.759 -13.752  17.667 -0.14 +0.00    +0.140 A  
DOCKED: ATOM     22  C   UNL     1     -37.668 -14.470  16.475 -0.12 +0.00    +0.029 A  
DOCKED: ATOM     23  F   UNL     1     -38.128 -14.372  18.795 -0.03 -0.00    -0.204 F  
DOCKED: ATOM     24  C   UNL     1     -37.284 -13.824  15.298 -0.21 +0.00    +0.001 A  
DOCKED: ENDBRANCH   2  18
DOCKED: TORSDOF 5
DOCKED: TER
DOCKED: ENDMDL
________________________________________________________________________________


    FINAL DOCKED STATE:
    ________________________


Run:   158 / 512
Time taken for this run:   0.002s

DOCKED: MODEL        158
DOCKED: USER    Run = 158
DOCKED: USER
DOCKED: USER    Estimated Free Energy of Binding    =  -4.03 kcal/mol  [=(1)+(2)+(3)-(4)]
DOCKED: USER
DOCKED: USER    (1) Final Intermolecular Energy     =  -5.52 kcal/mol
DOCKED: USER        vdW + Hbond + desolv Energy     =  -5.52 kcal/mol
DOCKED: USER        Electrostatic Energy            =  +0.00 kcal/mol
DOCKED: USER        Moving Ligand-Fixed Receptor    =  -5.52 kcal/mol
DOCKED: USER        Moving Ligand-Moving Receptor   =  +0.00 kcal/mol
DOCKED: USER    (2) Final Total Internal Energy     =  -1.31 kcal/mol
DOCKED: USER    (3) Torsional Free Energy           =  +1.49 kcal/mol
DOCKED: USER    (4) Unbound System's Energy         =  -1.31 kcal/mol
DOCKED: USER
DOCKED: USER
DOCKED: REMARK  5 active torsions:
DOCKED: REMARK  status: ('A' for Active; 'I' for Inactive)
DOCKED: REMARK    1  A    between atoms: C_2  and  C_19 
DOCKED: REMARK    2  A    between atoms: C_2  and  C_11 
DOCKED: REMARK    3  A    between atoms: C_19  and  C_20 
DOCKED: REMARK    4  A    between atoms: C_20  and  C_21 
DOCKED: REMARK    5  A    between atoms: C_21  and  N_22 
DOCKED: USER                              x       y       z     vdW  Elec       q    Type
DOCKED: USER                           _______ _______ _______ _____ _____    ______ ____
DOCKED: ROOT
DOCKED: ATOM      1  O   UNL     1     -39.893  -8.173  13.699 -0.06 -0.00    -0.346 OA 
DOCKED: ATOM      2  C   UNL     1     -38.466  -8.413  13.482 -0.15 +0.00    +0.130 C  
DOCKED: ATOM      3  C   UNL     1     -38.409  -9.838  13.012 -0.22 +0.00    +0.004 A  
DOCKED: ATOM      4  C   UNL     1     -39.696 -10.334  12.867 -0.23 +0.00    +0.006 A  
DOCKED: ATOM      5  C   UNL     1     -40.681  -9.285  13.213 -0.18 +0.00    +0.169 C  
DOCKED: ATOM      6  C   UNL     1     -37.305 -10.628  12.725 -0.27 -0.00    -0.001 A  
DOCKED: ATOM      7  C   UNL     1     -39.925 -11.630  12.437 -0.24 +0.00    +0.008 A  
DOCKED: ATOM      8  C   UNL     1     -37.519 -11.939  12.294 -0.32 +0.00    +0.010 A  
DOCKED: ATOM      9  C   UNL     1     -38.823 -12.437  12.151 -0.28 +0.00    +0.068 A  
DOCKED: ATOM     10  N   UNL     1     -39.185 -14.872  11.345 -2.61 -0.00    -0.191 NA 
DOCKED: ATOM     11  C   UNL     1     -39.023 -13.780  11.707 -0.37 +0.00    +0.101 C  
DOCKED: ENDROOT
DOCKED: BRANCH   2  12
DOCKED: ATOM     12  C   UNL     1     -37.963  -7.423  12.437 -0.16 +0.00    +0.038 C  
DOCKED: BRANCH  12  13
DOCKED: ATOM     13  C   UNL     1     -36.491  -7.660  12.108 -0.13 +0.00    +0.038 C  
DOCKED: BRANCH  13  14
DOCKED: ATOM     14  C   UNL     1     -35.598  -6.650  12.827 -0.05 +0.00    +0.251 C  
DOCKED: BRANCH  14  15
DOCKED: ATOM     15  N   UNL     1     -34.668  -7.337  13.716 -0.03 +0.00    +0.141 N  
DOCKED: ATOM     16  C   UNL     1     -34.532  -8.744  13.333 -0.08 +0.00    +0.285 C  
DOCKED: ATOM     17  C   UNL     1     -33.361  -6.679  13.703 -0.01 +0.00    +0.285 C  
DOCKED: ENDBRANCH  14  15
DOCKED: ENDBRANCH  13  14
DOCKED: ENDBRANCH  12  13
DOCKED: ENDBRANCH   2  12
DOCKED: BRANCH   2  18
DOCKED: ATOM     18  C   UNL     1     -37.784  -8.205  14.793 -0.05 +0.00    +0.006 A  
DOCKED: ATOM     19  C   UNL     1     -37.744  -6.934  15.363 -0.02 +0.00    +0.001 A  
DOCKED: ATOM     20  C   UNL     1     -37.105  -6.740  16.589 -0.00 +0.00    +0.029 A  
DOCKED: ATOM     21  C   UNL     1     -36.509  -7.818  17.242 -0.00 +0.00    +0.140 A  
DOCKED: ATOM     22  C   UNL     1     -36.549  -9.090  16.670 -0.01 +0.00    +0.029 A  
DOCKED: ATOM     23  F   UNL     1     -35.897  -7.632  18.419 -0.00 -0.00    -0.204 F  
DOCKED: ATOM     24  C   UNL     1     -37.187  -9.284  15.444 -0.04 +0.00    +0.001 A  
DOCKED: ENDBRANCH   2  18
DOCKED: TORSDOF 5
DOCKED: TER
DOCKED: ENDMDL
________________________________________________________________________________


    FINAL DOCKED STATE:
    ________________________


Run:   159 / 512
Time taken for this run:   0.002s

DOCKED: MODEL        159
DOCKED: USER    Run = 159
DOCKED: USER
DOCKED: USER    Estimated Free Energy of Binding    =  -4.58 kcal/mol  [=(1)+(2)+(3)-(4)]
DOCKED: USER
DOCKED: USER    (1) Final Intermolecular Energy     =  -6.07 kcal/mol
DOCKED: USER        vdW + Hbond + desolv Energy     =  -6.07 kcal/mol
DOCKED: USER        Electrostatic Energy            =  +0.00 kcal/mol
DOCKED: USER        Moving Ligand-Fixed Receptor    =  -6.07 kcal/mol
DOCKED: USER        Moving Ligand-Moving Receptor   =  +0.00 kcal/mol
DOCKED: USER    (2) Final Total Internal Energy     =  -1.06 kcal/mol
DOCKED: USER    (3) Torsional Free Energy           =  +1.49 kcal/mol
DOCKED: USER    (4) Unbound System's Energy         =  -1.06 kcal/mol
DOCKED: USER
DOCKED: USER
DOCKED: REMARK  5 active torsions:
DOCKED: REMARK  status: ('A' for Active; 'I' for Inactive)
DOCKED: REMARK    1  A    between atoms: C_2  and  C_19 
DOCKED: REMARK    2  A    between atoms: C_2  and  C_11 
DOCKED: REMARK    3  A    between atoms: C_19  and  C_20 
DOCKED: REMARK    4  A    between atoms: C_20  and  C_21 
DOCKED: REMARK    5  A    between atoms: C_21  and  N_22 
DOCKED: USER                              x       y       z     vdW  Elec       q    Type
DOCKED: USER                           _______ _______ _______ _____ _____    ______ ____
DOCKED: ROOT
DOCKED: ATOM      1  O   UNL     1     -34.593 -10.569  14.530 -0.08 -0.00    -0.346 OA 
DOCKED: ATOM      2  C   UNL     1     -35.551  -9.669  13.886 -0.13 +0.00    +0.130 C  
DOCKED: ATOM      3  C   UNL     1     -36.532 -10.598  13.231 -0.22 +0.00    +0.004 A  
DOCKED: ATOM      4  C   UNL     1     -36.226 -11.910  13.563 -0.24 +0.00    +0.006 A  
DOCKED: ATOM      5  C   UNL     1     -35.047 -11.940  14.458 -0.16 +0.00    +0.169 C  
DOCKED: ATOM      6  C   UNL     1     -37.615 -10.304  12.416 -0.28 -0.00    -0.001 A  
DOCKED: ATOM      7  C   UNL     1     -36.984 -12.968  13.092 -0.35 +0.00    +0.008 A  
DOCKED: ATOM      8  C   UNL     1     -38.387 -11.361  11.929 -0.32 +0.00    +0.010 A  
DOCKED: ATOM      9  C   UNL     1     -38.073 -12.686  12.266 -0.31 +0.00    +0.068 A  
DOCKED: ATOM     10  N   UNL     1     -39.530 -14.623  11.350 -2.56 -0.00    -0.191 NA 
DOCKED: ATOM     11  C   UNL     1     -38.876 -13.754  11.760 -0.37 +0.00    +0.101 C  
DOCKED: ENDROOT
DOCKED: BRANCH   2  12
DOCKED: ATOM     12  C   UNL     1     -36.188  -8.794  14.959 -0.06 +0.00    +0.038 C  
DOCKED: BRANCH  12  13
DOCKED: ATOM     13  C   UNL     1     -36.690  -7.475  14.376 -0.05 +0.00    +0.038 C  
DOCKED: BRANCH  13  14
DOCKED: ATOM     14  C   UNL     1     -38.217  -7.430  14.353 -0.04 +0.00    +0.251 C  
DOCKED: BRANCH  14  15
DOCKED: ATOM     15  N   UNL     1     -38.680  -6.364  13.473 -0.06 +0.00    +0.141 N  
DOCKED: ATOM     16  C   UNL     1     -38.003  -6.433  12.177 -0.11 +0.00    +0.285 C  
DOCKED: ATOM     17  C   UNL     1     -40.131  -6.438  13.293 -0.09 +0.00    +0.285 C  
DOCKED: ENDBRANCH  14  15
DOCKED: ENDBRANCH  13  14
DOCKED: ENDBRANCH  12  13
DOCKED: ENDBRANCH   2  12
DOCKED: BRANCH   2  18
DOCKED: ATOM     18  C   UNL     1     -34.785  -8.846  12.905 -0.13 +0.00    +0.006 A  
DOCKED: ATOM     19  C   UNL     1     -35.399  -8.411  11.731 -0.13 +0.00    +0.001 A  
DOCKED: ATOM     20  C   UNL     1     -34.682  -7.642  10.814 -0.14 +0.00    +0.029 A  
DOCKED: ATOM     21  C   UNL     1     -33.353  -7.308  11.072 -0.08 +0.00    +0.140 A  
DOCKED: ATOM     22  C   UNL     1     -32.740  -7.743  12.247 -0.07 +0.00    +0.029 A  
DOCKED: ATOM     23  F   UNL     1     -32.665  -6.569  10.193 -0.00 -0.00    -0.204 F  
DOCKED: ATOM     24  C   UNL     1     -33.456  -8.513  13.164 -0.10 +0.00    +0.001 A  
DOCKED: ENDBRANCH   2  18
DOCKED: TORSDOF 5
DOCKED: TER
DOCKED: ENDMDL
________________________________________________________________________________


    FINAL DOCKED STATE:
    ________________________


Run:   160 / 512
Time taken for this run:   0.002s

DOCKED: MODEL        160
DOCKED: USER    Run = 160
DOCKED: USER
DOCKED: USER    Estimated Free Energy of Binding    =  -3.66 kcal/mol  [=(1)+(2)+(3)-(4)]
DOCKED: USER
DOCKED: USER    (1) Final Intermolecular Energy     =  -5.15 kcal/mol
DOCKED: USER        vdW + Hbond + desolv Energy     =  -5.15 kcal/mol
DOCKED: USER        Electrostatic Energy            =  +0.00 kcal/mol
DOCKED: USER        Moving Ligand-Fixed Receptor    =  -5.15 kcal/mol
DOCKED: USER        Moving Ligand-Moving Receptor   =  +0.00 kcal/mol
DOCKED: USER    (2) Final Total Internal Energy     =  -1.40 kcal/mol
DOCKED: USER    (3) Torsional Free Energy           =  +1.49 kcal/mol
DOCKED: USER    (4) Unbound System's Energy         =  -1.40 kcal/mol
DOCKED: USER
DOCKED: USER
DOCKED: REMARK  5 active torsions:
DOCKED: REMARK  status: ('A' for Active; 'I' for Inactive)
DOCKED: REMARK    1  A    between atoms: C_2  and  C_19 
DOCKED: REMARK    2  A    between atoms: C_2  and  C_11 
DOCKED: REMARK    3  A    between atoms: C_19  and  C_20 
DOCKED: REMARK    4  A    between atoms: C_20  and  C_21 
DOCKED: REMARK    5  A    between atoms: C_21  and  N_22 
DOCKED: USER                              x       y       z     vdW  Elec       q    Type
DOCKED: USER                           _______ _______ _______ _____ _____    ______ ____
DOCKED: ROOT
DOCKED: ATOM      1  O   UNL     1     -32.693  -8.800   6.861 -0.02 -0.00    -0.346 OA 
DOCKED: ATOM      2  C   UNL     1     -31.625  -9.505   6.150 -0.13 +0.00    +0.130 C  
DOCKED: ATOM      3  C   UNL     1     -31.542 -10.831   6.850 -0.18 +0.00    +0.004 A  
DOCKED: ATOM      4  C   UNL     1     -32.547 -10.920   7.803 -0.30 +0.00    +0.006 A  
DOCKED: ATOM      5  C   UNL     1     -33.360  -9.683   7.792 -0.25 +0.00    +0.169 C  
DOCKED: ATOM      6  C   UNL     1     -30.656 -11.879   6.650 -0.14 -0.00    -0.001 A  
DOCKED: ATOM      7  C   UNL     1     -32.697 -12.050   8.588 -0.09 +0.00    +0.008 A  
DOCKED: ATOM      8  C   UNL     1     -30.792 -13.024   7.438 -0.20 +0.00    +0.010 A  
DOCKED: ATOM      9  C   UNL     1     -31.808 -13.109   8.401 -0.31 +0.00    +0.068 A  
DOCKED: ATOM     10  N   UNL     1     -32.035 -15.250   9.842 -2.54 -0.00    -0.191 NA 
DOCKED: ATOM     11  C   UNL     1     -31.933 -14.289   9.196 -0.35 +0.00    +0.101 C  
DOCKED: ENDROOT
DOCKED: BRANCH   2  12
DOCKED: ATOM     12  C   UNL     1     -32.023  -9.631   4.684 -0.12 +0.00    +0.038 C  
DOCKED: BRANCH  12  13
DOCKED: ATOM     13  C   UNL     1     -33.078  -8.595   4.302 -0.10 +0.00    +0.038 C  
DOCKED: BRANCH  13  14
DOCKED: ATOM     14  C   UNL     1     -32.477  -7.497   3.427 -0.15 +0.00    +0.251 C  
DOCKED: BRANCH  14  15
DOCKED: ATOM     15  N   UNL     1     -32.272  -6.282   4.208 -0.07 +0.00    +0.141 N  
DOCKED: ATOM     16  C   UNL     1     -31.777  -5.199   3.356 -0.04 +0.00    +0.285 C  
DOCKED: ATOM     17  C   UNL     1     -33.513  -5.880   4.871 -0.12 +0.00    +0.285 C  
DOCKED: ENDBRANCH  14  15
DOCKED: ENDBRANCH  13  14
DOCKED: ENDBRANCH  12  13
DOCKED: ENDBRANCH   2  12
DOCKED: BRANCH   2  18
DOCKED: ATOM     18  C   UNL     1     -30.385  -8.688   6.303 -0.04 +0.00    +0.006 A  
DOCKED: ATOM     19  C   UNL     1     -29.674  -8.284   5.175 -0.01 +0.00    +0.001 A  
DOCKED: ATOM     20  C   UNL     1     -28.515  -7.520   5.319 -0.00 +0.00    +0.029 A  
DOCKED: ATOM     21  C   UNL     1     -28.070  -7.162   6.591 +0.00 +0.00    +0.140 A  
DOCKED: ATOM     22  C   UNL     1     -28.782  -7.567   7.719 -0.00 +0.00    +0.029 A  
DOCKED: ATOM     23  F   UNL     1     -26.958  -6.428   6.729 +0.00 -0.00    -0.204 F  
DOCKED: ATOM     24  C   UNL     1     -29.941  -8.331   7.576 -0.02 +0.00    +0.001 A  
DOCKED: ENDBRANCH   2  18
DOCKED: TORSDOF 5
DOCKED: TER
DOCKED: ENDMDL
________________________________________________________________________________


    FINAL DOCKED STATE:
    ________________________


Run:   161 / 512
Time taken for this run:   0.002s

DOCKED: MODEL        161
DOCKED: USER    Run = 161
DOCKED: USER
DOCKED: USER    Estimated Free Energy of Binding    =  -5.31 kcal/mol  [=(1)+(2)+(3)-(4)]
DOCKED: USER
DOCKED: USER    (1) Final Intermolecular Energy     =  -6.80 kcal/mol
DOCKED: USER        vdW + Hbond + desolv Energy     =  -6.80 kcal/mol
DOCKED: USER        Electrostatic Energy            =  +0.00 kcal/mol
DOCKED: USER        Moving Ligand-Fixed Receptor    =  -6.80 kcal/mol
DOCKED: USER        Moving Ligand-Moving Receptor   =  +0.00 kcal/mol
DOCKED: USER    (2) Final Total Internal Energy     =  -0.91 kcal/mol
DOCKED: USER    (3) Torsional Free Energy           =  +1.49 kcal/mol
DOCKED: USER    (4) Unbound System's Energy         =  -0.91 kcal/mol
DOCKED: USER
DOCKED: USER
DOCKED: REMARK  5 active torsions:
DOCKED: REMARK  status: ('A' for Active; 'I' for Inactive)
DOCKED: REMARK    1  A    between atoms: C_2  and  C_19 
DOCKED: REMARK    2  A    between atoms: C_2  and  C_11 
DOCKED: REMARK    3  A    between atoms: C_19  and  C_20 
DOCKED: REMARK    4  A    between atoms: C_20  and  C_21 
DOCKED: REMARK    5  A    between atoms: C_21  and  N_22 
DOCKED: USER                              x       y       z     vdW  Elec       q    Type
DOCKED: USER                           _______ _______ _______ _____ _____    ______ ____
DOCKED: ROOT
DOCKED: ATOM      1  O   UNL     1     -39.836 -12.944  14.537 -0.04 -0.00    -0.346 OA 
DOCKED: ATOM      2  C   UNL     1     -39.012 -11.864  13.991 -0.13 +0.00    +0.130 C  
DOCKED: ATOM      3  C   UNL     1     -39.014 -12.123  12.512 -0.27 +0.00    +0.004 A  
DOCKED: ATOM      4  C   UNL     1     -39.854 -13.190  12.226 -0.30 +0.00    +0.006 A  
DOCKED: ATOM      5  C   UNL     1     -40.467 -13.695  13.475 -0.10 +0.00    +0.169 C  
DOCKED: ATOM      6  C   UNL     1     -38.335 -11.461  11.500 -0.33 -0.00    -0.001 A  
DOCKED: ATOM      7  C   UNL     1     -40.041 -13.632  10.927 -0.40 +0.00    +0.008 A  
DOCKED: ATOM      8  C   UNL     1     -38.510 -11.897  10.185 -0.18 +0.00    +0.010 A  
DOCKED: ATOM      9  C   UNL     1     -39.359 -12.977   9.901 -0.40 +0.00    +0.068 A  
DOCKED: ATOM     10  N   UNL     1     -39.665 -13.758   7.450 -2.73 -0.00    -0.191 NA 
DOCKED: ATOM     11  C   UNL     1     -39.527 -13.408   8.549 -0.29 +0.00    +0.101 C  
DOCKED: ENDROOT
DOCKED: BRANCH   2  12
DOCKED: ATOM     12  C   UNL     1     -39.654 -10.533  14.361 -0.11 +0.00    +0.038 C  
DOCKED: BRANCH  12  13
DOCKED: ATOM     13  C   UNL     1     -39.263  -9.433  13.376 -0.21 +0.00    +0.038 C  
DOCKED: BRANCH  13  14
DOCKED: ATOM     14  C   UNL     1     -37.887  -8.860  13.710 -0.10 +0.00    +0.251 C  
DOCKED: BRANCH  14  15
DOCKED: ATOM     15  N   UNL     1     -37.396  -8.042  12.607 -0.15 +0.00    +0.141 N  
DOCKED: ATOM     16  C   UNL     1     -37.231  -6.651  13.030 -0.07 +0.00    +0.285 C  
DOCKED: ATOM     17  C   UNL     1     -36.131  -8.571  12.096 -0.11 +0.00    +0.285 C  
DOCKED: ENDBRANCH  14  15
DOCKED: ENDBRANCH  13  14
DOCKED: ENDBRANCH  12  13
DOCKED: ENDBRANCH   2  12
DOCKED: BRANCH   2  18
DOCKED: ATOM     18  C   UNL     1     -37.657 -11.997  14.603 -0.16 +0.00    +0.006 A  
DOCKED: ATOM     19  C   UNL     1     -37.531 -12.314  15.955 -0.13 +0.00    +0.001 A  
DOCKED: ATOM     20  C   UNL     1     -36.264 -12.437  16.526 -0.12 +0.00    +0.029 A  
DOCKED: ATOM     21  C   UNL     1     -35.126 -12.245  15.745 -0.00 +0.00    +0.140 A  
DOCKED: ATOM     22  C   UNL     1     -35.252 -11.929  14.392 -0.20 +0.00    +0.029 A  
DOCKED: ATOM     23  F   UNL     1     -33.909 -12.366  16.293 -0.02 -0.00    -0.204 F  
DOCKED: ATOM     24  C   UNL     1     -36.519 -11.805  13.820 -0.25 +0.00    +0.001 A  
DOCKED: ENDBRANCH   2  18
DOCKED: TORSDOF 5
DOCKED: TER
DOCKED: ENDMDL
________________________________________________________________________________


    FINAL DOCKED STATE:
    ________________________


Run:   162 / 512
Time taken for this run:   0.002s

DOCKED: MODEL        162
DOCKED: USER    Run = 162
DOCKED: USER
DOCKED: USER    Estimated Free Energy of Binding    =  -3.63 kcal/mol  [=(1)+(2)+(3)-(4)]
DOCKED: USER
DOCKED: USER    (1) Final Intermolecular Energy     =  -5.12 kcal/mol
DOCKED: USER        vdW + Hbond + desolv Energy     =  -5.12 kcal/mol
DOCKED: USER        Electrostatic Energy            =  +0.00 kcal/mol
DOCKED: USER        Moving Ligand-Fixed Receptor    =  -5.12 kcal/mol
DOCKED: USER        Moving Ligand-Moving Receptor   =  +0.00 kcal/mol
DOCKED: USER    (2) Final Total Internal Energy     =  -1.14 kcal/mol
DOCKED: USER    (3) Torsional Free Energy           =  +1.49 kcal/mol
DOCKED: USER    (4) Unbound System's Energy         =  -1.14 kcal/mol
DOCKED: USER
DOCKED: USER
DOCKED: REMARK  5 active torsions:
DOCKED: REMARK  status: ('A' for Active; 'I' for Inactive)
DOCKED: REMARK    1  A    between atoms: C_2  and  C_19 
DOCKED: REMARK    2  A    between atoms: C_2  and  C_11 
DOCKED: REMARK    3  A    between atoms: C_19  and  C_20 
DOCKED: REMARK    4  A    between atoms: C_20  and  C_21 
DOCKED: REMARK    5  A    between atoms: C_21  and  N_22 
DOCKED: USER                              x       y       z     vdW  Elec       q    Type
DOCKED: USER                           _______ _______ _______ _____ _____    ______ ____
DOCKED: ROOT
DOCKED: ATOM      1  O   UNL     1     -36.960  -8.816  14.005 -0.03 -0.00    -0.346 OA 
DOCKED: ATOM      2  C   UNL     1     -36.115  -9.896  14.517 -0.10 +0.00    +0.130 C  
DOCKED: ATOM      3  C   UNL     1     -36.656 -11.125  13.847 -0.21 +0.00    +0.004 A  
DOCKED: ATOM      4  C   UNL     1     -37.650 -10.768  12.947 -0.26 +0.00    +0.006 A  
DOCKED: ATOM      5  C   UNL     1     -37.824  -9.298  12.949 -0.19 +0.00    +0.169 C  
DOCKED: ATOM      6  C   UNL     1     -36.290 -12.453  14.012 -0.27 -0.00    -0.001 A  
DOCKED: ATOM      7  C   UNL     1     -38.312 -11.718  12.189 -0.33 +0.00    +0.008 A  
DOCKED: ATOM      8  C   UNL     1     -36.951 -13.424  13.258 -0.37 +0.00    +0.010 A  
DOCKED: ATOM      9  C   UNL     1     -37.957 -13.058  12.351 -0.32 +0.00    +0.068 A  
DOCKED: ATOM     10  N   UNL     1     -39.161 -14.885  10.963 -2.37 -0.00    -0.191 NA 
DOCKED: ATOM     11  C   UNL     1     -38.621 -14.066  11.586 -0.29 +0.00    +0.101 C  
DOCKED: ENDROOT
DOCKED: BRANCH   2  12
DOCKED: ATOM     12  C   UNL     1     -34.669  -9.599  14.135 -0.13 +0.00    +0.038 C  
DOCKED: BRANCH  12  13
DOCKED: ATOM     13  C   UNL     1     -34.146  -8.358  14.855 -0.05 +0.00    +0.038 C  
DOCKED: BRANCH  13  14
DOCKED: ATOM     14  C   UNL     1     -34.544  -7.084  14.112 -0.02 +0.00    +0.251 C  
DOCKED: BRANCH  14  15
DOCKED: ATOM     15  N   UNL     1     -33.647  -6.852  12.986 -0.03 +0.00    +0.141 N  
DOCKED: ATOM     16  C   UNL     1     -33.970  -5.588  12.321 -0.01 +0.00    +0.285 C  
DOCKED: ATOM     17  C   UNL     1     -32.253  -6.849  13.430 -0.01 +0.00    +0.285 C  
DOCKED: ENDBRANCH  14  15
DOCKED: ENDBRANCH  13  14
DOCKED: ENDBRANCH  12  13
DOCKED: ENDBRANCH   2  12
DOCKED: BRANCH   2  18
DOCKED: ATOM     18  C   UNL     1     -36.286  -9.918  15.999 -0.04 +0.00    +0.006 A  
DOCKED: ATOM     19  C   UNL     1     -35.607 -10.865  16.765 -0.06 +0.00    +0.001 A  
DOCKED: ATOM     20  C   UNL     1     -35.769 -10.885  18.151 -0.03 +0.00    +0.029 A  
DOCKED: ATOM     21  C   UNL     1     -36.607  -9.959  18.769 -0.00 +0.00    +0.140 A  
DOCKED: ATOM     22  C   UNL     1     -37.285  -9.011  18.002 -0.00 +0.00    +0.029 A  
DOCKED: ATOM     23  F   UNL     1     -36.760  -9.977  20.099 -0.00 -0.00    -0.204 F  
DOCKED: ATOM     24  C   UNL     1     -37.125  -8.991  16.616 -0.01 +0.00    +0.001 A  
DOCKED: ENDBRANCH   2  18
DOCKED: TORSDOF 5
DOCKED: TER
DOCKED: ENDMDL
________________________________________________________________________________


    FINAL DOCKED STATE:
    ________________________


Run:   163 / 512
Time taken for this run:   0.002s

DOCKED: MODEL        163
DOCKED: USER    Run = 163
DOCKED: USER
DOCKED: USER    Estimated Free Energy of Binding    =  -3.98 kcal/mol  [=(1)+(2)+(3)-(4)]
DOCKED: USER
DOCKED: USER    (1) Final Intermolecular Energy     =  -5.47 kcal/mol
DOCKED: USER        vdW + Hbond + desolv Energy     =  -5.47 kcal/mol
DOCKED: USER        Electrostatic Energy            =  +0.00 kcal/mol
DOCKED: USER        Moving Ligand-Fixed Receptor    =  -5.47 kcal/mol
DOCKED: USER        Moving Ligand-Moving Receptor   =  +0.00 kcal/mol
DOCKED: USER    (2) Final Total Internal Energy     =  -1.05 kcal/mol
DOCKED: USER    (3) Torsional Free Energy           =  +1.49 kcal/mol
DOCKED: USER    (4) Unbound System's Energy         =  -1.05 kcal/mol
DOCKED: USER
DOCKED: USER
DOCKED: REMARK  5 active torsions:
DOCKED: REMARK  status: ('A' for Active; 'I' for Inactive)
DOCKED: REMARK    1  A    between atoms: C_2  and  C_19 
DOCKED: REMARK    2  A    between atoms: C_2  and  C_11 
DOCKED: REMARK    3  A    between atoms: C_19  and  C_20 
DOCKED: REMARK    4  A    between atoms: C_20  and  C_21 
DOCKED: REMARK    5  A    between atoms: C_21  and  N_22 
DOCKED: USER                              x       y       z     vdW  Elec       q    Type
DOCKED: USER                           _______ _______ _______ _____ _____    ______ ____
DOCKED: ROOT
DOCKED: ATOM      1  O   UNL     1     -40.640  -8.000  13.617 -0.06 -0.00    -0.346 OA 
DOCKED: ATOM      2  C   UNL     1     -39.214  -8.124  13.309 -0.17 +0.00    +0.130 C  
DOCKED: ATOM      3  C   UNL     1     -39.065  -9.549  12.863 -0.23 +0.00    +0.004 A  
DOCKED: ATOM      4  C   UNL     1     -40.312 -10.156  12.813 -0.21 +0.00    +0.006 A  
DOCKED: ATOM      5  C   UNL     1     -41.359  -9.186  13.205 -0.18 +0.00    +0.169 C  
DOCKED: ATOM      6  C   UNL     1     -37.918 -10.250  12.518 -0.28 -0.00    -0.001 A  
DOCKED: ATOM      7  C   UNL     1     -40.455 -11.477  12.424 -0.23 +0.00    +0.008 A  
DOCKED: ATOM      8  C   UNL     1     -38.046 -11.584  12.127 -0.34 +0.00    +0.010 A  
DOCKED: ATOM      9  C   UNL     1     -39.308 -12.194  12.080 -0.26 +0.00    +0.068 A  
DOCKED: ATOM     10  N   UNL     1     -39.510 -14.670  11.345 -2.55 -0.00    -0.191 NA 
DOCKED: ATOM     11  C   UNL     1     -39.419 -13.560  11.675 -0.36 +0.00    +0.101 C  
DOCKED: ENDROOT
DOCKED: BRANCH   2  12
DOCKED: ATOM     12  C   UNL     1     -38.868  -7.120  12.216 -0.18 +0.00    +0.038 C  
DOCKED: BRANCH  12  13
DOCKED: ATOM     13  C   UNL     1     -40.068  -6.245  11.863 -0.10 +0.00    +0.038 C  
DOCKED: BRANCH  13  14
DOCKED: ATOM     14  C   UNL     1     -40.133  -5.012  12.762 -0.06 +0.00    +0.251 C  
DOCKED: BRANCH  14  15
DOCKED: ATOM     15  N   UNL     1     -40.792  -3.911  12.068 -0.06 +0.00    +0.141 N  
DOCKED: ATOM     16  C   UNL     1     -41.101  -2.825  12.999 -0.00 +0.00    +0.285 C  
DOCKED: ATOM     17  C   UNL     1     -39.955  -3.418  10.973 -0.05 +0.00    +0.285 C  
DOCKED: ENDBRANCH  14  15
DOCKED: ENDBRANCH  13  14
DOCKED: ENDBRANCH  12  13
DOCKED: ENDBRANCH   2  12
DOCKED: BRANCH   2  18
DOCKED: ATOM     18  C   UNL     1     -38.469  -7.827  14.568 -0.06 +0.00    +0.006 A  
DOCKED: ATOM     19  C   UNL     1     -38.176  -6.507  14.909 -0.03 +0.00    +0.001 A  
DOCKED: ATOM     20  C   UNL     1     -37.479  -6.231  16.086 -0.01 +0.00    +0.029 A  
DOCKED: ATOM     21  C   UNL     1     -37.077  -7.274  16.920 -0.00 +0.00    +0.140 A  
DOCKED: ATOM     22  C   UNL     1     -37.371  -8.594  16.578 -0.01 +0.00    +0.029 A  
DOCKED: ATOM     23  F   UNL     1     -36.410  -7.009  18.050 +0.00 -0.00    -0.204 F  
DOCKED: ATOM     24  C   UNL     1     -38.068  -8.871  15.400 -0.04 +0.00    +0.001 A  
DOCKED: ENDBRANCH   2  18
DOCKED: TORSDOF 5
DOCKED: TER
DOCKED: ENDMDL
________________________________________________________________________________


    FINAL DOCKED STATE:
    ________________________


Run:   164 / 512
Time taken for this run:   0.002s

DOCKED: MODEL        164
DOCKED: USER    Run = 164
DOCKED: USER
DOCKED: USER    Estimated Free Energy of Binding    =  -3.90 kcal/mol  [=(1)+(2)+(3)-(4)]
DOCKED: USER
DOCKED: USER    (1) Final Intermolecular Energy     =  -5.39 kcal/mol
DOCKED: USER        vdW + Hbond + desolv Energy     =  -5.39 kcal/mol
DOCKED: USER        Electrostatic Energy            =  +0.00 kcal/mol
DOCKED: USER        Moving Ligand-Fixed Receptor    =  -5.39 kcal/mol
DOCKED: USER        Moving Ligand-Moving Receptor   =  +0.00 kcal/mol
DOCKED: USER    (2) Final Total Internal Energy     =  -1.02 kcal/mol
DOCKED: USER    (3) Torsional Free Energy           =  +1.49 kcal/mol
DOCKED: USER    (4) Unbound System's Energy         =  -1.02 kcal/mol
DOCKED: USER
DOCKED: USER
DOCKED: REMARK  5 active torsions:
DOCKED: REMARK  status: ('A' for Active; 'I' for Inactive)
DOCKED: REMARK    1  A    between atoms: C_2  and  C_19 
DOCKED: REMARK    2  A    between atoms: C_2  and  C_11 
DOCKED: REMARK    3  A    between atoms: C_19  and  C_20 
DOCKED: REMARK    4  A    between atoms: C_20  and  C_21 
DOCKED: REMARK    5  A    between atoms: C_21  and  N_22 
DOCKED: USER                              x       y       z     vdW  Elec       q    Type
DOCKED: USER                           _______ _______ _______ _____ _____    ______ ____
DOCKED: ROOT
DOCKED: ATOM      1  O   UNL     1     -31.498  -0.300   5.206 -0.08 -0.00    -0.346 OA 
DOCKED: ATOM      2  C   UNL     1     -31.363  -1.668   4.703 -0.11 +0.00    +0.130 C  
DOCKED: ATOM      3  C   UNL     1     -32.512  -1.814   3.748 -0.16 +0.00    +0.004 A  
DOCKED: ATOM      4  C   UNL     1     -33.179  -0.603   3.630 -0.25 +0.00    +0.006 A  
DOCKED: ATOM      5  C   UNL     1     -32.521   0.417   4.477 -0.20 +0.00    +0.169 C  
DOCKED: ATOM      6  C   UNL     1     -32.926  -2.927   3.031 -0.15 -0.00    -0.001 A  
DOCKED: ATOM      7  C   UNL     1     -34.279  -0.464   2.802 -0.23 +0.00    +0.008 A  
DOCKED: ATOM      8  C   UNL     1     -34.037  -2.804   2.194 -0.24 +0.00    +0.010 A  
DOCKED: ATOM      9  C   UNL     1     -34.709  -1.578   2.080 -0.36 +0.00    +0.068 A  
DOCKED: ATOM     10  N   UNL     1     -36.764  -1.382   0.514 -2.56 -0.00    -0.191 NA 
DOCKED: ATOM     11  C   UNL     1     -35.843  -1.470   1.216 -0.39 +0.00    +0.101 C  
DOCKED: ENDROOT
DOCKED: BRANCH   2  12
DOCKED: ATOM     12  C   UNL     1     -30.005  -1.800   4.023 -0.04 +0.00    +0.038 C  
DOCKED: BRANCH  12  13
DOCKED: ATOM     13  C   UNL     1     -29.910  -3.094   3.217 -0.02 +0.00    +0.038 C  
DOCKED: BRANCH  13  14
DOCKED: ATOM     14  C   UNL     1     -30.201  -2.842   1.738 +0.00 +0.00    +0.251 C  
DOCKED: BRANCH  14  15
DOCKED: ATOM     15  N   UNL     1     -30.118  -4.088   0.986 -0.01 +0.00    +0.141 N  
DOCKED: ATOM     16  C   UNL     1     -29.834  -5.212   1.879 -0.00 +0.00    +0.285 C  
DOCKED: ATOM     17  C   UNL     1     -31.360  -4.328   0.248 -0.05 +0.00    +0.285 C  
DOCKED: ENDBRANCH  14  15
DOCKED: ENDBRANCH  13  14
DOCKED: ENDBRANCH  12  13
DOCKED: ENDBRANCH   2  12
DOCKED: BRANCH   2  18
DOCKED: ATOM     18  C   UNL     1     -31.467  -2.578   5.881 -0.12 +0.00    +0.006 A  
DOCKED: ATOM     19  C   UNL     1     -30.323  -2.917   6.602 -0.07 +0.00    +0.001 A  
DOCKED: ATOM     20  C   UNL     1     -30.421  -3.769   7.703 -0.05 +0.00    +0.029 A  
DOCKED: ATOM     21  C   UNL     1     -31.662  -4.280   8.081 -0.05 +0.00    +0.140 A  
DOCKED: ATOM     22  C   UNL     1     -32.806  -3.940   7.359 -0.13 +0.00    +0.029 A  
DOCKED: ATOM     23  F   UNL     1     -31.756  -5.096   9.139 -0.00 -0.00    -0.204 F  
DOCKED: ATOM     24  C   UNL     1     -32.708  -3.089   6.257 -0.12 +0.00    +0.001 A  
DOCKED: ENDBRANCH   2  18
DOCKED: TORSDOF 5
DOCKED: TER
DOCKED: ENDMDL
________________________________________________________________________________


    FINAL DOCKED STATE:
    ________________________


Run:   165 / 512
Time taken for this run:   0.002s

DOCKED: MODEL        165
DOCKED: USER    Run = 165
DOCKED: USER
DOCKED: USER    Estimated Free Energy of Binding    =  -3.46 kcal/mol  [=(1)+(2)+(3)-(4)]
DOCKED: USER
DOCKED: USER    (1) Final Intermolecular Energy     =  -4.95 kcal/mol
DOCKED: USER        vdW + Hbond + desolv Energy     =  -4.95 kcal/mol
DOCKED: USER        Electrostatic Energy            =  +0.00 kcal/mol
DOCKED: USER        Moving Ligand-Fixed Receptor    =  -4.95 kcal/mol
DOCKED: USER        Moving Ligand-Moving Receptor   =  +0.00 kcal/mol
DOCKED: USER    (2) Final Total Internal Energy     =  -1.22 kcal/mol
DOCKED: USER    (3) Torsional Free Energy           =  +1.49 kcal/mol
DOCKED: USER    (4) Unbound System's Energy         =  -1.22 kcal/mol
DOCKED: USER
DOCKED: USER
DOCKED: REMARK  5 active torsions:
DOCKED: REMARK  status: ('A' for Active; 'I' for Inactive)
DOCKED: REMARK    1  A    between atoms: C_2  and  C_19 
DOCKED: REMARK    2  A    between atoms: C_2  and  C_11 
DOCKED: REMARK    3  A    between atoms: C_19  and  C_20 
DOCKED: REMARK    4  A    between atoms: C_20  and  C_21 
DOCKED: REMARK    5  A    between atoms: C_21  and  N_22 
DOCKED: USER                              x       y       z     vdW  Elec       q    Type
DOCKED: USER                           _______ _______ _______ _____ _____    ______ ____
DOCKED: ROOT
DOCKED: ATOM      1  O   UNL     1     -30.137  -9.871   5.970 +0.01 -0.00    -0.346 OA 
DOCKED: ATOM      2  C   UNL     1     -29.555 -11.096   5.420 -0.06 +0.00    +0.130 C  
DOCKED: ATOM      3  C   UNL     1     -29.993 -12.164   6.380 -0.10 +0.00    +0.004 A  
DOCKED: ATOM      4  C   UNL     1     -30.842 -11.618   7.332 -0.15 +0.00    +0.006 A  
DOCKED: ATOM      5  C   UNL     1     -31.033 -10.174   7.065 -0.09 +0.00    +0.169 C  
DOCKED: ATOM      6  C   UNL     1     -29.674 -13.514   6.402 -0.12 -0.00    -0.001 A  
DOCKED: ATOM      7  C   UNL     1     -31.395 -12.395   8.335 -0.27 +0.00    +0.008 A  
DOCKED: ATOM      8  C   UNL     1     -30.221 -14.310   7.410 -0.23 +0.00    +0.010 A  
DOCKED: ATOM      9  C   UNL     1     -31.077 -13.753   8.371 -0.29 +0.00    +0.068 A  
DOCKED: ATOM     10  N   UNL     1     -32.079 -15.260  10.226 -2.64 -0.00    -0.191 NA 
DOCKED: ATOM     11  C   UNL     1     -31.629 -14.584   9.395 -0.38 +0.00    +0.101 C  
DOCKED: ENDROOT
DOCKED: BRANCH   2  12
DOCKED: ATOM     12  C   UNL     1     -30.103 -11.302   4.013 -0.12 +0.00    +0.038 C  
DOCKED: BRANCH  12  13
DOCKED: ATOM     13  C   UNL     1     -31.291 -10.382   3.738 -0.08 +0.00    +0.038 C  
DOCKED: BRANCH  13  14
DOCKED: ATOM     14  C   UNL     1     -30.827  -9.034   3.190 -0.08 +0.00    +0.251 C  
DOCKED: BRANCH  14  15
DOCKED: ATOM     15  N   UNL     1     -31.720  -7.971   3.636 -0.10 +0.00    +0.141 N  
DOCKED: ATOM     16  C   UNL     1     -30.965  -6.751   3.928 -0.01 +0.00    +0.285 C  
DOCKED: ATOM     17  C   UNL     1     -32.747  -7.703   2.628 -0.19 +0.00    +0.285 C  
DOCKED: ENDBRANCH  14  15
DOCKED: ENDBRANCH  13  14
DOCKED: ENDBRANCH  12  13
DOCKED: ENDBRANCH   2  12
DOCKED: BRANCH   2  18
DOCKED: ATOM     18  C   UNL     1     -28.075 -10.904   5.399 -0.01 +0.00    +0.006 A  
DOCKED: ATOM     19  C   UNL     1     -27.266 -11.800   4.701 -0.01 +0.00    +0.001 A  
DOCKED: ATOM     20  C   UNL     1     -25.883 -11.619   4.682 -0.00 +0.00    +0.029 A  
DOCKED: ATOM     21  C   UNL     1     -25.310 -10.544   5.361 -0.00 +0.00    +0.140 A  
DOCKED: ATOM     22  C   UNL     1     -26.120  -9.649   6.059 -0.00 +0.00    +0.029 A  
DOCKED: ATOM     23  F   UNL     1     -23.983 -10.370   5.342 +0.00 -0.00    -0.204 F  
DOCKED: ATOM     24  C   UNL     1     -27.504  -9.829   6.079 -0.00 +0.00    +0.001 A  
DOCKED: ENDBRANCH   2  18
DOCKED: TORSDOF 5
DOCKED: TER
DOCKED: ENDMDL
________________________________________________________________________________


    FINAL DOCKED STATE:
    ________________________


Run:   166 / 512
Time taken for this run:   0.002s

DOCKED: MODEL        166
DOCKED: USER    Run = 166
DOCKED: USER
DOCKED: USER    Estimated Free Energy of Binding    =  -4.23 kcal/mol  [=(1)+(2)+(3)-(4)]
DOCKED: USER
DOCKED: USER    (1) Final Intermolecular Energy     =  -5.72 kcal/mol
DOCKED: USER        vdW + Hbond + desolv Energy     =  -5.72 kcal/mol
DOCKED: USER        Electrostatic Energy            =  +0.00 kcal/mol
DOCKED: USER        Moving Ligand-Fixed Receptor    =  -5.72 kcal/mol
DOCKED: USER        Moving Ligand-Moving Receptor   =  +0.00 kcal/mol
DOCKED: USER    (2) Final Total Internal Energy     =  -1.36 kcal/mol
DOCKED: USER    (3) Torsional Free Energy           =  +1.49 kcal/mol
DOCKED: USER    (4) Unbound System's Energy         =  -1.36 kcal/mol
DOCKED: USER
DOCKED: USER
DOCKED: REMARK  5 active torsions:
DOCKED: REMARK  status: ('A' for Active; 'I' for Inactive)
DOCKED: REMARK    1  A    between atoms: C_2  and  C_19 
DOCKED: REMARK    2  A    between atoms: C_2  and  C_11 
DOCKED: REMARK    3  A    between atoms: C_19  and  C_20 
DOCKED: REMARK    4  A    between atoms: C_20  and  C_21 
DOCKED: REMARK    5  A    between atoms: C_21  and  N_22 
DOCKED: USER                              x       y       z     vdW  Elec       q    Type
DOCKED: USER                           _______ _______ _______ _____ _____    ______ ____
DOCKED: ROOT
DOCKED: ATOM      1  O   UNL     1     -35.318  -9.603  14.212 -0.06 -0.00    -0.346 OA 
DOCKED: ATOM      2  C   UNL     1     -36.505  -8.998  13.606 -0.14 +0.00    +0.130 C  
DOCKED: ATOM      3  C   UNL     1     -37.240 -10.166  13.014 -0.24 +0.00    +0.004 A  
DOCKED: ATOM      4  C   UNL     1     -36.590 -11.345  13.348 -0.23 +0.00    +0.006 A  
DOCKED: ATOM      5  C   UNL     1     -35.404 -11.046  14.182 -0.15 +0.00    +0.169 C  
DOCKED: ATOM      6  C   UNL     1     -38.399 -10.183  12.252 -0.23 -0.00    -0.001 A  
DOCKED: ATOM      7  C   UNL     1     -37.069 -12.575  12.931 -0.32 +0.00    +0.008 A  
DOCKED: ATOM      8  C   UNL     1     -38.892 -11.416  11.819 -0.27 +0.00    +0.010 A  
DOCKED: ATOM      9  C   UNL     1     -38.231 -12.605  12.158 -0.31 +0.00    +0.068 A  
DOCKED: ATOM     10  N   UNL     1     -39.176 -14.876  11.343 -2.61 -0.00    -0.191 NA 
DOCKED: ATOM     11  C   UNL     1     -38.751 -13.858  11.708 -0.33 +0.00    +0.101 C  
DOCKED: ENDROOT
DOCKED: BRANCH   2  12
DOCKED: ATOM     12  C   UNL     1     -37.297  -8.289  14.698 -0.06 +0.00    +0.038 C  
DOCKED: BRANCH  12  13
DOCKED: ATOM     13  C   UNL     1     -36.374  -7.707  15.767 -0.02 +0.00    +0.038 C  
DOCKED: BRANCH  13  14
DOCKED: ATOM     14  C   UNL     1     -36.829  -8.113  17.167 -0.00 +0.00    +0.251 C  
DOCKED: BRANCH  14  15
DOCKED: ATOM     15  N   UNL     1     -35.921  -9.106  17.728 -0.00 +0.00    +0.141 N  
DOCKED: ATOM     16  C   UNL     1     -36.391 -10.461  17.433 -0.01 +0.00    +0.285 C  
DOCKED: ATOM     17  C   UNL     1     -34.565  -8.915  17.210 -0.00 +0.00    +0.285 C  
DOCKED: ENDBRANCH  14  15
DOCKED: ENDBRANCH  13  14
DOCKED: ENDBRANCH  12  13
DOCKED: ENDBRANCH   2  12
DOCKED: BRANCH   2  18
DOCKED: ATOM     18  C   UNL     1     -36.024  -8.032  12.576 -0.16 +0.00    +0.006 A  
DOCKED: ATOM     19  C   UNL     1     -36.721  -6.844  12.356 -0.12 +0.00    +0.001 A  
DOCKED: ATOM     20  C   UNL     1     -36.270  -5.941  11.392 -0.10 +0.00    +0.029 A  
DOCKED: ATOM     21  C   UNL     1     -35.124  -6.227  10.651 -0.07 +0.00    +0.140 A  
DOCKED: ATOM     22  C   UNL     1     -34.428  -7.414  10.872 -0.13 +0.00    +0.029 A  
DOCKED: ATOM     23  F   UNL     1     -34.691  -5.359   9.727 -0.01 -0.00    -0.204 F  
DOCKED: ATOM     24  C   UNL     1     -34.878  -8.319  11.835 -0.13 +0.00    +0.001 A  
DOCKED: ENDBRANCH   2  18
DOCKED: TORSDOF 5
DOCKED: TER
DOCKED: ENDMDL
________________________________________________________________________________


    FINAL DOCKED STATE:
    ________________________


Run:   167 / 512
Time taken for this run:   0.002s

DOCKED: MODEL        167
DOCKED: USER    Run = 167
DOCKED: USER
DOCKED: USER    Estimated Free Energy of Binding    =  -4.11 kcal/mol  [=(1)+(2)+(3)-(4)]
DOCKED: USER
DOCKED: USER    (1) Final Intermolecular Energy     =  -5.60 kcal/mol
DOCKED: USER        vdW + Hbond + desolv Energy     =  -5.60 kcal/mol
DOCKED: USER        Electrostatic Energy            =  +0.00 kcal/mol
DOCKED: USER        Moving Ligand-Fixed Receptor    =  -5.60 kcal/mol
DOCKED: USER        Moving Ligand-Moving Receptor   =  +0.00 kcal/mol
DOCKED: USER    (2) Final Total Internal Energy     =  -1.21 kcal/mol
DOCKED: USER    (3) Torsional Free Energy           =  +1.49 kcal/mol
DOCKED: USER    (4) Unbound System's Energy         =  -1.21 kcal/mol
DOCKED: USER
DOCKED: USER
DOCKED: REMARK  5 active torsions:
DOCKED: REMARK  status: ('A' for Active; 'I' for Inactive)
DOCKED: REMARK    1  A    between atoms: C_2  and  C_19 
DOCKED: REMARK    2  A    between atoms: C_2  and  C_11 
DOCKED: REMARK    3  A    between atoms: C_19  and  C_20 
DOCKED: REMARK    4  A    between atoms: C_20  and  C_21 
DOCKED: REMARK    5  A    between atoms: C_21  and  N_22 
DOCKED: USER                              x       y       z     vdW  Elec       q    Type
DOCKED: USER                           _______ _______ _______ _____ _____    ______ ____
DOCKED: ROOT
DOCKED: ATOM      1  O   UNL     1     -29.461 -12.996   3.937 -0.02 -0.00    -0.346 OA 
DOCKED: ATOM      2  C   UNL     1     -29.642 -11.820   4.788 -0.09 +0.00    +0.130 C  
DOCKED: ATOM      3  C   UNL     1     -30.201 -12.381   6.063 -0.12 +0.00    +0.004 A  
DOCKED: ATOM      4  C   UNL     1     -30.233 -13.767   5.989 -0.16 +0.00    +0.006 A  
DOCKED: ATOM      5  C   UNL     1     -29.694 -14.212   4.685 -0.09 +0.00    +0.169 C  
DOCKED: ATOM      6  C   UNL     1     -30.636 -11.720   7.202 -0.13 -0.00    -0.001 A  
DOCKED: ATOM      7  C   UNL     1     -30.702 -14.534   7.042 -0.27 +0.00    +0.008 A  
DOCKED: ATOM      8  C   UNL     1     -31.115 -12.479   8.271 -0.24 +0.00    +0.010 A  
DOCKED: ATOM      9  C   UNL     1     -31.147 -13.880   8.191 -0.30 +0.00    +0.068 A  
DOCKED: ATOM     10  N   UNL     1     -32.038 -15.260  10.195 -2.67 -0.00    -0.191 NA 
DOCKED: ATOM     11  C   UNL     1     -31.639 -14.641   9.296 -0.40 +0.00    +0.101 C  
DOCKED: ENDROOT
DOCKED: BRANCH   2  12
DOCKED: ATOM     12  C   UNL     1     -28.287 -11.149   4.979 -0.02 +0.00    +0.038 C  
DOCKED: BRANCH  12  13
DOCKED: ATOM     13  C   UNL     1     -28.381  -9.968   5.943 -0.01 +0.00    +0.038 C  
DOCKED: BRANCH  13  14
DOCKED: ATOM     14  C   UNL     1     -27.780  -8.706   5.326 -0.00 +0.00    +0.251 C  
DOCKED: BRANCH  14  15
DOCKED: ATOM     15  N   UNL     1     -28.419  -8.412   4.049 -0.00 +0.00    +0.141 N  
DOCKED: ATOM     16  C   UNL     1     -29.265  -7.222   4.157 +0.00 +0.00    +0.285 C  
DOCKED: ATOM     17  C   UNL     1     -27.414  -8.226   3.001 +0.00 +0.00    +0.285 C  
DOCKED: ENDBRANCH  14  15
DOCKED: ENDBRANCH  13  14
DOCKED: ENDBRANCH  12  13
DOCKED: ENDBRANCH   2  12
DOCKED: BRANCH   2  18
DOCKED: ATOM     18  C   UNL     1     -30.597 -10.914   4.084 -0.10 +0.00    +0.006 A  
DOCKED: ATOM     19  C   UNL     1     -30.765 -11.017   2.704 -0.14 +0.00    +0.001 A  
DOCKED: ATOM     20  C   UNL     1     -31.658 -10.169   2.046 -0.20 +0.00    +0.029 A  
DOCKED: ATOM     21  C   UNL     1     -32.381  -9.222   2.769 -0.19 +0.00    +0.140 A  
DOCKED: ATOM     22  C   UNL     1     -32.213  -9.120   4.150 -0.16 +0.00    +0.029 A  
DOCKED: ATOM     23  F   UNL     1     -33.239  -8.410   2.138 -0.14 -0.00    -0.204 F  
DOCKED: ATOM     24  C   UNL     1     -31.319  -9.967   4.808 -0.13 +0.00    +0.001 A  
DOCKED: ENDBRANCH   2  18
DOCKED: TORSDOF 5
DOCKED: TER
DOCKED: ENDMDL
________________________________________________________________________________


    FINAL DOCKED STATE:
    ________________________


Run:   168 / 512
Time taken for this run:   0.002s

DOCKED: MODEL        168
DOCKED: USER    Run = 168
DOCKED: USER
DOCKED: USER    Estimated Free Energy of Binding    =  -4.55 kcal/mol  [=(1)+(2)+(3)-(4)]
DOCKED: USER
DOCKED: USER    (1) Final Intermolecular Energy     =  -6.04 kcal/mol
DOCKED: USER        vdW + Hbond + desolv Energy     =  -6.04 kcal/mol
DOCKED: USER        Electrostatic Energy            =  +0.00 kcal/mol
DOCKED: USER        Moving Ligand-Fixed Receptor    =  -6.04 kcal/mol
DOCKED: USER        Moving Ligand-Moving Receptor   =  +0.00 kcal/mol
DOCKED: USER    (2) Final Total Internal Energy     =  -1.09 kcal/mol
DOCKED: USER    (3) Torsional Free Energy           =  +1.49 kcal/mol
DOCKED: USER    (4) Unbound System's Energy         =  -1.09 kcal/mol
DOCKED: USER
DOCKED: USER
DOCKED: REMARK  5 active torsions:
DOCKED: REMARK  status: ('A' for Active; 'I' for Inactive)
DOCKED: REMARK    1  A    between atoms: C_2  and  C_19 
DOCKED: REMARK    2  A    between atoms: C_2  and  C_11 
DOCKED: REMARK    3  A    between atoms: C_19  and  C_20 
DOCKED: REMARK    4  A    between atoms: C_20  and  C_21 
DOCKED: REMARK    5  A    between atoms: C_21  and  N_22 
DOCKED: USER                              x       y       z     vdW  Elec       q    Type
DOCKED: USER                           _______ _______ _______ _____ _____    ______ ____
DOCKED: ROOT
DOCKED: ATOM      1  O   UNL     1     -37.344  -8.115  12.655 -0.09 -0.00    -0.346 OA 
DOCKED: ATOM      2  C   UNL     1     -38.613  -8.366  13.339 -0.16 +0.00    +0.130 C  
DOCKED: ATOM      3  C   UNL     1     -38.932  -9.792  12.995 -0.22 +0.00    +0.004 A  
DOCKED: ATOM      4  C   UNL     1     -37.884 -10.343  12.272 -0.27 +0.00    +0.006 A  
DOCKED: ATOM      5  C   UNL     1     -36.810  -9.339  12.099 -0.11 +0.00    +0.169 C  
DOCKED: ATOM      6  C   UNL     1     -40.054 -10.545  13.308 -0.19 -0.00    -0.001 A  
DOCKED: ATOM      7  C   UNL     1     -37.922 -11.656  11.834 -0.34 +0.00    +0.008 A  
DOCKED: ATOM      8  C   UNL     1     -40.110 -11.869  12.870 -0.22 +0.00    +0.010 A  
DOCKED: ATOM      9  C   UNL     1     -39.049 -12.422  12.137 -0.27 +0.00    +0.068 A  
DOCKED: ATOM     10  N   UNL     1     -39.182 -14.885  11.344 -2.62 -0.00    -0.191 NA 
DOCKED: ATOM     11  C   UNL     1     -39.122 -13.780  11.699 -0.37 +0.00    +0.101 C  
DOCKED: ENDROOT
DOCKED: BRANCH   2  12
DOCKED: ATOM     12  C   UNL     1     -38.408  -8.147  14.833 -0.05 +0.00    +0.038 C  
DOCKED: BRANCH  12  13
DOCKED: ATOM     13  C   UNL     1     -37.060  -7.488  15.119 -0.03 +0.00    +0.038 C  
DOCKED: BRANCH  13  14
DOCKED: ATOM     14  C   UNL     1     -35.937  -8.523  15.147 -0.02 +0.00    +0.251 C  
DOCKED: BRANCH  14  15
DOCKED: ATOM     15  N   UNL     1     -35.931  -9.231  16.422 -0.01 +0.00    +0.141 N  
DOCKED: ATOM     16  C   UNL     1     -36.500  -8.394  17.480 -0.00 +0.00    +0.285 C  
DOCKED: ATOM     17  C   UNL     1     -36.672 -10.489  16.317 -0.02 +0.00    +0.285 C  
DOCKED: ENDBRANCH  14  15
DOCKED: ENDBRANCH  13  14
DOCKED: ENDBRANCH  12  13
DOCKED: ENDBRANCH   2  12
DOCKED: BRANCH   2  18
DOCKED: ATOM     18  C   UNL     1     -39.605  -7.398  12.785 -0.21 +0.00    +0.006 A  
DOCKED: ATOM     19  C   UNL     1     -39.168  -6.287  12.065 -0.18 +0.00    +0.001 A  
DOCKED: ATOM     20  C   UNL     1     -40.097  -5.383  11.548 -0.14 +0.00    +0.029 A  
DOCKED: ATOM     21  C   UNL     1     -41.460  -5.592  11.750 -0.09 +0.00    +0.140 A  
DOCKED: ATOM     22  C   UNL     1     -41.897  -6.704  12.469 -0.20 +0.00    +0.029 A  
DOCKED: ATOM     23  F   UNL     1     -42.352  -4.726  11.251 -0.03 -0.00    -0.204 F  
DOCKED: ATOM     24  C   UNL     1     -40.969  -7.609  12.988 -0.22 +0.00    +0.001 A  
DOCKED: ENDBRANCH   2  18
DOCKED: TORSDOF 5
DOCKED: TER
DOCKED: ENDMDL
________________________________________________________________________________


    FINAL DOCKED STATE:
    ________________________


Run:   169 / 512
Time taken for this run:   0.002s

DOCKED: MODEL        169
DOCKED: USER    Run = 169
DOCKED: USER
DOCKED: USER    Estimated Free Energy of Binding    =  -4.25 kcal/mol  [=(1)+(2)+(3)-(4)]
DOCKED: USER
DOCKED: USER    (1) Final Intermolecular Energy     =  -5.74 kcal/mol
DOCKED: USER        vdW + Hbond + desolv Energy     =  -5.74 kcal/mol
DOCKED: USER        Electrostatic Energy            =  +0.00 kcal/mol
DOCKED: USER        Moving Ligand-Fixed Receptor    =  -5.74 kcal/mol
DOCKED: USER        Moving Ligand-Moving Receptor   =  +0.00 kcal/mol
DOCKED: USER    (2) Final Total Internal Energy     =  -0.99 kcal/mol
DOCKED: USER    (3) Torsional Free Energy           =  +1.49 kcal/mol
DOCKED: USER    (4) Unbound System's Energy         =  -0.99 kcal/mol
DOCKED: USER
DOCKED: USER
DOCKED: REMARK  5 active torsions:
DOCKED: REMARK  status: ('A' for Active; 'I' for Inactive)
DOCKED: REMARK    1  A    between atoms: C_2  and  C_19 
DOCKED: REMARK    2  A    between atoms: C_2  and  C_11 
DOCKED: REMARK    3  A    between atoms: C_19  and  C_20 
DOCKED: REMARK    4  A    between atoms: C_20  and  C_21 
DOCKED: REMARK    5  A    between atoms: C_21  and  N_22 
DOCKED: USER                              x       y       z     vdW  Elec       q    Type
DOCKED: USER                           _______ _______ _______ _____ _____    ______ ____
DOCKED: ROOT
DOCKED: ATOM      1  O   UNL     1     -40.673 -12.237  15.343 -0.00 -0.00    -0.346 OA 
DOCKED: ATOM      2  C   UNL     1     -39.215 -12.141  15.259 -0.09 +0.00    +0.130 C  
DOCKED: ATOM      3  C   UNL     1     -38.907 -12.571  13.854 -0.18 +0.00    +0.004 A  
DOCKED: ATOM      4  C   UNL     1     -40.090 -12.788  13.162 -0.22 +0.00    +0.006 A  
DOCKED: ATOM      5  C   UNL     1     -41.246 -12.508  14.043 -0.12 +0.00    +0.169 C  
DOCKED: ATOM      6  C   UNL     1     -37.678 -12.745  13.234 -0.31 -0.00    -0.001 A  
DOCKED: ATOM      7  C   UNL     1     -40.087 -13.188  11.836 -0.32 +0.00    +0.008 A  
DOCKED: ATOM      8  C   UNL     1     -37.658 -13.153  11.899 -0.39 +0.00    +0.010 A  
DOCKED: ATOM      9  C   UNL     1     -38.857 -13.373  11.204 -0.39 +0.00    +0.068 A  
DOCKED: ATOM     10  N   UNL     1     -38.783 -14.124   8.726 -1.61 -0.00    -0.191 NA 
DOCKED: ATOM     11  C   UNL     1     -38.816 -13.788   9.837 -0.53 +0.00    +0.101 C  
DOCKED: ENDROOT
DOCKED: BRANCH   2  12
DOCKED: ATOM     12  C   UNL     1     -38.810 -10.699  15.540 -0.06 +0.00    +0.038 C  
DOCKED: BRANCH  12  13
DOCKED: ATOM     13  C   UNL     1     -37.298 -10.514  15.431 -0.07 +0.00    +0.038 C  
DOCKED: BRANCH  13  14
DOCKED: ATOM     14  C   UNL     1     -36.939  -9.600  14.261 -0.07 +0.00    +0.251 C  
DOCKED: BRANCH  14  15
DOCKED: ATOM     15  N   UNL     1     -35.578  -9.865  13.810 -0.12 +0.00    +0.141 N  
DOCKED: ATOM     16  C   UNL     1     -34.932  -8.628  13.366 -0.09 +0.00    +0.285 C  
DOCKED: ATOM     17  C   UNL     1     -34.795 -10.493  14.875 -0.08 +0.00    +0.285 C  
DOCKED: ENDBRANCH  14  15
DOCKED: ENDBRANCH  13  14
DOCKED: ENDBRANCH  12  13
DOCKED: ENDBRANCH   2  12
DOCKED: BRANCH   2  18
DOCKED: ATOM     18  C   UNL     1     -38.656 -13.067  16.287 -0.15 +0.00    +0.006 A  
DOCKED: ATOM     19  C   UNL     1     -39.492 -13.615  17.259 -0.15 +0.00    +0.001 A  
DOCKED: ATOM     20  C   UNL     1     -38.968 -14.481  18.220 -0.14 +0.00    +0.029 A  
DOCKED: ATOM     21  C   UNL     1     -37.611 -14.798  18.206 -0.17 +0.00    +0.140 A  
DOCKED: ATOM     22  C   UNL     1     -36.776 -14.251  17.233 -0.18 +0.00    +0.029 A  
DOCKED: ATOM     23  F   UNL     1     -37.109 -15.631  19.127 -0.08 -0.00    -0.204 F  
DOCKED: ATOM     24  C   UNL     1     -37.299 -13.384  16.272 -0.21 +0.00    +0.001 A  
DOCKED: ENDBRANCH   2  18
DOCKED: TORSDOF 5
DOCKED: TER
DOCKED: ENDMDL
________________________________________________________________________________


    FINAL DOCKED STATE:
    ________________________


Run:   170 / 512
Time taken for this run:   0.002s

DOCKED: MODEL        170
DOCKED: USER    Run = 170
DOCKED: USER
DOCKED: USER    Estimated Free Energy of Binding    =  -3.88 kcal/mol  [=(1)+(2)+(3)-(4)]
DOCKED: USER
DOCKED: USER    (1) Final Intermolecular Energy     =  -5.37 kcal/mol
DOCKED: USER        vdW + Hbond + desolv Energy     =  -5.37 kcal/mol
DOCKED: USER        Electrostatic Energy            =  +0.00 kcal/mol
DOCKED: USER        Moving Ligand-Fixed Receptor    =  -5.37 kcal/mol
DOCKED: USER        Moving Ligand-Moving Receptor   =  +0.00 kcal/mol
DOCKED: USER    (2) Final Total Internal Energy     =  -1.33 kcal/mol
DOCKED: USER    (3) Torsional Free Energy           =  +1.49 kcal/mol
DOCKED: USER    (4) Unbound System's Energy         =  -1.33 kcal/mol
DOCKED: USER
DOCKED: USER
DOCKED: REMARK  5 active torsions:
DOCKED: REMARK  status: ('A' for Active; 'I' for Inactive)
DOCKED: REMARK    1  A    between atoms: C_2  and  C_19 
DOCKED: REMARK    2  A    between atoms: C_2  and  C_11 
DOCKED: REMARK    3  A    between atoms: C_19  and  C_20 
DOCKED: REMARK    4  A    between atoms: C_20  and  C_21 
DOCKED: REMARK    5  A    between atoms: C_21  and  N_22 
DOCKED: USER                              x       y       z     vdW  Elec       q    Type
DOCKED: USER                           _______ _______ _______ _____ _____    ______ ____
DOCKED: ROOT
DOCKED: ATOM      1  O   UNL     1     -30.796  -8.337   7.087 +0.01 -0.00    -0.346 OA 
DOCKED: ATOM      2  C   UNL     1     -32.074  -8.925   6.685 -0.13 +0.00    +0.130 C  
DOCKED: ATOM      3  C   UNL     1     -32.086 -10.262   7.366 -0.21 +0.00    +0.004 A  
DOCKED: ATOM      4  C   UNL     1     -30.965 -10.384   8.175 -0.12 +0.00    +0.006 A  
DOCKED: ATOM      5  C   UNL     1     -30.153  -9.149   8.097 -0.03 +0.00    +0.169 C  
DOCKED: ATOM      6  C   UNL     1     -33.020 -11.285   7.285 -0.27 -0.00    -0.001 A  
DOCKED: ATOM      7  C   UNL     1     -30.737 -11.526   8.923 -0.16 +0.00    +0.008 A  
DOCKED: ATOM      8  C   UNL     1     -32.802 -12.445   8.031 -0.23 +0.00    +0.010 A  
DOCKED: ATOM      9  C   UNL     1     -31.667 -12.564   8.846 -0.26 +0.00    +0.068 A  
DOCKED: ATOM     10  N   UNL     1     -31.295 -14.729  10.220 -1.95 -0.00    -0.191 NA 
DOCKED: ATOM     11  C   UNL     1     -31.461 -13.759   9.603 -0.32 +0.00    +0.101 C  
DOCKED: ENDROOT
DOCKED: BRANCH   2  12
DOCKED: ATOM     12  C   UNL     1     -33.196  -8.008   7.157 -0.17 +0.00    +0.038 C  
DOCKED: BRANCH  12  13
DOCKED: ATOM     13  C   UNL     1     -33.696  -8.408   8.544 -0.20 +0.00    +0.038 C  
DOCKED: BRANCH  13  14
DOCKED: ATOM     14  C   UNL     1     -33.218  -7.421   9.607 -0.08 +0.00    +0.251 C  
DOCKED: BRANCH  14  15
DOCKED: ATOM     15  N   UNL     1     -32.544  -6.289   8.981 -0.03 +0.00    +0.141 N  
DOCKED: ATOM     16  C   UNL     1     -33.398  -5.101   9.006 -0.04 +0.00    +0.285 C  
DOCKED: ATOM     17  C   UNL     1     -31.271  -6.013   9.649 -0.01 +0.00    +0.285 C  
DOCKED: ENDBRANCH  14  15
DOCKED: ENDBRANCH  13  14
DOCKED: ENDBRANCH  12  13
DOCKED: ENDBRANCH   2  12
DOCKED: BRANCH   2  18
DOCKED: ATOM     18  C   UNL     1     -32.057  -9.030   5.196 -0.17 +0.00    +0.006 A  
DOCKED: ATOM     19  C   UNL     1     -32.817  -8.151   4.426 -0.20 +0.00    +0.001 A  
DOCKED: ATOM     20  C   UNL     1     -32.800  -8.251   3.034 -0.24 +0.00    +0.029 A  
DOCKED: ATOM     21  C   UNL     1     -32.023  -9.229   2.415 -0.20 +0.00    +0.140 A  
DOCKED: ATOM     22  C   UNL     1     -31.263 -10.108   3.186 -0.16 +0.00    +0.029 A  
DOCKED: ATOM     23  F   UNL     1     -32.005  -9.324   1.079 -0.06 -0.00    -0.204 F  
DOCKED: ATOM     24  C   UNL     1     -31.279 -10.009   4.578 -0.13 +0.00    +0.001 A  
DOCKED: ENDBRANCH   2  18
DOCKED: TORSDOF 5
DOCKED: TER
DOCKED: ENDMDL
________________________________________________________________________________


    FINAL DOCKED STATE:
    ________________________


Run:   171 / 512
Time taken for this run:   0.002s

DOCKED: MODEL        171
DOCKED: USER    Run = 171
DOCKED: USER
DOCKED: USER    Estimated Free Energy of Binding    =  -3.12 kcal/mol  [=(1)+(2)+(3)-(4)]
DOCKED: USER
DOCKED: USER    (1) Final Intermolecular Energy     =  -4.61 kcal/mol
DOCKED: USER        vdW + Hbond + desolv Energy     =  -4.61 kcal/mol
DOCKED: USER        Electrostatic Energy            =  +0.00 kcal/mol
DOCKED: USER        Moving Ligand-Fixed Receptor    =  -4.61 kcal/mol
DOCKED: USER        Moving Ligand-Moving Receptor   =  +0.00 kcal/mol
DOCKED: USER    (2) Final Total Internal Energy     =  -1.51 kcal/mol
DOCKED: USER    (3) Torsional Free Energy           =  +1.49 kcal/mol
DOCKED: USER    (4) Unbound System's Energy         =  -1.51 kcal/mol
DOCKED: USER
DOCKED: USER
DOCKED: REMARK  5 active torsions:
DOCKED: REMARK  status: ('A' for Active; 'I' for Inactive)
DOCKED: REMARK    1  A    between atoms: C_2  and  C_19 
DOCKED: REMARK    2  A    between atoms: C_2  and  C_11 
DOCKED: REMARK    3  A    between atoms: C_19  and  C_20 
DOCKED: REMARK    4  A    between atoms: C_20  and  C_21 
DOCKED: REMARK    5  A    between atoms: C_21  and  N_22 
DOCKED: USER                              x       y       z     vdW  Elec       q    Type
DOCKED: USER                           _______ _______ _______ _____ _____    ______ ____
DOCKED: ROOT
DOCKED: ATOM      1  O   UNL     1     -29.862  -0.768   0.602 -0.00 -0.00    -0.346 OA 
DOCKED: ATOM      2  C   UNL     1     -30.418  -0.817  -0.750 -0.07 +0.00    +0.130 C  
DOCKED: ATOM      3  C   UNL     1     -31.888  -1.030  -0.528 -0.15 +0.00    +0.004 A  
DOCKED: ATOM      4  C   UNL     1     -32.164  -0.995   0.832 -0.17 +0.00    +0.006 A  
DOCKED: ATOM      5  C   UNL     1     -30.918  -0.747   1.591 -0.07 +0.00    +0.169 C  
DOCKED: ATOM      6  C   UNL     1     -32.901  -1.227  -1.455 -0.22 -0.00    -0.001 A  
DOCKED: ATOM      7  C   UNL     1     -33.453  -1.159   1.310 -0.28 +0.00    +0.008 A  
DOCKED: ATOM      8  C   UNL     1     -34.205  -1.399  -0.988 -0.29 +0.00    +0.010 A  
DOCKED: ATOM      9  C   UNL     1     -34.480  -1.364   0.387 -0.33 +0.00    +0.068 A  
DOCKED: ATOM     10  N   UNL     1     -36.913  -1.681   1.219 -2.48 -0.00    -0.191 NA 
DOCKED: ATOM     11  C   UNL     1     -35.821  -1.539   0.846 -0.26 +0.00    +0.101 C  
DOCKED: ENDROOT
DOCKED: BRANCH   2  12
DOCKED: ATOM     12  C   UNL     1     -30.109   0.502  -1.448 -0.10 +0.00    +0.038 C  
DOCKED: BRANCH  12  13
DOCKED: ATOM     13  C   UNL     1     -28.619   0.833  -1.378 -0.09 +0.00    +0.038 C  
DOCKED: BRANCH  13  14
DOCKED: ATOM     14  C   UNL     1     -28.287   1.603  -0.101 -0.02 +0.00    +0.251 C  
DOCKED: BRANCH  14  15
DOCKED: ATOM     15  N   UNL     1     -27.185   0.962   0.606 -0.01 +0.00    +0.141 N  
DOCKED: ATOM     16  C   UNL     1     -27.563   0.663   1.988 +0.00 +0.00    +0.285 C  
DOCKED: ATOM     17  C   UNL     1     -26.772  -0.262  -0.083 +0.00 +0.00    +0.285 C  
DOCKED: ENDBRANCH  14  15
DOCKED: ENDBRANCH  13  14
DOCKED: ENDBRANCH  12  13
DOCKED: ENDBRANCH   2  12
DOCKED: BRANCH   2  18
DOCKED: ATOM     18  C   UNL     1     -29.764  -1.962  -1.450 -0.03 +0.00    +0.006 A  
DOCKED: ATOM     19  C   UNL     1     -29.937  -2.130  -2.823 -0.03 +0.00    +0.001 A  
DOCKED: ATOM     20  C   UNL     1     -29.325  -3.201  -3.476 -0.01 +0.00    +0.029 A  
DOCKED: ATOM     21  C   UNL     1     -28.542  -4.101  -2.755 +0.00 +0.00    +0.140 A  
DOCKED: ATOM     22  C   UNL     1     -28.370  -3.932  -1.381 -0.00 +0.00    +0.029 A  
DOCKED: ATOM     23  F   UNL     1     -27.954  -5.128  -3.382 +0.00 -0.00    -0.204 F  
DOCKED: ATOM     24  C   UNL     1     -28.982  -2.862  -0.727 -0.01 +0.00    +0.001 A  
DOCKED: ENDBRANCH   2  18
DOCKED: TORSDOF 5
DOCKED: TER
DOCKED: ENDMDL
________________________________________________________________________________


    FINAL DOCKED STATE:
    ________________________


Run:   172 / 512
Time taken for this run:   0.002s

DOCKED: MODEL        172
DOCKED: USER    Run = 172
DOCKED: USER
DOCKED: USER    Estimated Free Energy of Binding    =  -5.75 kcal/mol  [=(1)+(2)+(3)-(4)]
DOCKED: USER
DOCKED: USER    (1) Final Intermolecular Energy     =  -7.24 kcal/mol
DOCKED: USER        vdW + Hbond + desolv Energy     =  -7.24 kcal/mol
DOCKED: USER        Electrostatic Energy            =  +0.00 kcal/mol
DOCKED: USER        Moving Ligand-Fixed Receptor    =  -7.24 kcal/mol
DOCKED: USER        Moving Ligand-Moving Receptor   =  +0.00 kcal/mol
DOCKED: USER    (2) Final Total Internal Energy     =  -1.57 kcal/mol
DOCKED: USER    (3) Torsional Free Energy           =  +1.49 kcal/mol
DOCKED: USER    (4) Unbound System's Energy         =  -1.57 kcal/mol
DOCKED: USER
DOCKED: USER
DOCKED: REMARK  5 active torsions:
DOCKED: REMARK  status: ('A' for Active; 'I' for Inactive)
DOCKED: REMARK    1  A    between atoms: C_2  and  C_19 
DOCKED: REMARK    2  A    between atoms: C_2  and  C_11 
DOCKED: REMARK    3  A    between atoms: C_19  and  C_20 
DOCKED: REMARK    4  A    between atoms: C_20  and  C_21 
DOCKED: REMARK    5  A    between atoms: C_21  and  N_22 
DOCKED: USER                              x       y       z     vdW  Elec       q    Type
DOCKED: USER                           _______ _______ _______ _____ _____    ______ ____
DOCKED: ROOT
DOCKED: ATOM      1  O   UNL     1     -37.484 -10.744  13.910 -0.04 -0.00    -0.346 OA 
DOCKED: ATOM      2  C   UNL     1     -37.053 -12.142  13.869 -0.23 +0.00    +0.130 C  
DOCKED: ATOM      3  C   UNL     1     -37.555 -12.633  12.542 -0.35 +0.00    +0.004 A  
DOCKED: ATOM      4  C   UNL     1     -38.125 -11.581  11.839 -0.35 +0.00    +0.006 A  
DOCKED: ATOM      5  C   UNL     1     -38.030 -10.336  12.634 -0.23 +0.00    +0.169 C  
DOCKED: ATOM      6  C   UNL     1     -37.502 -13.907  11.996 -0.38 -0.00    -0.001 A  
DOCKED: ATOM      7  C   UNL     1     -38.662 -11.765  10.576 -0.07 +0.00    +0.008 A  
DOCKED: ATOM      8  C   UNL     1     -38.042 -14.110  10.725 -0.44 +0.00    +0.010 A  
DOCKED: ATOM      9  C   UNL     1     -38.619 -13.044  10.019 -0.42 +0.00    +0.068 A  
DOCKED: ATOM     10  N   UNL     1     -39.609 -13.453   7.660 -2.86 -0.00    -0.191 NA 
DOCKED: ATOM     11  C   UNL     1     -39.166 -13.269   8.718 -0.43 +0.00    +0.101 C  
DOCKED: ENDROOT
DOCKED: BRANCH   2  12
DOCKED: ATOM     12  C   UNL     1     -35.534 -12.182  13.980 -0.24 +0.00    +0.038 C  
DOCKED: BRANCH  12  13
DOCKED: ATOM     13  C   UNL     1     -34.964 -10.809  14.331 -0.18 +0.00    +0.038 C  
DOCKED: BRANCH  13  14
DOCKED: ATOM     14  C   UNL     1     -34.922 -10.602  15.844 -0.05 +0.00    +0.251 C  
DOCKED: BRANCH  14  15
DOCKED: ATOM     15  N   UNL     1     -36.219 -10.148  16.330 -0.02 +0.00    +0.141 N  
DOCKED: ATOM     16  C   UNL     1     -36.373 -10.454  17.753 -0.01 +0.00    +0.285 C  
DOCKED: ATOM     17  C   UNL     1     -36.383  -8.711  16.100 -0.01 +0.00    +0.285 C  
DOCKED: ENDBRANCH  14  15
DOCKED: ENDBRANCH  13  14
DOCKED: ENDBRANCH  12  13
DOCKED: ENDBRANCH   2  12
DOCKED: BRANCH   2  18
DOCKED: ATOM     18  C   UNL     1     -37.696 -12.831  15.025 -0.19 +0.00    +0.006 A  
DOCKED: ATOM     19  C   UNL     1     -39.086 -12.903  15.108 -0.16 +0.00    +0.001 A  
DOCKED: ATOM     20  C   UNL     1     -39.686 -13.547  16.191 -0.15 +0.00    +0.029 A  
DOCKED: ATOM     21  C   UNL     1     -38.897 -14.118  17.188 -0.03 +0.00    +0.140 A  
DOCKED: ATOM     22  C   UNL     1     -37.507 -14.046  17.104 -0.23 +0.00    +0.029 A  
DOCKED: ATOM     23  F   UNL     1     -39.473 -14.738  18.226 -0.03 -0.00    -0.204 F  
DOCKED: ATOM     24  C   UNL     1     -36.905 -13.401  16.022 -0.15 +0.00    +0.001 A  
DOCKED: ENDBRANCH   2  18
DOCKED: TORSDOF 5
DOCKED: TER
DOCKED: ENDMDL
________________________________________________________________________________


    FINAL DOCKED STATE:
    ________________________


Run:   173 / 512
Time taken for this run:   0.002s

DOCKED: MODEL        173
DOCKED: USER    Run = 173
DOCKED: USER
DOCKED: USER    Estimated Free Energy of Binding    =  -3.90 kcal/mol  [=(1)+(2)+(3)-(4)]
DOCKED: USER
DOCKED: USER    (1) Final Intermolecular Energy     =  -5.40 kcal/mol
DOCKED: USER        vdW + Hbond + desolv Energy     =  -5.40 kcal/mol
DOCKED: USER        Electrostatic Energy            =  +0.00 kcal/mol
DOCKED: USER        Moving Ligand-Fixed Receptor    =  -5.40 kcal/mol
DOCKED: USER        Moving Ligand-Moving Receptor   =  +0.00 kcal/mol
DOCKED: USER    (2) Final Total Internal Energy     =  -1.26 kcal/mol
DOCKED: USER    (3) Torsional Free Energy           =  +1.49 kcal/mol
DOCKED: USER    (4) Unbound System's Energy         =  -1.26 kcal/mol
DOCKED: USER
DOCKED: USER
DOCKED: REMARK  5 active torsions:
DOCKED: REMARK  status: ('A' for Active; 'I' for Inactive)
DOCKED: REMARK    1  A    between atoms: C_2  and  C_19 
DOCKED: REMARK    2  A    between atoms: C_2  and  C_11 
DOCKED: REMARK    3  A    between atoms: C_19  and  C_20 
DOCKED: REMARK    4  A    between atoms: C_20  and  C_21 
DOCKED: REMARK    5  A    between atoms: C_21  and  N_22 
DOCKED: USER                              x       y       z     vdW  Elec       q    Type
DOCKED: USER                           _______ _______ _______ _____ _____    ______ ____
DOCKED: ROOT
DOCKED: ATOM      1  O   UNL     1     -41.561 -10.918  14.338 -0.01 -0.00    -0.346 OA 
DOCKED: ATOM      2  C   UNL     1     -40.462 -11.815  14.701 -0.08 +0.00    +0.130 C  
DOCKED: ATOM      3  C   UNL     1     -40.062 -12.438  13.395 -0.19 +0.00    +0.004 A  
DOCKED: ATOM      4  C   UNL     1     -40.790 -11.867  12.362 -0.25 +0.00    +0.006 A  
DOCKED: ATOM      5  C   UNL     1     -41.701 -10.832  12.901 -0.20 +0.00    +0.169 C  
DOCKED: ATOM      6  C   UNL     1     -39.119 -13.424  13.141 -0.26 -0.00    -0.001 A  
DOCKED: ATOM      7  C   UNL     1     -40.608 -12.261  11.047 -0.14 +0.00    +0.008 A  
DOCKED: ATOM      8  C   UNL     1     -38.926 -13.835  11.821 -0.31 +0.00    +0.010 A  
DOCKED: ATOM      9  C   UNL     1     -39.666 -13.256  10.779 -0.36 +0.00    +0.068 A  
DOCKED: ATOM     10  N   UNL     1     -39.280 -14.039   8.340 -1.76 -0.00    -0.191 NA 
DOCKED: ATOM     11  C   UNL     1     -39.454 -13.688   9.434 -0.47 +0.00    +0.101 C  
DOCKED: ENDROOT
DOCKED: BRANCH   2  12
DOCKED: ATOM     12  C   UNL     1     -39.349 -10.985  15.329 -0.07 +0.00    +0.038 C  
DOCKED: BRANCH  12  13
DOCKED: ATOM     13  C   UNL     1     -38.168 -10.824  14.374 -0.13 +0.00    +0.038 C  
DOCKED: BRANCH  13  14
DOCKED: ATOM     14  C   UNL     1     -36.968 -11.647  14.840 -0.09 +0.00    +0.251 C  
DOCKED: BRANCH  14  15
DOCKED: ATOM     15  N   UNL     1     -37.266 -12.305  16.107 -0.09 +0.00    +0.141 N  
DOCKED: ATOM     16  C   UNL     1     -37.333 -13.756  15.932 -0.13 +0.00    +0.285 C  
DOCKED: ATOM     17  C   UNL     1     -36.261 -11.961  17.114 -0.05 +0.00    +0.285 C  
DOCKED: ENDBRANCH  14  15
DOCKED: ENDBRANCH  13  14
DOCKED: ENDBRANCH  12  13
DOCKED: ENDBRANCH   2  12
DOCKED: BRANCH   2  18
DOCKED: ATOM     18  C   UNL     1     -41.010 -12.805  15.674 -0.11 +0.00    +0.006 A  
DOCKED: ATOM     19  C   UNL     1     -41.603 -13.980  15.213 -0.19 +0.00    +0.001 A  
DOCKED: ATOM     20  C   UNL     1     -42.115 -14.904  16.124 -0.17 +0.00    +0.029 A  
DOCKED: ATOM     21  C   UNL     1     -42.034 -14.653  17.493 -0.12 +0.00    +0.140 A  
DOCKED: ATOM     22  C   UNL     1     -41.442 -13.477  17.953 -0.10 +0.00    +0.029 A  
DOCKED: ATOM     23  F   UNL     1     -42.525 -15.542  18.367 -0.04 -0.00    -0.204 F  
DOCKED: ATOM     24  C   UNL     1     -40.929 -12.552  17.042 -0.07 +0.00    +0.001 A  
DOCKED: ENDBRANCH   2  18
DOCKED: TORSDOF 5
DOCKED: TER
DOCKED: ENDMDL
________________________________________________________________________________


    FINAL DOCKED STATE:
    ________________________


Run:   174 / 512
Time taken for this run:   0.002s

DOCKED: MODEL        174
DOCKED: USER    Run = 174
DOCKED: USER
DOCKED: USER    Estimated Free Energy of Binding    =  -4.16 kcal/mol  [=(1)+(2)+(3)-(4)]
DOCKED: USER
DOCKED: USER    (1) Final Intermolecular Energy     =  -5.66 kcal/mol
DOCKED: USER        vdW + Hbond + desolv Energy     =  -5.66 kcal/mol
DOCKED: USER        Electrostatic Energy            =  +0.00 kcal/mol
DOCKED: USER        Moving Ligand-Fixed Receptor    =  -5.66 kcal/mol
DOCKED: USER        Moving Ligand-Moving Receptor   =  +0.00 kcal/mol
DOCKED: USER    (2) Final Total Internal Energy     =  -0.99 kcal/mol
DOCKED: USER    (3) Torsional Free Energy           =  +1.49 kcal/mol
DOCKED: USER    (4) Unbound System's Energy         =  -0.99 kcal/mol
DOCKED: USER
DOCKED: USER
DOCKED: REMARK  5 active torsions:
DOCKED: REMARK  status: ('A' for Active; 'I' for Inactive)
DOCKED: REMARK    1  A    between atoms: C_2  and  C_19 
DOCKED: REMARK    2  A    between atoms: C_2  and  C_11 
DOCKED: REMARK    3  A    between atoms: C_19  and  C_20 
DOCKED: REMARK    4  A    between atoms: C_20  and  C_21 
DOCKED: REMARK    5  A    between atoms: C_21  and  N_22 
DOCKED: USER                              x       y       z     vdW  Elec       q    Type
DOCKED: USER                           _______ _______ _______ _____ _____    ______ ____
DOCKED: ROOT
DOCKED: ATOM      1  O   UNL     1     -35.928  -8.793  13.664 -0.05 -0.00    -0.346 OA 
DOCKED: ATOM      2  C   UNL     1     -35.280  -9.977  14.231 -0.12 +0.00    +0.130 C  
DOCKED: ATOM      3  C   UNL     1     -36.104 -11.120  13.712 -0.20 +0.00    +0.004 A  
DOCKED: ATOM      4  C   UNL     1     -37.069 -10.642  12.838 -0.26 +0.00    +0.006 A  
DOCKED: ATOM      5  C   UNL     1     -36.945  -9.173  12.708 -0.19 +0.00    +0.169 C  
DOCKED: ATOM      6  C   UNL     1     -36.000 -12.477  13.984 -0.25 -0.00    -0.001 A  
DOCKED: ATOM      7  C   UNL     1     -37.961 -11.496  12.211 -0.33 +0.00    +0.008 A  
DOCKED: ATOM      8  C   UNL     1     -36.894 -13.350  13.364 -0.36 +0.00    +0.010 A  
DOCKED: ATOM      9  C   UNL     1     -37.870 -12.862  12.482 -0.31 +0.00    +0.068 A  
DOCKED: ATOM     10  N   UNL     1     -39.512 -14.511  11.343 -2.56 -0.00    -0.191 NA 
DOCKED: ATOM     11  C   UNL     1     -38.776 -13.771  11.854 -0.34 +0.00    +0.101 C  
DOCKED: ENDROOT
DOCKED: BRANCH   2  12
DOCKED: ATOM     12  C   UNL     1     -33.837 -10.017  13.744 -0.06 +0.00    +0.038 C  
DOCKED: BRANCH  12  13
DOCKED: ATOM     13  C   UNL     1     -33.078 -11.197  14.348 -0.17 +0.00    +0.038 C  
DOCKED: BRANCH  13  14
DOCKED: ATOM     14  C   UNL     1     -31.627 -11.219  13.871 -0.09 +0.00    +0.251 C  
DOCKED: BRANCH  14  15
DOCKED: ATOM     15  N   UNL     1     -31.177 -12.592  13.678 -0.15 +0.00    +0.141 N  
DOCKED: ATOM     16  C   UNL     1     -29.782 -12.742  14.093 -0.05 +0.00    +0.285 C  
DOCKED: ATOM     17  C   UNL     1     -32.030 -13.523  14.419 -0.03 +0.00    +0.285 C  
DOCKED: ENDBRANCH  14  15
DOCKED: ENDBRANCH  13  14
DOCKED: ENDBRANCH  12  13
DOCKED: ENDBRANCH   2  12
DOCKED: BRANCH   2  18
DOCKED: ATOM     18  C   UNL     1     -35.344  -9.840  15.716 -0.05 +0.00    +0.006 A  
DOCKED: ATOM     19  C   UNL     1     -36.286 -10.568  16.442 -0.05 +0.00    +0.001 A  
DOCKED: ATOM     20  C   UNL     1     -36.345 -10.439  17.830 -0.02 +0.00    +0.029 A  
DOCKED: ATOM     21  C   UNL     1     -35.463  -9.584  18.489 -0.00 +0.00    +0.140 A  
DOCKED: ATOM     22  C   UNL     1     -34.522  -8.857  17.762 -0.01 +0.00    +0.029 A  
DOCKED: ATOM     23  F   UNL     1     -35.519  -9.462  19.822 -0.00 -0.00    -0.204 F  
DOCKED: ATOM     24  C   UNL     1     -34.462  -8.984  16.373 -0.02 +0.00    +0.001 A  
DOCKED: ENDBRANCH   2  18
DOCKED: TORSDOF 5
DOCKED: TER
DOCKED: ENDMDL
________________________________________________________________________________


    FINAL DOCKED STATE:
    ________________________


Run:   175 / 512
Time taken for this run:   0.002s

DOCKED: MODEL        175
DOCKED: USER    Run = 175
DOCKED: USER
DOCKED: USER    Estimated Free Energy of Binding    =  -4.32 kcal/mol  [=(1)+(2)+(3)-(4)]
DOCKED: USER
DOCKED: USER    (1) Final Intermolecular Energy     =  -5.81 kcal/mol
DOCKED: USER        vdW + Hbond + desolv Energy     =  -5.81 kcal/mol
DOCKED: USER        Electrostatic Energy            =  +0.00 kcal/mol
DOCKED: USER        Moving Ligand-Fixed Receptor    =  -5.81 kcal/mol
DOCKED: USER        Moving Ligand-Moving Receptor   =  +0.00 kcal/mol
DOCKED: USER    (2) Final Total Internal Energy     =  -1.41 kcal/mol
DOCKED: USER    (3) Torsional Free Energy           =  +1.49 kcal/mol
DOCKED: USER    (4) Unbound System's Energy         =  -1.41 kcal/mol
DOCKED: USER
DOCKED: USER
DOCKED: REMARK  5 active torsions:
DOCKED: REMARK  status: ('A' for Active; 'I' for Inactive)
DOCKED: REMARK    1  A    between atoms: C_2  and  C_19 
DOCKED: REMARK    2  A    between atoms: C_2  and  C_11 
DOCKED: REMARK    3  A    between atoms: C_19  and  C_20 
DOCKED: REMARK    4  A    between atoms: C_20  and  C_21 
DOCKED: REMARK    5  A    between atoms: C_21  and  N_22 
DOCKED: USER                              x       y       z     vdW  Elec       q    Type
DOCKED: USER                           _______ _______ _______ _____ _____    ______ ____
DOCKED: ROOT
DOCKED: ATOM      1  O   UNL     1     -35.226  -9.696  14.326 -0.06 -0.00    -0.346 OA 
DOCKED: ATOM      2  C   UNL     1     -36.338  -9.049  13.630 -0.13 +0.00    +0.130 C  
DOCKED: ATOM      3  C   UNL     1     -37.096 -10.193  13.021 -0.24 +0.00    +0.004 A  
DOCKED: ATOM      4  C   UNL     1     -36.531 -11.394  13.425 -0.23 +0.00    +0.006 A  
DOCKED: ATOM      5  C   UNL     1     -35.386 -11.134  14.326 -0.16 +0.00    +0.169 C  
DOCKED: ATOM      6  C   UNL     1     -38.203 -10.172  12.186 -0.23 -0.00    -0.001 A  
DOCKED: ATOM      7  C   UNL     1     -37.048 -12.609  13.008 -0.32 +0.00    +0.008 A  
DOCKED: ATOM      8  C   UNL     1     -38.733 -11.389  11.753 -0.29 +0.00    +0.010 A  
DOCKED: ATOM      9  C   UNL     1     -38.158 -12.601  12.162 -0.31 +0.00    +0.068 A  
DOCKED: ATOM     10  N   UNL     1     -39.169 -14.842  11.344 -2.59 -0.00    -0.191 NA 
DOCKED: ATOM     11  C   UNL     1     -38.715 -13.837  11.710 -0.34 +0.00    +0.101 C  
DOCKED: ENDROOT
DOCKED: BRANCH   2  12
DOCKED: ATOM     12  C   UNL     1     -37.159  -8.270  14.652 -0.06 +0.00    +0.038 C  
DOCKED: BRANCH  12  13
DOCKED: ATOM     13  C   UNL     1     -38.482  -8.971  14.954 -0.06 +0.00    +0.038 C  
DOCKED: BRANCH  13  14
DOCKED: ATOM     14  C   UNL     1     -38.398  -9.764  16.257 -0.01 +0.00    +0.251 C  
DOCKED: BRANCH  14  15
DOCKED: ATOM     15  N   UNL     1     -38.608 -11.184  16.002 -0.03 +0.00    +0.141 N  
DOCKED: ATOM     16  C   UNL     1     -38.324 -11.972  17.202 -0.03 +0.00    +0.285 C  
DOCKED: ATOM     17  C   UNL     1     -39.978 -11.429  15.546 -0.01 +0.00    +0.285 C  
DOCKED: ENDBRANCH  14  15
DOCKED: ENDBRANCH  13  14
DOCKED: ENDBRANCH  12  13
DOCKED: ENDBRANCH   2  12
DOCKED: BRANCH   2  18
DOCKED: ATOM     18  C   UNL     1     -35.743  -8.137  12.610 -0.16 +0.00    +0.006 A  
DOCKED: ATOM     19  C   UNL     1     -36.369  -6.929  12.305 -0.12 +0.00    +0.001 A  
DOCKED: ATOM     20  C   UNL     1     -35.812  -6.077  11.350 -0.10 +0.00    +0.029 A  
DOCKED: ATOM     21  C   UNL     1     -34.630  -6.434  10.703 -0.07 +0.00    +0.140 A  
DOCKED: ATOM     22  C   UNL     1     -34.004  -7.642  11.009 -0.13 +0.00    +0.029 A  
DOCKED: ATOM     23  F   UNL     1     -34.094  -5.616   9.788 -0.01 -0.00    -0.204 F  
DOCKED: ATOM     24  C   UNL     1     -34.561  -8.495  11.963 -0.12 +0.00    +0.001 A  
DOCKED: ENDBRANCH   2  18
DOCKED: TORSDOF 5
DOCKED: TER
DOCKED: ENDMDL
________________________________________________________________________________


    FINAL DOCKED STATE:
    ________________________


Run:   176 / 512
Time taken for this run:   0.002s

DOCKED: MODEL        176
DOCKED: USER    Run = 176
DOCKED: USER
DOCKED: USER    Estimated Free Energy of Binding    =  -3.73 kcal/mol  [=(1)+(2)+(3)-(4)]
DOCKED: USER
DOCKED: USER    (1) Final Intermolecular Energy     =  -5.22 kcal/mol
DOCKED: USER        vdW + Hbond + desolv Energy     =  -5.22 kcal/mol
DOCKED: USER        Electrostatic Energy            =  +0.00 kcal/mol
DOCKED: USER        Moving Ligand-Fixed Receptor    =  -5.22 kcal/mol
DOCKED: USER        Moving Ligand-Moving Receptor   =  +0.00 kcal/mol
DOCKED: USER    (2) Final Total Internal Energy     =  -1.31 kcal/mol
DOCKED: USER    (3) Torsional Free Energy           =  +1.49 kcal/mol
DOCKED: USER    (4) Unbound System's Energy         =  -1.31 kcal/mol
DOCKED: USER
DOCKED: USER
DOCKED: REMARK  5 active torsions:
DOCKED: REMARK  status: ('A' for Active; 'I' for Inactive)
DOCKED: REMARK    1  A    between atoms: C_2  and  C_19 
DOCKED: REMARK    2  A    between atoms: C_2  and  C_11 
DOCKED: REMARK    3  A    between atoms: C_19  and  C_20 
DOCKED: REMARK    4  A    between atoms: C_20  and  C_21 
DOCKED: REMARK    5  A    between atoms: C_21  and  N_22 
DOCKED: USER                              x       y       z     vdW  Elec       q    Type
DOCKED: USER                           _______ _______ _______ _____ _____    ______ ____
DOCKED: ROOT
DOCKED: ATOM      1  O   UNL     1     -32.348  -4.078   5.343 -0.02 -0.00    -0.346 OA 
DOCKED: ATOM      2  C   UNL     1     -31.770  -4.363   4.030 -0.05 +0.00    +0.130 C  
DOCKED: ATOM      3  C   UNL     1     -32.718  -3.706   3.069 -0.13 +0.00    +0.004 A  
DOCKED: ATOM      4  C   UNL     1     -33.691  -3.012   3.774 -0.22 +0.00    +0.006 A  
DOCKED: ATOM      5  C   UNL     1     -33.452  -3.149   5.228 -0.06 +0.00    +0.169 C  
DOCKED: ATOM      6  C   UNL     1     -32.712  -3.712   1.682 -0.15 -0.00    -0.001 A  
DOCKED: ATOM      7  C   UNL     1     -34.689  -2.309   3.122 -0.34 +0.00    +0.008 A  
DOCKED: ATOM      8  C   UNL     1     -33.715  -3.010   1.009 -0.21 +0.00    +0.010 A  
DOCKED: ATOM      9  C   UNL     1     -34.698  -2.312   1.726 -0.27 +0.00    +0.068 A  
DOCKED: ATOM     10  N   UNL     1     -36.542  -1.016   0.448 -2.55 -0.00    -0.191 NA 
DOCKED: ATOM     11  C   UNL     1     -35.715  -1.598   1.021 -0.34 +0.00    +0.101 C  
DOCKED: ENDROOT
DOCKED: BRANCH   2  12
DOCKED: ATOM     12  C   UNL     1     -30.367  -3.768   3.981 -0.02 +0.00    +0.038 C  
DOCKED: BRANCH  12  13
DOCKED: ATOM     13  C   UNL     1     -30.200  -2.652   5.011 -0.05 +0.00    +0.038 C  
DOCKED: BRANCH  13  14
DOCKED: ATOM     14  C   UNL     1     -29.616  -3.192   6.315 -0.02 +0.00    +0.251 C  
DOCKED: BRANCH  14  15
DOCKED: ATOM     15  N   UNL     1     -30.526  -2.932   7.424 -0.07 +0.00    +0.141 N  
DOCKED: ATOM     16  C   UNL     1     -30.519  -4.048   8.371 -0.03 +0.00    +0.285 C  
DOCKED: ATOM     17  C   UNL     1     -30.167  -1.687   8.104 -0.06 +0.00    +0.285 C  
DOCKED: ENDBRANCH  14  15
DOCKED: ENDBRANCH  13  14
DOCKED: ENDBRANCH  12  13
DOCKED: ENDBRANCH   2  12
DOCKED: BRANCH   2  18
DOCKED: ATOM     18  C   UNL     1     -31.730  -5.848   3.883 -0.05 +0.00    +0.006 A  
DOCKED: ATOM     19  C   UNL     1     -32.610  -6.644   4.615 -0.12 +0.00    +0.001 A  
DOCKED: ATOM     20  C   UNL     1     -32.571  -8.032   4.478 -0.18 +0.00    +0.029 A  
DOCKED: ATOM     21  C   UNL     1     -31.654  -8.621   3.609 -0.14 +0.00    +0.140 A  
DOCKED: ATOM     22  C   UNL     1     -30.774  -7.824   2.877 -0.04 +0.00    +0.029 A  
DOCKED: ATOM     23  F   UNL     1     -31.618  -9.954   3.476 -0.09 -0.00    -0.204 F  
DOCKED: ATOM     24  C   UNL     1     -30.811  -6.436   3.014 -0.03 +0.00    +0.001 A  
DOCKED: ENDBRANCH   2  18
DOCKED: TORSDOF 5
DOCKED: TER
DOCKED: ENDMDL
________________________________________________________________________________


    FINAL DOCKED STATE:
    ________________________


Run:   177 / 512
Time taken for this run:   0.002s

DOCKED: MODEL        177
DOCKED: USER    Run = 177
DOCKED: USER
DOCKED: USER    Estimated Free Energy of Binding    =  -4.59 kcal/mol  [=(1)+(2)+(3)-(4)]
DOCKED: USER
DOCKED: USER    (1) Final Intermolecular Energy     =  -6.08 kcal/mol
DOCKED: USER        vdW + Hbond + desolv Energy     =  -6.08 kcal/mol
DOCKED: USER        Electrostatic Energy            =  +0.00 kcal/mol
DOCKED: USER        Moving Ligand-Fixed Receptor    =  -6.08 kcal/mol
DOCKED: USER        Moving Ligand-Moving Receptor   =  +0.00 kcal/mol
DOCKED: USER    (2) Final Total Internal Energy     =  -0.92 kcal/mol
DOCKED: USER    (3) Torsional Free Energy           =  +1.49 kcal/mol
DOCKED: USER    (4) Unbound System's Energy         =  -0.92 kcal/mol
DOCKED: USER
DOCKED: USER
DOCKED: REMARK  5 active torsions:
DOCKED: REMARK  status: ('A' for Active; 'I' for Inactive)
DOCKED: REMARK    1  A    between atoms: C_2  and  C_19 
DOCKED: REMARK    2  A    between atoms: C_2  and  C_11 
DOCKED: REMARK    3  A    between atoms: C_19  and  C_20 
DOCKED: REMARK    4  A    between atoms: C_20  and  C_21 
DOCKED: REMARK    5  A    between atoms: C_21  and  N_22 
DOCKED: USER                              x       y       z     vdW  Elec       q    Type
DOCKED: USER                           _______ _______ _______ _____ _____    ______ ____
DOCKED: ROOT
DOCKED: ATOM      1  O   UNL     1     -37.605 -10.019  14.058 -0.03 -0.00    -0.346 OA 
DOCKED: ATOM      2  C   UNL     1     -36.888 -11.294  14.101 -0.17 +0.00    +0.130 C  
DOCKED: ATOM      3  C   UNL     1     -37.371 -12.019  12.877 -0.30 +0.00    +0.004 A  
DOCKED: ATOM      4  C   UNL     1     -38.204 -11.189  12.141 -0.32 +0.00    +0.006 A  
DOCKED: ATOM      5  C   UNL     1     -38.319  -9.872  12.809 -0.21 +0.00    +0.169 C  
DOCKED: ATOM      6  C   UNL     1     -37.086 -13.306  12.445 -0.38 -0.00    -0.001 A  
DOCKED: ATOM      7  C   UNL     1     -38.782 -11.614  10.957 -0.09 +0.00    +0.008 A  
DOCKED: ATOM      8  C   UNL     1     -37.665 -13.751  11.255 -0.37 +0.00    +0.010 A  
DOCKED: ATOM      9  C   UNL     1     -38.508 -12.909  10.515 -0.40 +0.00    +0.068 A  
DOCKED: ATOM     10  N   UNL     1     -39.561 -13.765   8.308 -2.03 -0.00    -0.191 NA 
DOCKED: ATOM     11  C   UNL     1     -39.089 -13.381   9.298 -0.52 +0.00    +0.101 C  
DOCKED: ENDROOT
DOCKED: BRANCH   2  12
DOCKED: ATOM     12  C   UNL     1     -35.392 -11.009  14.069 -0.19 +0.00    +0.038 C  
DOCKED: BRANCH  12  13
DOCKED: ATOM     13  C   UNL     1     -34.625 -11.956  14.990 -0.16 +0.00    +0.038 C  
DOCKED: BRANCH  13  14
DOCKED: ATOM     14  C   UNL     1     -34.011 -11.200  16.167 -0.06 +0.00    +0.251 C  
DOCKED: BRANCH  14  15
DOCKED: ATOM     15  N   UNL     1     -33.151 -12.085  16.945 -0.08 +0.00    +0.141 N  
DOCKED: ATOM     16  C   UNL     1     -32.417 -12.996  16.065 -0.01 +0.00    +0.285 C  
DOCKED: ATOM     17  C   UNL     1     -32.218 -11.309  17.763 -0.02 +0.00    +0.285 C  
DOCKED: ENDBRANCH  14  15
DOCKED: ENDBRANCH  13  14
DOCKED: ENDBRANCH  12  13
DOCKED: ENDBRANCH   2  12
DOCKED: BRANCH   2  18
DOCKED: ATOM     18  C   UNL     1     -37.281 -11.973  15.371 -0.13 +0.00    +0.006 A  
DOCKED: ATOM     19  C   UNL     1     -37.626 -13.323  15.361 -0.23 +0.00    +0.001 A  
DOCKED: ATOM     20  C   UNL     1     -37.993 -13.956  16.550 -0.20 +0.00    +0.029 A  
DOCKED: ATOM     21  C   UNL     1     -38.013 -13.238  17.745 -0.10 +0.00    +0.140 A  
DOCKED: ATOM     22  C   UNL     1     -37.667 -11.887  17.753 -0.05 +0.00    +0.029 A  
DOCKED: ATOM     23  F   UNL     1     -38.364 -13.846  18.885 -0.01 -0.00    -0.204 F  
DOCKED: ATOM     24  C   UNL     1     -37.301 -11.253  16.565 -0.06 +0.00    +0.001 A  
DOCKED: ENDBRANCH   2  18
DOCKED: TORSDOF 5
DOCKED: TER
DOCKED: ENDMDL
________________________________________________________________________________


    FINAL DOCKED STATE:
    ________________________


Run:   178 / 512
Time taken for this run:   0.002s

DOCKED: MODEL        178
DOCKED: USER    Run = 178
DOCKED: USER
DOCKED: USER    Estimated Free Energy of Binding    =  -4.00 kcal/mol  [=(1)+(2)+(3)-(4)]
DOCKED: USER
DOCKED: USER    (1) Final Intermolecular Energy     =  -5.49 kcal/mol
DOCKED: USER        vdW + Hbond + desolv Energy     =  -5.49 kcal/mol
DOCKED: USER        Electrostatic Energy            =  +0.00 kcal/mol
DOCKED: USER        Moving Ligand-Fixed Receptor    =  -5.49 kcal/mol
DOCKED: USER        Moving Ligand-Moving Receptor   =  +0.00 kcal/mol
DOCKED: USER    (2) Final Total Internal Energy     =  -1.23 kcal/mol
DOCKED: USER    (3) Torsional Free Energy           =  +1.49 kcal/mol
DOCKED: USER    (4) Unbound System's Energy         =  -1.23 kcal/mol
DOCKED: USER
DOCKED: USER
DOCKED: REMARK  5 active torsions:
DOCKED: REMARK  status: ('A' for Active; 'I' for Inactive)
DOCKED: REMARK    1  A    between atoms: C_2  and  C_19 
DOCKED: REMARK    2  A    between atoms: C_2  and  C_11 
DOCKED: REMARK    3  A    between atoms: C_19  and  C_20 
DOCKED: REMARK    4  A    between atoms: C_20  and  C_21 
DOCKED: REMARK    5  A    between atoms: C_21  and  N_22 
DOCKED: USER                              x       y       z     vdW  Elec       q    Type
DOCKED: USER                           _______ _______ _______ _____ _____    ______ ____
DOCKED: ROOT
DOCKED: ATOM      1  O   UNL     1     -36.486  -8.482  13.447 -0.05 -0.00    -0.346 OA 
DOCKED: ATOM      2  C   UNL     1     -35.741  -9.580  14.063 -0.12 +0.00    +0.130 C  
DOCKED: ATOM      3  C   UNL     1     -36.456 -10.811  13.587 -0.21 +0.00    +0.004 A  
DOCKED: ATOM      4  C   UNL     1     -37.453 -10.455  12.690 -0.27 +0.00    +0.006 A  
DOCKED: ATOM      5  C   UNL     1     -37.459  -8.987  12.503 -0.18 +0.00    +0.169 C  
DOCKED: ATOM      6  C   UNL     1     -36.234 -12.142  13.912 -0.26 -0.00    -0.001 A  
DOCKED: ATOM      7  C   UNL     1     -38.261 -11.408  12.094 -0.33 +0.00    +0.008 A  
DOCKED: ATOM      8  C   UNL     1     -37.043 -13.115  13.323 -0.34 +0.00    +0.010 A  
DOCKED: ATOM      9  C   UNL     1     -38.051 -12.749  12.418 -0.31 +0.00    +0.068 A  
DOCKED: ATOM     10  N   UNL     1     -39.532 -14.581  11.339 -2.56 -0.00    -0.191 NA 
DOCKED: ATOM     11  C   UNL     1     -38.868 -13.759  11.824 -0.36 +0.00    +0.101 C  
DOCKED: ENDROOT
DOCKED: BRANCH   2  12
DOCKED: ATOM     12  C   UNL     1     -34.295  -9.511  13.584 -0.11 +0.00    +0.038 C  
DOCKED: BRANCH  12  13
DOCKED: ATOM     13  C   UNL     1     -34.129  -8.488  12.462 -0.14 +0.00    +0.038 C  
DOCKED: BRANCH  13  14
DOCKED: ATOM     14  C   UNL     1     -33.917  -7.084  13.024 -0.04 +0.00    +0.251 C  
DOCKED: BRANCH  14  15
DOCKED: ATOM     15  N   UNL     1     -34.215  -6.080  12.009 -0.03 +0.00    +0.141 N  
DOCKED: ATOM     16  C   UNL     1     -32.981  -5.478  11.501 -0.01 +0.00    +0.285 C  
DOCKED: ATOM     17  C   UNL     1     -34.982  -6.670  10.911 -0.07 +0.00    +0.285 C  
DOCKED: ENDBRANCH  14  15
DOCKED: ENDBRANCH  13  14
DOCKED: ENDBRANCH  12  13
DOCKED: ENDBRANCH   2  12
DOCKED: BRANCH   2  18
DOCKED: ATOM     18  C   UNL     1     -35.828  -9.392  15.541 -0.04 +0.00    +0.006 A  
DOCKED: ATOM     19  C   UNL     1     -34.794  -9.840  16.362 -0.04 +0.00    +0.001 A  
DOCKED: ATOM     20  C   UNL     1     -34.877  -9.664  17.744 -0.01 +0.00    +0.029 A  
DOCKED: ATOM     21  C   UNL     1     -35.992  -9.041  18.302 -0.00 +0.00    +0.140 A  
DOCKED: ATOM     22  C   UNL     1     -37.026  -8.593  17.480 -0.00 +0.00    +0.029 A  
DOCKED: ATOM     23  F   UNL     1     -36.070  -8.870  19.628 +0.00 -0.00    -0.204 F  
DOCKED: ATOM     24  C   UNL     1     -36.944  -8.769  16.097 -0.02 +0.00    +0.001 A  
DOCKED: ENDBRANCH   2  18
DOCKED: TORSDOF 5
DOCKED: TER
DOCKED: ENDMDL
________________________________________________________________________________


    FINAL DOCKED STATE:
    ________________________


Run:   179 / 512
Time taken for this run:   0.002s

DOCKED: MODEL        179
DOCKED: USER    Run = 179
DOCKED: USER
DOCKED: USER    Estimated Free Energy of Binding    =  -3.55 kcal/mol  [=(1)+(2)+(3)-(4)]
DOCKED: USER
DOCKED: USER    (1) Final Intermolecular Energy     =  -5.04 kcal/mol
DOCKED: USER        vdW + Hbond + desolv Energy     =  -5.04 kcal/mol
DOCKED: USER        Electrostatic Energy            =  +0.00 kcal/mol
DOCKED: USER        Moving Ligand-Fixed Receptor    =  -5.04 kcal/mol
DOCKED: USER        Moving Ligand-Moving Receptor   =  +0.00 kcal/mol
DOCKED: USER    (2) Final Total Internal Energy     =  -1.35 kcal/mol
DOCKED: USER    (3) Torsional Free Energy           =  +1.49 kcal/mol
DOCKED: USER    (4) Unbound System's Energy         =  -1.35 kcal/mol
DOCKED: USER
DOCKED: USER
DOCKED: REMARK  5 active torsions:
DOCKED: REMARK  status: ('A' for Active; 'I' for Inactive)
DOCKED: REMARK    1  A    between atoms: C_2  and  C_19 
DOCKED: REMARK    2  A    between atoms: C_2  and  C_11 
DOCKED: REMARK    3  A    between atoms: C_19  and  C_20 
DOCKED: REMARK    4  A    between atoms: C_20  and  C_21 
DOCKED: REMARK    5  A    between atoms: C_21  and  N_22 
DOCKED: USER                              x       y       z     vdW  Elec       q    Type
DOCKED: USER                           _______ _______ _______ _____ _____    ______ ____
DOCKED: ROOT
DOCKED: ATOM      1  O   UNL     1     -29.898  -0.194   1.650 -0.01 -0.00    -0.346 OA 
DOCKED: ATOM      2  C   UNL     1     -30.378  -0.852   2.866 -0.04 +0.00    +0.130 C  
DOCKED: ATOM      3  C   UNL     1     -31.845  -1.045   2.615 -0.12 +0.00    +0.004 A  
DOCKED: ATOM      4  C   UNL     1     -32.156  -0.635   1.326 -0.18 +0.00    +0.006 A  
DOCKED: ATOM      5  C   UNL     1     -30.933  -0.162   0.641 -0.09 +0.00    +0.169 C  
DOCKED: ATOM      6  C   UNL     1     -32.824  -1.553   3.456 -0.19 -0.00    -0.001 A  
DOCKED: ATOM      7  C   UNL     1     -33.449  -0.715   0.838 -0.27 +0.00    +0.008 A  
DOCKED: ATOM      8  C   UNL     1     -34.134  -1.635   2.980 -0.30 +0.00    +0.010 A  
DOCKED: ATOM      9  C   UNL     1     -34.444  -1.218   1.677 -0.35 +0.00    +0.068 A  
DOCKED: ATOM     10  N   UNL     1     -36.884  -1.389   0.821 -2.56 -0.00    -0.191 NA 
DOCKED: ATOM     11  C   UNL     1     -35.790  -1.312   1.205 -0.40 +0.00    +0.101 C  
DOCKED: ENDROOT
DOCKED: BRANCH   2  12
DOCKED: ATOM     12  C   UNL     1     -29.626  -2.167   3.032 -0.02 +0.00    +0.038 C  
DOCKED: BRANCH  12  13
DOCKED: ATOM     13  C   UNL     1     -30.277  -3.287   2.222 -0.02 +0.00    +0.038 C  
DOCKED: BRANCH  13  14
DOCKED: ATOM     14  C   UNL     1     -29.673  -3.374   0.822 +0.00 +0.00    +0.251 C  
DOCKED: BRANCH  14  15
DOCKED: ATOM     15  N   UNL     1     -30.446  -4.290  -0.008 -0.02 +0.00    +0.141 N  
DOCKED: ATOM     16  C   UNL     1     -31.755  -4.551   0.593 -0.08 +0.00    +0.285 C  
DOCKED: ATOM     17  C   UNL     1     -30.607  -3.752  -1.360 -0.01 +0.00    +0.285 C  
DOCKED: ENDBRANCH  14  15
DOCKED: ENDBRANCH  13  14
DOCKED: ENDBRANCH  12  13
DOCKED: ENDBRANCH   2  12
DOCKED: BRANCH   2  18
DOCKED: ATOM     18  C   UNL     1     -30.099   0.074   4.002 -0.06 +0.00    +0.006 A  
DOCKED: ATOM     19  C   UNL     1     -28.857   0.047   4.635 -0.02 +0.00    +0.001 A  
DOCKED: ATOM     20  C   UNL     1     -28.597   0.913   5.697 -0.02 +0.00    +0.029 A  
DOCKED: ATOM     21  C   UNL     1     -29.579   1.806   6.125 -0.04 +0.00    +0.140 A  
DOCKED: ATOM     22  C   UNL     1     -30.821   1.833   5.492 -0.11 +0.00    +0.029 A  
DOCKED: ATOM     23  F   UNL     1     -29.329   2.639   7.144 -0.01 -0.00    -0.204 F  
DOCKED: ATOM     24  C   UNL     1     -31.082   0.966   4.429 -0.14 +0.00    +0.001 A  
DOCKED: ENDBRANCH   2  18
DOCKED: TORSDOF 5
DOCKED: TER
DOCKED: ENDMDL
________________________________________________________________________________


    FINAL DOCKED STATE:
    ________________________


Run:   180 / 512
Time taken for this run:   0.002s

DOCKED: MODEL        180
DOCKED: USER    Run = 180
DOCKED: USER
DOCKED: USER    Estimated Free Energy of Binding    =  -4.07 kcal/mol  [=(1)+(2)+(3)-(4)]
DOCKED: USER
DOCKED: USER    (1) Final Intermolecular Energy     =  -5.56 kcal/mol
DOCKED: USER        vdW + Hbond + desolv Energy     =  -5.56 kcal/mol
DOCKED: USER        Electrostatic Energy            =  +0.00 kcal/mol
DOCKED: USER        Moving Ligand-Fixed Receptor    =  -5.56 kcal/mol
DOCKED: USER        Moving Ligand-Moving Receptor   =  +0.00 kcal/mol
DOCKED: USER    (2) Final Total Internal Energy     =  -1.21 kcal/mol
DOCKED: USER    (3) Torsional Free Energy           =  +1.49 kcal/mol
DOCKED: USER    (4) Unbound System's Energy         =  -1.21 kcal/mol
DOCKED: USER
DOCKED: USER
DOCKED: REMARK  5 active torsions:
DOCKED: REMARK  status: ('A' for Active; 'I' for Inactive)
DOCKED: REMARK    1  A    between atoms: C_2  and  C_19 
DOCKED: REMARK    2  A    between atoms: C_2  and  C_11 
DOCKED: REMARK    3  A    between atoms: C_19  and  C_20 
DOCKED: REMARK    4  A    between atoms: C_20  and  C_21 
DOCKED: REMARK    5  A    between atoms: C_21  and  N_22 
DOCKED: USER                              x       y       z     vdW  Elec       q    Type
DOCKED: USER                           _______ _______ _______ _____ _____    ______ ____
DOCKED: ROOT
DOCKED: ATOM      1  O   UNL     1     -35.043 -10.503  14.628 -0.07 -0.00    -0.346 OA 
DOCKED: ATOM      2  C   UNL     1     -36.350  -9.850  14.539 -0.10 +0.00    +0.130 C  
DOCKED: ATOM      3  C   UNL     1     -37.185 -10.822  13.757 -0.19 +0.00    +0.004 A  
DOCKED: ATOM      4  C   UNL     1     -36.455 -11.977  13.515 -0.26 +0.00    +0.006 A  
DOCKED: ATOM      5  C   UNL     1     -35.110 -11.857  14.123 -0.12 +0.00    +0.169 C  
DOCKED: ATOM      6  C   UNL     1     -38.491 -10.698  13.305 -0.21 -0.00    -0.001 A  
DOCKED: ATOM      7  C   UNL     1     -36.998 -13.040  12.815 -0.36 +0.00    +0.008 A  
DOCKED: ATOM      8  C   UNL     1     -39.052 -11.760  12.593 -0.26 +0.00    +0.010 A  
DOCKED: ATOM      9  C   UNL     1     -38.309 -12.925  12.350 -0.30 +0.00    +0.068 A  
DOCKED: ATOM     10  N   UNL     1     -39.382 -14.879  11.029 -2.40 -0.00    -0.191 NA 
DOCKED: ATOM     11  C   UNL     1     -38.900 -14.003  11.621 -0.30 +0.00    +0.101 C  
DOCKED: ENDROOT
DOCKED: BRANCH   2  12
DOCKED: ATOM     12  C   UNL     1     -36.873  -9.622  15.952 -0.04 +0.00    +0.038 C  
DOCKED: BRANCH  12  13
DOCKED: ATOM     13  C   UNL     1     -37.523 -10.883  16.516 -0.05 +0.00    +0.038 C  
DOCKED: BRANCH  13  14
DOCKED: ATOM     14  C   UNL     1     -36.468 -11.893  16.965 -0.06 +0.00    +0.251 C  
DOCKED: BRANCH  14  15
DOCKED: ATOM     15  N   UNL     1     -37.079 -12.938  17.777 -0.09 +0.00    +0.141 N  
DOCKED: ATOM     16  C   UNL     1     -37.767 -13.914  16.930 -0.14 +0.00    +0.285 C  
DOCKED: ATOM     17  C   UNL     1     -36.071 -13.605  18.603 -0.10 +0.00    +0.285 C  
DOCKED: ENDBRANCH  14  15
DOCKED: ENDBRANCH  13  14
DOCKED: ENDBRANCH  12  13
DOCKED: ENDBRANCH   2  12
DOCKED: BRANCH   2  18
DOCKED: ATOM     18  C   UNL     1     -36.143  -8.556  13.826 -0.11 +0.00    +0.006 A  
DOCKED: ATOM     19  C   UNL     1     -36.120  -7.361  14.544 -0.04 +0.00    +0.001 A  
DOCKED: ATOM     20  C   UNL     1     -35.927  -6.151  13.876 -0.03 +0.00    +0.029 A  
DOCKED: ATOM     21  C   UNL     1     -35.756  -6.138  12.492 -0.05 +0.00    +0.140 A  
DOCKED: ATOM     22  C   UNL     1     -35.779  -7.334  11.775 -0.12 +0.00    +0.029 A  
DOCKED: ATOM     23  F   UNL     1     -35.569  -4.977  11.851 -0.00 -0.00    -0.204 F  
DOCKED: ATOM     24  C   UNL     1     -35.973  -8.544  12.442 -0.18 +0.00    +0.001 A  
DOCKED: ENDBRANCH   2  18
DOCKED: TORSDOF 5
DOCKED: TER
DOCKED: ENDMDL
________________________________________________________________________________


    FINAL DOCKED STATE:
    ________________________


Run:   181 / 512
Time taken for this run:   0.002s

DOCKED: MODEL        181
DOCKED: USER    Run = 181
DOCKED: USER
DOCKED: USER    Estimated Free Energy of Binding    =  -5.81 kcal/mol  [=(1)+(2)+(3)-(4)]
DOCKED: USER
DOCKED: USER    (1) Final Intermolecular Energy     =  -7.30 kcal/mol
DOCKED: USER        vdW + Hbond + desolv Energy     =  -7.30 kcal/mol
DOCKED: USER        Electrostatic Energy            =  +0.00 kcal/mol
DOCKED: USER        Moving Ligand-Fixed Receptor    =  -7.30 kcal/mol
DOCKED: USER        Moving Ligand-Moving Receptor   =  +0.00 kcal/mol
DOCKED: USER    (2) Final Total Internal Energy     =  -1.19 kcal/mol
DOCKED: USER    (3) Torsional Free Energy           =  +1.49 kcal/mol
DOCKED: USER    (4) Unbound System's Energy         =  -1.19 kcal/mol
DOCKED: USER
DOCKED: USER
DOCKED: REMARK  5 active torsions:
DOCKED: REMARK  status: ('A' for Active; 'I' for Inactive)
DOCKED: REMARK    1  A    between atoms: C_2  and  C_19 
DOCKED: REMARK    2  A    between atoms: C_2  and  C_11 
DOCKED: REMARK    3  A    between atoms: C_19  and  C_20 
DOCKED: REMARK    4  A    between atoms: C_20  and  C_21 
DOCKED: REMARK    5  A    between atoms: C_21  and  N_22 
DOCKED: USER                              x       y       z     vdW  Elec       q    Type
DOCKED: USER                           _______ _______ _______ _____ _____    ______ ____
DOCKED: ROOT
DOCKED: ATOM      1  O   UNL     1     -37.778 -10.789  14.031 -0.03 -0.00    -0.346 OA 
DOCKED: ATOM      2  C   UNL     1     -37.405 -12.204  14.007 -0.20 +0.00    +0.130 C  
DOCKED: ATOM      3  C   UNL     1     -37.825 -12.663  12.640 -0.34 +0.00    +0.004 A  
DOCKED: ATOM      4  C   UNL     1     -38.295 -11.581  11.908 -0.34 +0.00    +0.006 A  
DOCKED: ATOM      5  C   UNL     1     -38.208 -10.348  12.722 -0.22 +0.00    +0.169 C  
DOCKED: ATOM      6  C   UNL     1     -37.783 -13.933  12.085 -0.26 -0.00    -0.001 A  
DOCKED: ATOM      7  C   UNL     1     -38.741 -11.731  10.606 +0.01 +0.00    +0.008 A  
DOCKED: ATOM      8  C   UNL     1     -38.234 -14.102  10.775 -0.47 +0.00    +0.010 A  
DOCKED: ATOM      9  C   UNL     1     -38.710 -13.006  10.039 -0.43 +0.00    +0.068 A  
DOCKED: ATOM     10  N   UNL     1     -39.534 -13.353   7.607 -2.97 -0.00    -0.191 NA 
DOCKED: ATOM     11  C   UNL     1     -39.165 -13.197   8.698 -0.43 +0.00    +0.101 C  
DOCKED: ENDROOT
DOCKED: BRANCH   2  12
DOCKED: ATOM     12  C   UNL     1     -35.901 -12.311  14.232 -0.25 +0.00    +0.038 C  
DOCKED: BRANCH  12  13
DOCKED: ATOM     13  C   UNL     1     -35.326 -11.005  14.777 -0.17 +0.00    +0.038 C  
DOCKED: BRANCH  13  14
DOCKED: ATOM     14  C   UNL     1     -34.066 -10.599  14.016 -0.03 +0.00    +0.251 C  
DOCKED: BRANCH  14  15
DOCKED: ATOM     15  N   UNL     1     -34.218  -9.261  13.458 -0.10 +0.00    +0.141 N  
DOCKED: ATOM     16  C   UNL     1     -35.527  -8.703  13.805 -0.08 +0.00    +0.285 C  
DOCKED: ATOM     17  C   UNL     1     -33.149  -8.380  13.932 -0.04 +0.00    +0.285 C  
DOCKED: ENDBRANCH  14  15
DOCKED: ENDBRANCH  13  14
DOCKED: ENDBRANCH  12  13
DOCKED: ENDBRANCH   2  12
DOCKED: BRANCH   2  18
DOCKED: ATOM     18  C   UNL     1     -38.163 -12.874  15.103 -0.18 +0.00    +0.006 A  
DOCKED: ATOM     19  C   UNL     1     -37.505 -13.259  16.271 -0.19 +0.00    +0.001 A  
DOCKED: ATOM     20  C   UNL     1     -38.215 -13.886  17.296 -0.18 +0.00    +0.029 A  
DOCKED: ATOM     21  C   UNL     1     -39.580 -14.127  17.152 -0.02 +0.00    +0.140 A  
DOCKED: ATOM     22  C   UNL     1     -40.238 -13.742  15.984 -0.15 +0.00    +0.029 A  
DOCKED: ATOM     23  F   UNL     1     -40.262 -14.727  18.136 -0.04 -0.00    -0.204 F  
DOCKED: ATOM     24  C   UNL     1     -39.528 -13.115  14.958 -0.17 +0.00    +0.001 A  
DOCKED: ENDBRANCH   2  18
DOCKED: TORSDOF 5
DOCKED: TER
DOCKED: ENDMDL
________________________________________________________________________________


    FINAL DOCKED STATE:
    ________________________


Run:   182 / 512
Time taken for this run:   0.002s

DOCKED: MODEL        182
DOCKED: USER    Run = 182
DOCKED: USER
DOCKED: USER    Estimated Free Energy of Binding    =  -4.10 kcal/mol  [=(1)+(2)+(3)-(4)]
DOCKED: USER
DOCKED: USER    (1) Final Intermolecular Energy     =  -5.59 kcal/mol
DOCKED: USER        vdW + Hbond + desolv Energy     =  -5.59 kcal/mol
DOCKED: USER        Electrostatic Energy            =  +0.00 kcal/mol
DOCKED: USER        Moving Ligand-Fixed Receptor    =  -5.59 kcal/mol
DOCKED: USER        Moving Ligand-Moving Receptor   =  +0.00 kcal/mol
DOCKED: USER    (2) Final Total Internal Energy     =  -1.37 kcal/mol
DOCKED: USER    (3) Torsional Free Energy           =  +1.49 kcal/mol
DOCKED: USER    (4) Unbound System's Energy         =  -1.37 kcal/mol
DOCKED: USER
DOCKED: USER
DOCKED: REMARK  5 active torsions:
DOCKED: REMARK  status: ('A' for Active; 'I' for Inactive)
DOCKED: REMARK    1  A    between atoms: C_2  and  C_19 
DOCKED: REMARK    2  A    between atoms: C_2  and  C_11 
DOCKED: REMARK    3  A    between atoms: C_19  and  C_20 
DOCKED: REMARK    4  A    between atoms: C_20  and  C_21 
DOCKED: REMARK    5  A    between atoms: C_21  and  N_22 
DOCKED: USER                              x       y       z     vdW  Elec       q    Type
DOCKED: USER                           _______ _______ _______ _____ _____    ______ ____
DOCKED: ROOT
DOCKED: ATOM      1  O   UNL     1     -35.076 -10.550  15.023 -0.05 -0.00    -0.346 OA 
DOCKED: ATOM      2  C   UNL     1     -35.813  -9.716  14.073 -0.12 +0.00    +0.130 C  
DOCKED: ATOM      3  C   UNL     1     -36.624 -10.702  13.283 -0.22 +0.00    +0.004 A  
DOCKED: ATOM      4  C   UNL     1     -36.452 -11.975  13.806 -0.25 +0.00    +0.006 A  
DOCKED: ATOM      5  C   UNL     1     -35.539 -11.920  14.970 -0.15 +0.00    +0.169 C  
DOCKED: ATOM      6  C   UNL     1     -37.457 -10.487  12.194 -0.26 -0.00    -0.001 A  
DOCKED: ATOM      7  C   UNL     1     -37.097 -13.072  13.262 -0.35 +0.00    +0.008 A  
DOCKED: ATOM      8  C   UNL     1     -38.112 -11.583  11.631 -0.34 +0.00    +0.010 A  
DOCKED: ATOM      9  C   UNL     1     -37.933 -12.869  12.163 -0.33 +0.00    +0.068 A  
DOCKED: ATOM     10  N   UNL     1     -39.168 -14.882  11.096 -2.46 -0.00    -0.191 NA 
DOCKED: ATOM     11  C   UNL     1     -38.614 -13.979  11.574 -0.33 +0.00    +0.101 C  
DOCKED: ENDROOT
DOCKED: BRANCH   2  12
DOCKED: ATOM     12  C   UNL     1     -36.674  -8.734  14.860 -0.06 +0.00    +0.038 C  
DOCKED: BRANCH  12  13
DOCKED: ATOM     13  C   UNL     1     -37.806  -9.450  15.593 -0.04 +0.00    +0.038 C  
DOCKED: BRANCH  13  14
DOCKED: ATOM     14  C   UNL     1     -37.549  -9.487  17.099 -0.00 +0.00    +0.251 C  
DOCKED: BRANCH  14  15
DOCKED: ATOM     15  N   UNL     1     -36.117  -9.550  17.367 -0.01 +0.00    +0.141 N  
DOCKED: ATOM     16  C   UNL     1     -35.651  -8.302  17.975 -0.00 +0.00    +0.285 C  
DOCKED: ATOM     17  C   UNL     1     -35.805 -10.685  18.236 -0.01 +0.00    +0.285 C  
DOCKED: ENDBRANCH  14  15
DOCKED: ENDBRANCH  13  14
DOCKED: ENDBRANCH  12  13
DOCKED: ENDBRANCH   2  12
DOCKED: BRANCH   2  18
DOCKED: ATOM     18  C   UNL     1     -34.800  -8.999  13.245 -0.13 +0.00    +0.006 A  
DOCKED: ATOM     19  C   UNL     1     -35.181  -7.905  12.469 -0.14 +0.00    +0.001 A  
DOCKED: ATOM     20  C   UNL     1     -34.233  -7.237  11.695 -0.10 +0.00    +0.029 A  
DOCKED: ATOM     21  C   UNL     1     -32.905  -7.662  11.697 -0.07 +0.00    +0.140 A  
DOCKED: ATOM     22  C   UNL     1     -32.524  -8.756  12.474 -0.10 +0.00    +0.029 A  
DOCKED: ATOM     23  F   UNL     1     -31.994  -7.018  10.955 -0.00 -0.00    -0.204 F  
DOCKED: ATOM     24  C   UNL     1     -33.472  -9.426  13.248 -0.05 +0.00    +0.001 A  
DOCKED: ENDBRANCH   2  18
DOCKED: TORSDOF 5
DOCKED: TER
DOCKED: ENDMDL
________________________________________________________________________________


    FINAL DOCKED STATE:
    ________________________


Run:   183 / 512
Time taken for this run:   0.002s

DOCKED: MODEL        183
DOCKED: USER    Run = 183
DOCKED: USER
DOCKED: USER    Estimated Free Energy of Binding    =  -3.99 kcal/mol  [=(1)+(2)+(3)-(4)]
DOCKED: USER
DOCKED: USER    (1) Final Intermolecular Energy     =  -5.48 kcal/mol
DOCKED: USER        vdW + Hbond + desolv Energy     =  -5.48 kcal/mol
DOCKED: USER        Electrostatic Energy            =  +0.00 kcal/mol
DOCKED: USER        Moving Ligand-Fixed Receptor    =  -5.48 kcal/mol
DOCKED: USER        Moving Ligand-Moving Receptor   =  +0.00 kcal/mol
DOCKED: USER    (2) Final Total Internal Energy     =  -0.96 kcal/mol
DOCKED: USER    (3) Torsional Free Energy           =  +1.49 kcal/mol
DOCKED: USER    (4) Unbound System's Energy         =  -0.96 kcal/mol
DOCKED: USER
DOCKED: USER
DOCKED: REMARK  5 active torsions:
DOCKED: REMARK  status: ('A' for Active; 'I' for Inactive)
DOCKED: REMARK    1  A    between atoms: C_2  and  C_19 
DOCKED: REMARK    2  A    between atoms: C_2  and  C_11 
DOCKED: REMARK    3  A    between atoms: C_19  and  C_20 
DOCKED: REMARK    4  A    between atoms: C_20  and  C_21 
DOCKED: REMARK    5  A    between atoms: C_21  and  N_22 
DOCKED: USER                              x       y       z     vdW  Elec       q    Type
DOCKED: USER                           _______ _______ _______ _____ _____    ______ ____
DOCKED: ROOT
DOCKED: ATOM      1  O   UNL     1     -34.044  -4.500   6.555 -0.06 -0.00    -0.346 OA 
DOCKED: ATOM      2  C   UNL     1     -32.929  -3.983   5.759 -0.12 +0.00    +0.130 C  
DOCKED: ATOM      3  C   UNL     1     -33.596  -3.369   4.563 -0.20 +0.00    +0.004 A  
DOCKED: ATOM      4  C   UNL     1     -34.974  -3.430   4.713 -0.26 +0.00    +0.006 A  
DOCKED: ATOM      5  C   UNL     1     -35.311  -4.067   6.006 -0.25 +0.00    +0.169 C  
DOCKED: ATOM      6  C   UNL     1     -33.028  -2.793   3.436 -0.17 -0.00    -0.001 A  
DOCKED: ATOM      7  C   UNL     1     -35.828  -2.925   3.748 -0.34 +0.00    +0.008 A  
DOCKED: ATOM      8  C   UNL     1     -33.876  -2.282   2.451 -0.26 +0.00    +0.010 A  
DOCKED: ATOM      9  C   UNL     1     -35.268  -2.347   2.607 -0.31 +0.00    +0.068 A  
DOCKED: ATOM     10  N   UNL     1     -36.813  -1.385   0.762 -2.56 -0.00    -0.191 NA 
DOCKED: ATOM     11  C   UNL     1     -36.120  -1.817   1.589 -0.34 +0.00    +0.101 C  
DOCKED: ENDROOT
DOCKED: BRANCH   2  12
DOCKED: ATOM     12  C   UNL     1     -32.167  -2.966   6.600 -0.14 +0.00    +0.038 C  
DOCKED: BRANCH  12  13
DOCKED: ATOM     13  C   UNL     1     -31.829  -1.716   5.791 -0.10 +0.00    +0.038 C  
DOCKED: BRANCH  13  14
DOCKED: ATOM     14  C   UNL     1     -30.533  -1.075   6.285 -0.09 +0.00    +0.251 C  
DOCKED: BRANCH  14  15
DOCKED: ATOM     15  N   UNL     1     -29.409  -1.505   5.461 -0.03 +0.00    +0.141 N  
DOCKED: ATOM     16  C   UNL     1     -29.883  -2.087   4.204 -0.01 +0.00    +0.285 C  
DOCKED: ATOM     17  C   UNL     1     -28.508  -0.383   5.193 -0.01 +0.00    +0.285 C  
DOCKED: ENDBRANCH  14  15
DOCKED: ENDBRANCH  13  14
DOCKED: ENDBRANCH  12  13
DOCKED: ENDBRANCH   2  12
DOCKED: BRANCH   2  18
DOCKED: ATOM     18  C   UNL     1     -32.066  -5.149   5.410 -0.05 +0.00    +0.006 A  
DOCKED: ATOM     19  C   UNL     1     -32.547  -6.142   4.557 -0.10 +0.00    +0.001 A  
DOCKED: ATOM     20  C   UNL     1     -31.739  -7.231   4.232 -0.08 +0.00    +0.029 A  
DOCKED: ATOM     21  C   UNL     1     -30.451  -7.327   4.758 -0.01 +0.00    +0.140 A  
DOCKED: ATOM     22  C   UNL     1     -29.970  -6.333   5.610 -0.00 +0.00    +0.029 A  
DOCKED: ATOM     23  F   UNL     1     -29.675  -8.372   4.444 +0.00 -0.00    -0.204 F  
DOCKED: ATOM     24  C   UNL     1     -30.779  -5.243   5.937 -0.02 +0.00    +0.001 A  
DOCKED: ENDBRANCH   2  18
DOCKED: TORSDOF 5
DOCKED: TER
DOCKED: ENDMDL
________________________________________________________________________________


    FINAL DOCKED STATE:
    ________________________


Run:   184 / 512
Time taken for this run:   0.002s

DOCKED: MODEL        184
DOCKED: USER    Run = 184
DOCKED: USER
DOCKED: USER    Estimated Free Energy of Binding    =  -4.11 kcal/mol  [=(1)+(2)+(3)-(4)]
DOCKED: USER
DOCKED: USER    (1) Final Intermolecular Energy     =  -5.60 kcal/mol
DOCKED: USER        vdW + Hbond + desolv Energy     =  -5.60 kcal/mol
DOCKED: USER        Electrostatic Energy            =  +0.00 kcal/mol
DOCKED: USER        Moving Ligand-Fixed Receptor    =  -5.60 kcal/mol
DOCKED: USER        Moving Ligand-Moving Receptor   =  +0.00 kcal/mol
DOCKED: USER    (2) Final Total Internal Energy     =  -1.32 kcal/mol
DOCKED: USER    (3) Torsional Free Energy           =  +1.49 kcal/mol
DOCKED: USER    (4) Unbound System's Energy         =  -1.32 kcal/mol
DOCKED: USER
DOCKED: USER
DOCKED: REMARK  5 active torsions:
DOCKED: REMARK  status: ('A' for Active; 'I' for Inactive)
DOCKED: REMARK    1  A    between atoms: C_2  and  C_19 
DOCKED: REMARK    2  A    between atoms: C_2  and  C_11 
DOCKED: REMARK    3  A    between atoms: C_19  and  C_20 
DOCKED: REMARK    4  A    between atoms: C_20  and  C_21 
DOCKED: REMARK    5  A    between atoms: C_21  and  N_22 
DOCKED: USER                              x       y       z     vdW  Elec       q    Type
DOCKED: USER                           _______ _______ _______ _____ _____    ______ ____
DOCKED: ROOT
DOCKED: ATOM      1  O   UNL     1     -31.316  -0.144   5.376 -0.08 -0.00    -0.346 OA 
DOCKED: ATOM      2  C   UNL     1     -31.288  -1.569   5.045 -0.12 +0.00    +0.130 C  
DOCKED: ATOM      3  C   UNL     1     -32.448  -1.743   4.107 -0.16 +0.00    +0.004 A  
DOCKED: ATOM      4  C   UNL     1     -33.020  -0.507   3.839 -0.24 +0.00    +0.006 A  
DOCKED: ATOM      5  C   UNL     1     -32.283   0.555   4.558 -0.21 +0.00    +0.169 C  
DOCKED: ATOM      6  C   UNL     1     -32.949  -2.900   3.530 -0.16 -0.00    -0.001 A  
DOCKED: ATOM      7  C   UNL     1     -34.109  -0.386   2.992 -0.21 +0.00    +0.008 A  
DOCKED: ATOM      8  C   UNL     1     -34.050  -2.795   2.677 -0.26 +0.00    +0.010 A  
DOCKED: ATOM      9  C   UNL     1     -34.626  -1.544   2.410 -0.34 +0.00    +0.068 A  
DOCKED: ATOM     10  N   UNL     1     -36.665  -1.384   0.818 -2.55 -0.00    -0.191 NA 
DOCKED: ATOM     11  C   UNL     1     -35.751  -1.456   1.533 -0.44 +0.00    +0.101 C  
DOCKED: ENDROOT
DOCKED: BRANCH   2  12
DOCKED: ATOM     12  C   UNL     1     -29.947  -1.888   4.395 -0.04 +0.00    +0.038 C  
DOCKED: BRANCH  12  13
DOCKED: ATOM     13  C   UNL     1     -30.015  -1.741   2.876 -0.03 +0.00    +0.038 C  
DOCKED: BRANCH  13  14
DOCKED: ATOM     14  C   UNL     1     -29.408  -0.415   2.425 -0.01 +0.00    +0.251 C  
DOCKED: BRANCH  14  15
DOCKED: ATOM     15  N   UNL     1     -30.453   0.490   1.961 -0.08 +0.00    +0.141 N  
DOCKED: ATOM     16  C   UNL     1     -29.885   1.788   1.591 -0.02 +0.00    +0.285 C  
DOCKED: ATOM     17  C   UNL     1     -31.173  -0.091   0.827 -0.05 +0.00    +0.285 C  
DOCKED: ENDBRANCH  14  15
DOCKED: ENDBRANCH  13  14
DOCKED: ENDBRANCH  12  13
DOCKED: ENDBRANCH   2  12
DOCKED: BRANCH   2  18
DOCKED: ATOM     18  C   UNL     1     -31.458  -2.318   6.325 -0.12 +0.00    +0.006 A  
DOCKED: ATOM     19  C   UNL     1     -30.472  -2.249   7.308 -0.09 +0.00    +0.001 A  
DOCKED: ATOM     20  C   UNL     1     -30.631  -2.950   8.504 -0.07 +0.00    +0.029 A  
DOCKED: ATOM     21  C   UNL     1     -31.776  -3.717   8.715 -0.07 +0.00    +0.140 A  
DOCKED: ATOM     22  C   UNL     1     -32.763  -3.784   7.732 -0.13 +0.00    +0.029 A  
DOCKED: ATOM     23  F   UNL     1     -31.930  -4.388   9.864 -0.01 -0.00    -0.204 F  
DOCKED: ATOM     24  C   UNL     1     -32.604  -3.084   6.535 -0.12 +0.00    +0.001 A  
DOCKED: ENDBRANCH   2  18
DOCKED: TORSDOF 5
DOCKED: TER
DOCKED: ENDMDL
________________________________________________________________________________


    FINAL DOCKED STATE:
    ________________________


Run:   185 / 512
Time taken for this run:   0.002s

DOCKED: MODEL        185
DOCKED: USER    Run = 185
DOCKED: USER
DOCKED: USER    Estimated Free Energy of Binding    =  -4.96 kcal/mol  [=(1)+(2)+(3)-(4)]
DOCKED: USER
DOCKED: USER    (1) Final Intermolecular Energy     =  -6.45 kcal/mol
DOCKED: USER        vdW + Hbond + desolv Energy     =  -6.45 kcal/mol
DOCKED: USER        Electrostatic Energy            =  +0.00 kcal/mol
DOCKED: USER        Moving Ligand-Fixed Receptor    =  -6.45 kcal/mol
DOCKED: USER        Moving Ligand-Moving Receptor   =  +0.00 kcal/mol
DOCKED: USER    (2) Final Total Internal Energy     =  -1.18 kcal/mol
DOCKED: USER    (3) Torsional Free Energy           =  +1.49 kcal/mol
DOCKED: USER    (4) Unbound System's Energy         =  -1.18 kcal/mol
DOCKED: USER
DOCKED: USER
DOCKED: REMARK  5 active torsions:
DOCKED: REMARK  status: ('A' for Active; 'I' for Inactive)
DOCKED: REMARK    1  A    between atoms: C_2  and  C_19 
DOCKED: REMARK    2  A    between atoms: C_2  and  C_11 
DOCKED: REMARK    3  A    between atoms: C_19  and  C_20 
DOCKED: REMARK    4  A    between atoms: C_20  and  C_21 
DOCKED: REMARK    5  A    between atoms: C_21  and  N_22 
DOCKED: USER                              x       y       z     vdW  Elec       q    Type
DOCKED: USER                           _______ _______ _______ _____ _____    ______ ____
DOCKED: ROOT
DOCKED: ATOM      1  O   UNL     1     -35.693  -4.349   7.046 -0.11 -0.00    -0.346 OA 
DOCKED: ATOM      2  C   UNL     1     -34.412  -4.438   6.344 -0.19 +0.00    +0.130 C  
DOCKED: ATOM      3  C   UNL     1     -34.684  -3.789   5.018 -0.27 +0.00    +0.004 A  
DOCKED: ATOM      4  C   UNL     1     -35.973  -3.276   5.004 -0.16 +0.00    +0.006 A  
DOCKED: ATOM      5  C   UNL     1     -36.630  -3.533   6.305 -0.14 +0.00    +0.169 C  
DOCKED: ATOM      6  C   UNL     1     -33.853  -3.654   3.915 -0.23 -0.00    -0.001 A  
DOCKED: ATOM      7  C   UNL     1     -36.475  -2.617   3.895 -0.28 +0.00    +0.008 A  
DOCKED: ATOM      8  C   UNL     1     -34.346  -2.996   2.787 -0.25 +0.00    +0.010 A  
DOCKED: ATOM      9  C   UNL     1     -35.650  -2.480   2.777 -0.27 +0.00    +0.068 A  
DOCKED: ATOM     10  N   UNL     1     -36.533  -1.261   0.668 -2.51 -0.00    -0.191 NA 
DOCKED: ATOM     11  C   UNL     1     -36.137  -1.808   1.614 -0.35 +0.00    +0.101 C  
DOCKED: ENDROOT
DOCKED: BRANCH   2  12
DOCKED: ATOM     12  C   UNL     1     -33.360  -3.698   7.162 -0.17 +0.00    +0.038 C  
DOCKED: BRANCH  12  13
DOCKED: ATOM     13  C   UNL     1     -32.953  -4.497   8.399 -0.10 +0.00    +0.038 C  
DOCKED: BRANCH  13  14
DOCKED: ATOM     14  C   UNL     1     -33.956  -4.300   9.534 -0.08 +0.00    +0.251 C  
DOCKED: BRANCH  14  15
DOCKED: ATOM     15  N   UNL     1     -33.992  -2.901   9.943 -0.12 +0.00    +0.141 N  
DOCKED: ATOM     16  C   UNL     1     -35.152  -2.642  10.796 -0.10 +0.00    +0.285 C  
DOCKED: ATOM     17  C   UNL     1     -32.757  -2.536  10.639 -0.05 +0.00    +0.285 C  
DOCKED: ENDBRANCH  14  15
DOCKED: ENDBRANCH  13  14
DOCKED: ENDBRANCH  12  13
DOCKED: ENDBRANCH   2  12
DOCKED: BRANCH   2  18
DOCKED: ATOM     18  C   UNL     1     -34.079  -5.888   6.225 -0.16 +0.00    +0.006 A  
DOCKED: ATOM     19  C   UNL     1     -34.789  -6.829   6.969 -0.21 +0.00    +0.001 A  
DOCKED: ATOM     20  C   UNL     1     -34.477  -8.184   6.857 -0.23 +0.00    +0.029 A  
DOCKED: ATOM     21  C   UNL     1     -33.457  -8.597   6.001 -0.16 +0.00    +0.140 A  
DOCKED: ATOM     22  C   UNL     1     -32.748  -7.655   5.256 -0.16 +0.00    +0.029 A  
DOCKED: ATOM     23  F   UNL     1     -33.159  -9.898   5.892 -0.05 -0.00    -0.204 F  
DOCKED: ATOM     24  C   UNL     1     -33.059  -6.299   5.368 -0.12 +0.00    +0.001 A  
DOCKED: ENDBRANCH   2  18
DOCKED: TORSDOF 5
DOCKED: TER
DOCKED: ENDMDL
________________________________________________________________________________


    FINAL DOCKED STATE:
    ________________________


Run:   186 / 512
Time taken for this run:   0.002s

DOCKED: MODEL        186
DOCKED: USER    Run = 186
DOCKED: USER
DOCKED: USER    Estimated Free Energy of Binding    =  -4.01 kcal/mol  [=(1)+(2)+(3)-(4)]
DOCKED: USER
DOCKED: USER    (1) Final Intermolecular Energy     =  -5.50 kcal/mol
DOCKED: USER        vdW + Hbond + desolv Energy     =  -5.50 kcal/mol
DOCKED: USER        Electrostatic Energy            =  +0.00 kcal/mol
DOCKED: USER        Moving Ligand-Fixed Receptor    =  -5.50 kcal/mol
DOCKED: USER        Moving Ligand-Moving Receptor   =  +0.00 kcal/mol
DOCKED: USER    (2) Final Total Internal Energy     =  -1.02 kcal/mol
DOCKED: USER    (3) Torsional Free Energy           =  +1.49 kcal/mol
DOCKED: USER    (4) Unbound System's Energy         =  -1.02 kcal/mol
DOCKED: USER
DOCKED: USER
DOCKED: REMARK  5 active torsions:
DOCKED: REMARK  status: ('A' for Active; 'I' for Inactive)
DOCKED: REMARK    1  A    between atoms: C_2  and  C_19 
DOCKED: REMARK    2  A    between atoms: C_2  and  C_11 
DOCKED: REMARK    3  A    between atoms: C_19  and  C_20 
DOCKED: REMARK    4  A    between atoms: C_20  and  C_21 
DOCKED: REMARK    5  A    between atoms: C_21  and  N_22 
DOCKED: USER                              x       y       z     vdW  Elec       q    Type
DOCKED: USER                           _______ _______ _______ _____ _____    ______ ____
DOCKED: ROOT
DOCKED: ATOM      1  O   UNL     1     -39.632  -8.370  13.935 -0.04 -0.00    -0.346 OA 
DOCKED: ATOM      2  C   UNL     1     -38.300  -8.575  13.364 -0.16 +0.00    +0.130 C  
DOCKED: ATOM      3  C   UNL     1     -38.360  -9.964  12.797 -0.24 +0.00    +0.004 A  
DOCKED: ATOM      4  C   UNL     1     -39.646 -10.467  12.932 -0.22 +0.00    +0.006 A  
DOCKED: ATOM      5  C   UNL     1     -40.516  -9.458  13.577 -0.15 +0.00    +0.169 C  
DOCKED: ATOM      6  C   UNL     1     -37.361 -10.717  12.199 -0.26 -0.00    -0.001 A  
DOCKED: ATOM      7  C   UNL     1     -39.975 -11.734  12.481 -0.24 +0.00    +0.008 A  
DOCKED: ATOM      8  C   UNL     1     -37.675 -11.998  11.743 -0.32 +0.00    +0.010 A  
DOCKED: ATOM      9  C   UNL     1     -38.976 -12.504  11.883 -0.29 +0.00    +0.068 A  
DOCKED: ATOM     10  N   UNL     1     -39.528 -14.884  11.022 -2.39 -0.00    -0.191 NA 
DOCKED: ATOM     11  C   UNL     1     -39.280 -13.817  11.409 -0.39 +0.00    +0.101 C  
DOCKED: ENDROOT
DOCKED: BRANCH   2  12
DOCKED: ATOM     12  C   UNL     1     -38.061  -7.509  12.301 -0.11 +0.00    +0.038 C  
DOCKED: BRANCH  12  13
DOCKED: ATOM     13  C   UNL     1     -38.633  -6.159  12.727 -0.15 +0.00    +0.038 C  
DOCKED: BRANCH  13  14
DOCKED: ATOM     14  C   UNL     1     -37.774  -5.009  12.206 -0.07 +0.00    +0.251 C  
DOCKED: BRANCH  14  15
DOCKED: ATOM     15  N   UNL     1     -37.914  -4.886  10.760 -0.12 +0.00    +0.141 N  
DOCKED: ATOM     16  C   UNL     1     -39.086  -4.078  10.421 -0.09 +0.00    +0.285 C  
DOCKED: ATOM     17  C   UNL     1     -36.707  -4.300  10.173 -0.07 +0.00    +0.285 C  
DOCKED: ENDBRANCH  14  15
DOCKED: ENDBRANCH  13  14
DOCKED: ENDBRANCH  12  13
DOCKED: ENDBRANCH   2  12
DOCKED: BRANCH   2  18
DOCKED: ATOM     18  C   UNL     1     -37.321  -8.446  14.484 -0.06 +0.00    +0.006 A  
DOCKED: ATOM     19  C   UNL     1     -36.047  -7.934  14.240 -0.06 +0.00    +0.001 A  
DOCKED: ATOM     20  C   UNL     1     -35.133  -7.815  15.288 -0.02 +0.00    +0.029 A  
DOCKED: ATOM     21  C   UNL     1     -35.494  -8.207  16.576 -0.00 +0.00    +0.140 A  
DOCKED: ATOM     22  C   UNL     1     -36.769  -8.719  16.819 -0.01 +0.00    +0.029 A  
DOCKED: ATOM     23  F   UNL     1     -34.617  -8.090  17.582 +0.00 -0.00    -0.204 F  
DOCKED: ATOM     24  C   UNL     1     -37.684  -8.839  15.772 -0.03 +0.00    +0.001 A  
DOCKED: ENDBRANCH   2  18
DOCKED: TORSDOF 5
DOCKED: TER
DOCKED: ENDMDL
________________________________________________________________________________


    FINAL DOCKED STATE:
    ________________________


Run:   187 / 512
Time taken for this run:   0.002s

DOCKED: MODEL        187
DOCKED: USER    Run = 187
DOCKED: USER
DOCKED: USER    Estimated Free Energy of Binding    =  -4.23 kcal/mol  [=(1)+(2)+(3)-(4)]
DOCKED: USER
DOCKED: USER    (1) Final Intermolecular Energy     =  -5.72 kcal/mol
DOCKED: USER        vdW + Hbond + desolv Energy     =  -5.72 kcal/mol
DOCKED: USER        Electrostatic Energy            =  +0.00 kcal/mol
DOCKED: USER        Moving Ligand-Fixed Receptor    =  -5.72 kcal/mol
DOCKED: USER        Moving Ligand-Moving Receptor   =  +0.00 kcal/mol
DOCKED: USER    (2) Final Total Internal Energy     =  -1.18 kcal/mol
DOCKED: USER    (3) Torsional Free Energy           =  +1.49 kcal/mol
DOCKED: USER    (4) Unbound System's Energy         =  -1.18 kcal/mol
DOCKED: USER
DOCKED: USER
DOCKED: REMARK  5 active torsions:
DOCKED: REMARK  status: ('A' for Active; 'I' for Inactive)
DOCKED: REMARK    1  A    between atoms: C_2  and  C_19 
DOCKED: REMARK    2  A    between atoms: C_2  and  C_11 
DOCKED: REMARK    3  A    between atoms: C_19  and  C_20 
DOCKED: REMARK    4  A    between atoms: C_20  and  C_21 
DOCKED: REMARK    5  A    between atoms: C_21  and  N_22 
DOCKED: USER                              x       y       z     vdW  Elec       q    Type
DOCKED: USER                           _______ _______ _______ _____ _____    ______ ____
DOCKED: ROOT
DOCKED: ATOM      1  O   UNL     1     -37.112  -8.250  13.549 -0.04 -0.00    -0.346 OA 
DOCKED: ATOM      2  C   UNL     1     -38.572  -8.220  13.645 -0.13 +0.00    +0.130 C  
DOCKED: ATOM      3  C   UNL     1     -38.993  -9.572  13.145 -0.21 +0.00    +0.004 A  
DOCKED: ATOM      4  C   UNL     1     -37.870 -10.347  12.891 -0.25 +0.00    +0.006 A  
DOCKED: ATOM      5  C   UNL     1     -36.647  -9.578  13.212 -0.17 +0.00    +0.169 C  
DOCKED: ATOM      6  C   UNL     1     -40.268 -10.080  12.943 -0.22 -0.00    -0.001 A  
DOCKED: ATOM      7  C   UNL     1     -37.981 -11.645  12.425 -0.32 +0.00    +0.008 A  
DOCKED: ATOM      8  C   UNL     1     -40.397 -11.386  12.469 -0.23 +0.00    +0.010 A  
DOCKED: ATOM      9  C   UNL     1     -39.259 -12.165  12.211 -0.25 +0.00    +0.068 A  
DOCKED: ATOM     10  N   UNL     1     -39.532 -14.588  11.336 -2.55 -0.00    -0.191 NA 
DOCKED: ATOM     11  C   UNL     1     -39.409 -13.501  11.728 -0.36 +0.00    +0.101 C  
DOCKED: ENDROOT
DOCKED: BRANCH   2  12
DOCKED: ATOM     12  C   UNL     1     -38.955  -7.980  15.100 -0.04 +0.00    +0.038 C  
DOCKED: BRANCH  12  13
DOCKED: ATOM     13  C   UNL     1     -38.897  -9.272  15.913 -0.03 +0.00    +0.038 C  
DOCKED: BRANCH  13  14
DOCKED: ATOM     14  C   UNL     1     -37.493  -9.510  16.466 -0.01 +0.00    +0.251 C  
DOCKED: BRANCH  14  15
DOCKED: ATOM     15  N   UNL     1     -37.296  -8.750  17.694 -0.00 +0.00    +0.141 N  
DOCKED: ATOM     16  C   UNL     1     -36.963  -9.642  18.806 -0.00 +0.00    +0.285 C  
DOCKED: ATOM     17  C   UNL     1     -36.246  -7.746  17.516 -0.00 +0.00    +0.285 C  
DOCKED: ENDBRANCH  14  15
DOCKED: ENDBRANCH  13  14
DOCKED: ENDBRANCH  12  13
DOCKED: ENDBRANCH   2  12
DOCKED: BRANCH   2  18
DOCKED: ATOM     18  C   UNL     1     -39.044  -7.105  12.773 -0.19 +0.00    +0.006 A  
DOCKED: ATOM     19  C   UNL     1     -38.169  -6.515  11.862 -0.10 +0.00    +0.001 A  
DOCKED: ATOM     20  C   UNL     1     -38.611  -5.472  11.047 -0.14 +0.00    +0.029 A  
DOCKED: ATOM     21  C   UNL     1     -39.927  -5.022  11.144 -0.11 +0.00    +0.140 A  
DOCKED: ATOM     22  C   UNL     1     -40.802  -5.613  12.055 -0.16 +0.00    +0.029 A  
DOCKED: ATOM     23  F   UNL     1     -40.351  -4.022  10.360 -0.03 -0.00    -0.204 F  
DOCKED: ATOM     24  C   UNL     1     -40.360  -6.656  12.871 -0.19 +0.00    +0.001 A  
DOCKED: ENDBRANCH   2  18
DOCKED: TORSDOF 5
DOCKED: TER
DOCKED: ENDMDL
________________________________________________________________________________


    FINAL DOCKED STATE:
    ________________________


Run:   188 / 512
Time taken for this run:   0.002s

DOCKED: MODEL        188
DOCKED: USER    Run = 188
DOCKED: USER
DOCKED: USER    Estimated Free Energy of Binding    =  -4.82 kcal/mol  [=(1)+(2)+(3)-(4)]
DOCKED: USER
DOCKED: USER    (1) Final Intermolecular Energy     =  -6.32 kcal/mol
DOCKED: USER        vdW + Hbond + desolv Energy     =  -6.32 kcal/mol
DOCKED: USER        Electrostatic Energy            =  +0.00 kcal/mol
DOCKED: USER        Moving Ligand-Fixed Receptor    =  -6.32 kcal/mol
DOCKED: USER        Moving Ligand-Moving Receptor   =  +0.00 kcal/mol
DOCKED: USER    (2) Final Total Internal Energy     =  -1.20 kcal/mol
DOCKED: USER    (3) Torsional Free Energy           =  +1.49 kcal/mol
DOCKED: USER    (4) Unbound System's Energy         =  -1.20 kcal/mol
DOCKED: USER
DOCKED: USER
DOCKED: REMARK  5 active torsions:
DOCKED: REMARK  status: ('A' for Active; 'I' for Inactive)
DOCKED: REMARK    1  A    between atoms: C_2  and  C_19 
DOCKED: REMARK    2  A    between atoms: C_2  and  C_11 
DOCKED: REMARK    3  A    between atoms: C_19  and  C_20 
DOCKED: REMARK    4  A    between atoms: C_20  and  C_21 
DOCKED: REMARK    5  A    between atoms: C_21  and  N_22 
DOCKED: USER                              x       y       z     vdW  Elec       q    Type
DOCKED: USER                           _______ _______ _______ _____ _____    ______ ____
DOCKED: ROOT
DOCKED: ATOM      1  O   UNL     1     -40.734 -12.623  14.592 -0.01 -0.00    -0.346 OA 
DOCKED: ATOM      2  C   UNL     1     -39.585 -11.781  14.255 -0.10 +0.00    +0.130 C  
DOCKED: ATOM      3  C   UNL     1     -39.393 -12.007  12.783 -0.24 +0.00    +0.004 A  
DOCKED: ATOM      4  C   UNL     1     -40.408 -12.820  12.299 -0.28 +0.00    +0.006 A  
DOCKED: ATOM      5  C   UNL     1     -41.337 -13.172  13.397 -0.16 +0.00    +0.169 C  
DOCKED: ATOM      6  C   UNL     1     -38.405 -11.524  11.938 -0.34 -0.00    -0.001 A  
DOCKED: ATOM      7  C   UNL     1     -40.469 -13.179  10.964 -0.37 +0.00    +0.008 A  
DOCKED: ATOM      8  C   UNL     1     -38.450 -11.880  10.590 -0.29 +0.00    +0.010 A  
DOCKED: ATOM      9  C   UNL     1     -39.477 -12.704  10.105 -0.34 +0.00    +0.068 A  
DOCKED: ATOM     10  N   UNL     1     -39.534 -13.343   7.595 -2.99 -0.00    -0.191 NA 
DOCKED: ATOM     11  C   UNL     1     -39.508 -13.057   8.721 -0.27 +0.00    +0.101 C  
DOCKED: ENDROOT
DOCKED: BRANCH   2  12
DOCKED: ATOM     12  C   UNL     1     -39.932 -10.335  14.593 -0.10 +0.00    +0.038 C  
DOCKED: BRANCH  12  13
DOCKED: ATOM     13  C   UNL     1     -40.011 -10.120  16.103 -0.04 +0.00    +0.038 C  
DOCKED: BRANCH  13  14
DOCKED: ATOM     14  C   UNL     1     -39.432  -8.762  16.495 -0.00 +0.00    +0.251 C  
DOCKED: BRANCH  14  15
DOCKED: ATOM     15  N   UNL     1     -38.340  -8.398  15.600 -0.02 +0.00    +0.141 N  
DOCKED: ATOM     16  C   UNL     1     -38.576  -7.082  15.005 -0.01 +0.00    +0.285 C  
DOCKED: ATOM     17  C   UNL     1     -37.062  -8.411  16.314 -0.00 +0.00    +0.285 C  
DOCKED: ENDBRANCH  14  15
DOCKED: ENDBRANCH  13  14
DOCKED: ENDBRANCH  12  13
DOCKED: ENDBRANCH   2  12
DOCKED: BRANCH   2  18
DOCKED: ATOM     18  C   UNL     1     -38.435 -12.264  15.073 -0.13 +0.00    +0.006 A  
DOCKED: ATOM     19  C   UNL     1     -37.268 -11.504  15.152 -0.12 +0.00    +0.001 A  
DOCKED: ATOM     20  C   UNL     1     -36.193 -11.957  15.918 -0.12 +0.00    +0.029 A  
DOCKED: ATOM     21  C   UNL     1     -36.286 -13.168  16.602 +0.02 +0.00    +0.140 A  
DOCKED: ATOM     22  C   UNL     1     -37.453 -13.927  16.523 -0.23 +0.00    +0.029 A  
DOCKED: ATOM     23  F   UNL     1     -35.254 -13.602  17.338 +0.01 -0.00    -0.204 F  
DOCKED: ATOM     24  C   UNL     1     -38.529 -13.475  15.757 -0.21 +0.00    +0.001 A  
DOCKED: ENDBRANCH   2  18
DOCKED: TORSDOF 5
DOCKED: TER
DOCKED: ENDMDL
________________________________________________________________________________


    FINAL DOCKED STATE:
    ________________________


Run:   189 / 512
Time taken for this run:   0.002s

DOCKED: MODEL        189
DOCKED: USER    Run = 189
DOCKED: USER
DOCKED: USER    Estimated Free Energy of Binding    =  -3.86 kcal/mol  [=(1)+(2)+(3)-(4)]
DOCKED: USER
DOCKED: USER    (1) Final Intermolecular Energy     =  -5.35 kcal/mol
DOCKED: USER        vdW + Hbond + desolv Energy     =  -5.35 kcal/mol
DOCKED: USER        Electrostatic Energy            =  +0.00 kcal/mol
DOCKED: USER        Moving Ligand-Fixed Receptor    =  -5.35 kcal/mol
DOCKED: USER        Moving Ligand-Moving Receptor   =  +0.00 kcal/mol
DOCKED: USER    (2) Final Total Internal Energy     =  -1.40 kcal/mol
DOCKED: USER    (3) Torsional Free Energy           =  +1.49 kcal/mol
DOCKED: USER    (4) Unbound System's Energy         =  -1.40 kcal/mol
DOCKED: USER
DOCKED: USER
DOCKED: REMARK  5 active torsions:
DOCKED: REMARK  status: ('A' for Active; 'I' for Inactive)
DOCKED: REMARK    1  A    between atoms: C_2  and  C_19 
DOCKED: REMARK    2  A    between atoms: C_2  and  C_11 
DOCKED: REMARK    3  A    between atoms: C_19  and  C_20 
DOCKED: REMARK    4  A    between atoms: C_20  and  C_21 
DOCKED: REMARK    5  A    between atoms: C_21  and  N_22 
DOCKED: USER                              x       y       z     vdW  Elec       q    Type
DOCKED: USER                           _______ _______ _______ _____ _____    ______ ____
DOCKED: ROOT
DOCKED: ATOM      1  O   UNL     1     -37.401  -8.218  13.286 -0.05 -0.00    -0.346 OA 
DOCKED: ATOM      2  C   UNL     1     -36.374  -9.165  13.723 -0.13 +0.00    +0.130 C  
DOCKED: ATOM      3  C   UNL     1     -36.910 -10.500  13.295 -0.22 +0.00    +0.004 A  
DOCKED: ATOM      4  C   UNL     1     -38.085 -10.324  12.579 -0.27 +0.00    +0.006 A  
DOCKED: ATOM      5  C   UNL     1     -38.397  -8.881  12.472 -0.16 +0.00    +0.169 C  
DOCKED: ATOM      6  C   UNL     1     -36.393 -11.769  13.513 -0.24 -0.00    -0.001 A  
DOCKED: ATOM      7  C   UNL     1     -38.782 -11.402  12.061 -0.31 +0.00    +0.008 A  
DOCKED: ATOM      8  C   UNL     1     -37.087 -12.867  13.002 -0.34 +0.00    +0.010 A  
DOCKED: ATOM      9  C   UNL     1     -38.275 -12.684  12.279 -0.30 +0.00    +0.068 A  
DOCKED: ATOM     10  N   UNL     1     -39.536 -14.743  11.340 -2.55 -0.00    -0.191 NA 
DOCKED: ATOM     11  C   UNL     1     -38.971 -13.820  11.762 -0.33 +0.00    +0.101 C  
DOCKED: ENDROOT
DOCKED: BRANCH   2  12
DOCKED: ATOM     12  C   UNL     1     -35.061  -8.804  13.037 -0.15 +0.00    +0.038 C  
DOCKED: BRANCH  12  13
DOCKED: ATOM     13  C   UNL     1     -34.424  -7.568  13.668 -0.06 +0.00    +0.038 C  
DOCKED: BRANCH  13  14
DOCKED: ATOM     14  C   UNL     1     -34.478  -6.375  12.714 -0.03 +0.00    +0.251 C  
DOCKED: BRANCH  14  15
DOCKED: ATOM     15  N   UNL     1     -35.783  -5.728  12.784 -0.03 +0.00    +0.141 N  
DOCKED: ATOM     16  C   UNL     1     -36.029  -5.208  14.130 -0.01 +0.00    +0.285 C  
DOCKED: ATOM     17  C   UNL     1     -35.877  -4.650  11.799 -0.03 +0.00    +0.285 C  
DOCKED: ENDBRANCH  14  15
DOCKED: ENDBRANCH  13  14
DOCKED: ENDBRANCH  12  13
DOCKED: ENDBRANCH   2  12
DOCKED: BRANCH   2  18
DOCKED: ATOM     18  C   UNL     1     -36.261  -9.031  15.205 -0.05 +0.00    +0.006 A  
DOCKED: ATOM     19  C   UNL     1     -35.325  -9.793  15.904 -0.05 +0.00    +0.001 A  
DOCKED: ATOM     20  C   UNL     1     -35.221  -9.667  17.290 -0.01 +0.00    +0.029 A  
DOCKED: ATOM     21  C   UNL     1     -36.051  -8.780  17.974 -0.00 +0.00    +0.140 A  
DOCKED: ATOM     22  C   UNL     1     -36.987  -8.019  17.275 -0.00 +0.00    +0.029 A  
DOCKED: ATOM     23  F   UNL     1     -35.949  -8.659  19.304 +0.00 -0.00    -0.204 F  
DOCKED: ATOM     24  C   UNL     1     -37.092  -8.144  15.888 -0.02 +0.00    +0.001 A  
DOCKED: ENDBRANCH   2  18
DOCKED: TORSDOF 5
DOCKED: TER
DOCKED: ENDMDL
________________________________________________________________________________


    FINAL DOCKED STATE:
    ________________________


Run:   190 / 512
Time taken for this run:   0.002s

DOCKED: MODEL        190
DOCKED: USER    Run = 190
DOCKED: USER
DOCKED: USER    Estimated Free Energy of Binding    =  -3.95 kcal/mol  [=(1)+(2)+(3)-(4)]
DOCKED: USER
DOCKED: USER    (1) Final Intermolecular Energy     =  -5.44 kcal/mol
DOCKED: USER        vdW + Hbond + desolv Energy     =  -5.44 kcal/mol
DOCKED: USER        Electrostatic Energy            =  +0.00 kcal/mol
DOCKED: USER        Moving Ligand-Fixed Receptor    =  -5.44 kcal/mol
DOCKED: USER        Moving Ligand-Moving Receptor   =  +0.00 kcal/mol
DOCKED: USER    (2) Final Total Internal Energy     =  -1.04 kcal/mol
DOCKED: USER    (3) Torsional Free Energy           =  +1.49 kcal/mol
DOCKED: USER    (4) Unbound System's Energy         =  -1.04 kcal/mol
DOCKED: USER
DOCKED: USER
DOCKED: REMARK  5 active torsions:
DOCKED: REMARK  status: ('A' for Active; 'I' for Inactive)
DOCKED: REMARK    1  A    between atoms: C_2  and  C_19 
DOCKED: REMARK    2  A    between atoms: C_2  and  C_11 
DOCKED: REMARK    3  A    between atoms: C_19  and  C_20 
DOCKED: REMARK    4  A    between atoms: C_20  and  C_21 
DOCKED: REMARK    5  A    between atoms: C_21  and  N_22 
DOCKED: USER                              x       y       z     vdW  Elec       q    Type
DOCKED: USER                           _______ _______ _______ _____ _____    ______ ____
DOCKED: ROOT
DOCKED: ATOM      1  O   UNL     1     -32.985  -5.120   5.585 -0.01 -0.00    -0.346 OA 
DOCKED: ATOM      2  C   UNL     1     -32.155  -5.021   4.384 -0.06 +0.00    +0.130 C  
DOCKED: ATOM      3  C   UNL     1     -32.980  -4.190   3.444 -0.15 +0.00    +0.004 A  
DOCKED: ATOM      4  C   UNL     1     -34.130  -3.759   4.089 -0.24 +0.00    +0.006 A  
DOCKED: ATOM      5  C   UNL     1     -34.140  -4.256   5.483 -0.18 +0.00    +0.169 C  
DOCKED: ATOM      6  C   UNL     1     -32.726  -3.834   2.127 -0.14 -0.00    -0.001 A  
DOCKED: ATOM      7  C   UNL     1     -35.064  -2.966   3.444 -0.32 +0.00    +0.008 A  
DOCKED: ATOM      8  C   UNL     1     -33.661  -3.039   1.461 -0.21 +0.00    +0.010 A  
DOCKED: ATOM      9  C   UNL     1     -34.823  -2.607   2.117 -0.15 +0.00    +0.068 A  
DOCKED: ATOM     10  N   UNL     1     -36.535  -1.127   0.854 -2.40 -0.00    -0.191 NA 
DOCKED: ATOM     11  C   UNL     1     -35.767  -1.792   1.420 -0.38 +0.00    +0.101 C  
DOCKED: ENDROOT
DOCKED: BRANCH   2  12
DOCKED: ATOM     12  C   UNL     1     -30.836  -4.357   4.762 -0.03 +0.00    +0.038 C  
DOCKED: BRANCH  12  13
DOCKED: ATOM     13  C   UNL     1     -31.035  -3.302   5.848 -0.08 +0.00    +0.038 C  
DOCKED: BRANCH  13  14
DOCKED: ATOM     14  C   UNL     1     -31.524  -1.984   5.250 -0.10 +0.00    +0.251 C  
DOCKED: BRANCH  14  15
DOCKED: ATOM     15  N   UNL     1     -30.460  -0.987   5.280 -0.08 +0.00    +0.141 N  
DOCKED: ATOM     16  C   UNL     1     -30.069  -0.609   3.922 -0.02 +0.00    +0.285 C  
DOCKED: ATOM     17  C   UNL     1     -30.881   0.194   6.035 -0.07 +0.00    +0.285 C  
DOCKED: ENDBRANCH  14  15
DOCKED: ENDBRANCH  13  14
DOCKED: ENDBRANCH  12  13
DOCKED: ENDBRANCH   2  12
DOCKED: BRANCH   2  18
DOCKED: ATOM     18  C   UNL     1     -31.934  -6.412   3.889 -0.08 +0.00    +0.006 A  
DOCKED: ATOM     19  C   UNL     1     -32.525  -6.829   2.697 -0.17 +0.00    +0.001 A  
DOCKED: ATOM     20  C   UNL     1     -32.319  -8.130   2.237 -0.21 +0.00    +0.029 A  
DOCKED: ATOM     21  C   UNL     1     -31.523  -9.011   2.968 -0.15 +0.00    +0.140 A  
DOCKED: ATOM     22  C   UNL     1     -30.932  -8.592   4.160 -0.08 +0.00    +0.029 A  
DOCKED: ATOM     23  F   UNL     1     -31.323 -10.259   2.524 -0.09 -0.00    -0.204 F  
DOCKED: ATOM     24  C   UNL     1     -31.138  -7.291   4.622 -0.04 +0.00    +0.001 A  
DOCKED: ENDBRANCH   2  18
DOCKED: TORSDOF 5
DOCKED: TER
DOCKED: ENDMDL
________________________________________________________________________________


    FINAL DOCKED STATE:
    ________________________


Run:   191 / 512
Time taken for this run:   0.002s

DOCKED: MODEL        191
DOCKED: USER    Run = 191
DOCKED: USER
DOCKED: USER    Estimated Free Energy of Binding    =  -4.12 kcal/mol  [=(1)+(2)+(3)-(4)]
DOCKED: USER
DOCKED: USER    (1) Final Intermolecular Energy     =  -5.62 kcal/mol
DOCKED: USER        vdW + Hbond + desolv Energy     =  -5.62 kcal/mol
DOCKED: USER        Electrostatic Energy            =  +0.00 kcal/mol
DOCKED: USER        Moving Ligand-Fixed Receptor    =  -5.62 kcal/mol
DOCKED: USER        Moving Ligand-Moving Receptor   =  +0.00 kcal/mol
DOCKED: USER    (2) Final Total Internal Energy     =  -1.50 kcal/mol
DOCKED: USER    (3) Torsional Free Energy           =  +1.49 kcal/mol
DOCKED: USER    (4) Unbound System's Energy         =  -1.50 kcal/mol
DOCKED: USER
DOCKED: USER
DOCKED: REMARK  5 active torsions:
DOCKED: REMARK  status: ('A' for Active; 'I' for Inactive)
DOCKED: REMARK    1  A    between atoms: C_2  and  C_19 
DOCKED: REMARK    2  A    between atoms: C_2  and  C_11 
DOCKED: REMARK    3  A    between atoms: C_19  and  C_20 
DOCKED: REMARK    4  A    between atoms: C_20  and  C_21 
DOCKED: REMARK    5  A    between atoms: C_21  and  N_22 
DOCKED: USER                              x       y       z     vdW  Elec       q    Type
DOCKED: USER                           _______ _______ _______ _____ _____    ______ ____
DOCKED: ROOT
DOCKED: ATOM      1  O   UNL     1     -34.919 -10.716  14.633 -0.08 -0.00    -0.346 OA 
DOCKED: ATOM      2  C   UNL     1     -35.973  -9.852  14.098 -0.13 +0.00    +0.130 C  
DOCKED: ATOM      3  C   UNL     1     -36.876 -10.800  13.363 -0.23 +0.00    +0.004 A  
DOCKED: ATOM      4  C   UNL     1     -36.440 -12.103  13.554 -0.26 +0.00    +0.006 A  
DOCKED: ATOM      5  C   UNL     1     -35.243 -12.110  14.425 -0.15 +0.00    +0.169 C  
DOCKED: ATOM      6  C   UNL     1     -38.000 -10.530  12.596 -0.28 -0.00    -0.001 A  
DOCKED: ATOM      7  C   UNL     1     -37.105 -13.176  12.985 -0.37 +0.00    +0.008 A  
DOCKED: ATOM      8  C   UNL     1     -38.680 -11.601  12.013 -0.32 +0.00    +0.010 A  
DOCKED: ATOM      9  C   UNL     1     -38.234 -12.917  12.207 -0.32 +0.00    +0.068 A  
DOCKED: ATOM     10  N   UNL     1     -39.521 -14.882  11.114 -2.43 -0.00    -0.191 NA 
DOCKED: ATOM     11  C   UNL     1     -38.944 -14.001  11.603 -0.31 +0.00    +0.101 C  
DOCKED: ENDROOT
DOCKED: BRANCH   2  12
DOCKED: ATOM     12  C   UNL     1     -36.665  -9.156  15.264 -0.05 +0.00    +0.038 C  
DOCKED: BRANCH  12  13
DOCKED: ATOM     13  C   UNL     1     -35.671  -8.357  16.105 -0.02 +0.00    +0.038 C  
DOCKED: BRANCH  13  14
DOCKED: ATOM     14  C   UNL     1     -35.057  -9.225  17.202 -0.01 +0.00    +0.251 C  
DOCKED: BRANCH  14  15
DOCKED: ATOM     15  N   UNL     1     -33.610  -9.054  17.233 -0.01 +0.00    +0.141 N  
DOCKED: ATOM     16  C   UNL     1     -32.934 -10.329  16.986 -0.01 +0.00    +0.285 C  
DOCKED: ATOM     17  C   UNL     1     -33.187  -8.057  16.249 -0.00 +0.00    +0.285 C  
DOCKED: ENDBRANCH  14  15
DOCKED: ENDBRANCH  13  14
DOCKED: ENDBRANCH  12  13
DOCKED: ENDBRANCH   2  12
DOCKED: BRANCH   2  18
DOCKED: ATOM     18  C   UNL     1     -35.310  -8.863  13.197 -0.15 +0.00    +0.006 A  
DOCKED: ATOM     19  C   UNL     1     -36.041  -7.796  12.677 -0.14 +0.00    +0.001 A  
DOCKED: ATOM     20  C   UNL     1     -35.421  -6.872  11.835 -0.11 +0.00    +0.029 A  
DOCKED: ATOM     21  C   UNL     1     -34.072  -7.017  11.515 -0.08 +0.00    +0.140 A  
DOCKED: ATOM     22  C   UNL     1     -33.341  -8.085  12.035 -0.10 +0.00    +0.029 A  
DOCKED: ATOM     23  F   UNL     1     -33.476  -6.130  10.707 -0.00 -0.00    -0.204 F  
DOCKED: ATOM     24  C   UNL     1     -33.961  -9.010  12.877 -0.06 +0.00    +0.001 A  
DOCKED: ENDBRANCH   2  18
DOCKED: TORSDOF 5
DOCKED: TER
DOCKED: ENDMDL
________________________________________________________________________________


    FINAL DOCKED STATE:
    ________________________


Run:   192 / 512
Time taken for this run:   0.002s

DOCKED: MODEL        192
DOCKED: USER    Run = 192
DOCKED: USER
DOCKED: USER    Estimated Free Energy of Binding    =  -4.00 kcal/mol  [=(1)+(2)+(3)-(4)]
DOCKED: USER
DOCKED: USER    (1) Final Intermolecular Energy     =  -5.49 kcal/mol
DOCKED: USER        vdW + Hbond + desolv Energy     =  -5.49 kcal/mol
DOCKED: USER        Electrostatic Energy            =  +0.00 kcal/mol
DOCKED: USER        Moving Ligand-Fixed Receptor    =  -5.49 kcal/mol
DOCKED: USER        Moving Ligand-Moving Receptor   =  +0.00 kcal/mol
DOCKED: USER    (2) Final Total Internal Energy     =  -1.33 kcal/mol
DOCKED: USER    (3) Torsional Free Energy           =  +1.49 kcal/mol
DOCKED: USER    (4) Unbound System's Energy         =  -1.33 kcal/mol
DOCKED: USER
DOCKED: USER
DOCKED: REMARK  5 active torsions:
DOCKED: REMARK  status: ('A' for Active; 'I' for Inactive)
DOCKED: REMARK    1  A    between atoms: C_2  and  C_19 
DOCKED: REMARK    2  A    between atoms: C_2  and  C_11 
DOCKED: REMARK    3  A    between atoms: C_19  and  C_20 
DOCKED: REMARK    4  A    between atoms: C_20  and  C_21 
DOCKED: REMARK    5  A    between atoms: C_21  and  N_22 
DOCKED: USER                              x       y       z     vdW  Elec       q    Type
DOCKED: USER                           _______ _______ _______ _____ _____    ______ ____
DOCKED: ROOT
DOCKED: ATOM      1  O   UNL     1     -37.485  -9.260  15.207 -0.00 -0.00    -0.346 OA 
DOCKED: ATOM      2  C   UNL     1     -37.215  -8.951  13.802 -0.12 +0.00    +0.130 C  
DOCKED: ATOM      3  C   UNL     1     -37.659 -10.184  13.070 -0.24 +0.00    +0.004 A  
DOCKED: ATOM      4  C   UNL     1     -38.235 -11.076  13.965 -0.14 +0.00    +0.006 A  
DOCKED: ATOM      5  C   UNL     1     -38.224 -10.498  15.327 -0.04 +0.00    +0.169 C  
DOCKED: ATOM      6  C   UNL     1     -37.572 -10.488  11.720 -0.10 -0.00    -0.001 A  
DOCKED: ATOM      7  C   UNL     1     -38.736 -12.296  13.544 -0.20 +0.00    +0.008 A  
DOCKED: ATOM      8  C   UNL     1     -38.069 -11.717  11.281 -0.32 +0.00    +0.010 A  
DOCKED: ATOM      9  C   UNL     1     -38.648 -12.615  12.188 -0.29 +0.00    +0.068 A  
DOCKED: ATOM     10  N   UNL     1     -39.565 -14.885  11.339 -2.53 -0.00    -0.191 NA 
DOCKED: ATOM     11  C   UNL     1     -39.154 -13.867  11.720 -0.33 +0.00    +0.101 C  
DOCKED: ENDROOT
DOCKED: BRANCH   2  12
DOCKED: ATOM     12  C   UNL     1     -38.015  -7.712  13.418 -0.14 +0.00    +0.038 C  
DOCKED: BRANCH  12  13
DOCKED: ATOM     13  C   UNL     1     -38.671  -7.072  14.640 -0.05 +0.00    +0.038 C  
DOCKED: BRANCH  13  14
DOCKED: ATOM     14  C   UNL     1     -40.188  -7.249  14.606 -0.03 +0.00    +0.251 C  
DOCKED: BRANCH  14  15
DOCKED: ATOM     15  N   UNL     1     -40.620  -7.668  13.278 -0.15 +0.00    +0.141 N  
DOCKED: ATOM     16  C   UNL     1     -41.100  -9.051  13.304 -0.13 +0.00    +0.285 C  
DOCKED: ATOM     17  C   UNL     1     -41.665  -6.778  12.771 -0.12 +0.00    +0.285 C  
DOCKED: ENDBRANCH  14  15
DOCKED: ENDBRANCH  13  14
DOCKED: ENDBRANCH  12  13
DOCKED: ENDBRANCH   2  12
DOCKED: BRANCH   2  18
DOCKED: ATOM     18  C   UNL     1     -35.748  -8.702  13.685 -0.12 +0.00    +0.006 A  
DOCKED: ATOM     19  C   UNL     1     -34.915  -8.915  14.782 -0.06 +0.00    +0.001 A  
DOCKED: ATOM     20  C   UNL     1     -33.544  -8.682  14.671 -0.05 +0.00    +0.029 A  
DOCKED: ATOM     21  C   UNL     1     -33.008  -8.236  13.463 -0.05 +0.00    +0.140 A  
DOCKED: ATOM     22  C   UNL     1     -33.842  -8.024  12.366 -0.11 +0.00    +0.029 A  
DOCKED: ATOM     23  F   UNL     1     -31.692  -8.014  13.356 -0.00 -0.00    -0.204 F  
DOCKED: ATOM     24  C   UNL     1     -35.214  -8.257  12.476 -0.15 +0.00    +0.001 A  
DOCKED: ENDBRANCH   2  18
DOCKED: TORSDOF 5
DOCKED: TER
DOCKED: ENDMDL
________________________________________________________________________________


    FINAL DOCKED STATE:
    ________________________


Run:   193 / 512
Time taken for this run:   0.002s

DOCKED: MODEL        193
DOCKED: USER    Run = 193
DOCKED: USER
DOCKED: USER    Estimated Free Energy of Binding    =  -4.23 kcal/mol  [=(1)+(2)+(3)-(4)]
DOCKED: USER
DOCKED: USER    (1) Final Intermolecular Energy     =  -5.73 kcal/mol
DOCKED: USER        vdW + Hbond + desolv Energy     =  -5.73 kcal/mol
DOCKED: USER        Electrostatic Energy            =  +0.00 kcal/mol
DOCKED: USER        Moving Ligand-Fixed Receptor    =  -5.73 kcal/mol
DOCKED: USER        Moving Ligand-Moving Receptor   =  +0.00 kcal/mol
DOCKED: USER    (2) Final Total Internal Energy     =  -1.19 kcal/mol
DOCKED: USER    (3) Torsional Free Energy           =  +1.49 kcal/mol
DOCKED: USER    (4) Unbound System's Energy         =  -1.19 kcal/mol
DOCKED: USER
DOCKED: USER
DOCKED: REMARK  5 active torsions:
DOCKED: REMARK  status: ('A' for Active; 'I' for Inactive)
DOCKED: REMARK    1  A    between atoms: C_2  and  C_19 
DOCKED: REMARK    2  A    between atoms: C_2  and  C_11 
DOCKED: REMARK    3  A    between atoms: C_19  and  C_20 
DOCKED: REMARK    4  A    between atoms: C_20  and  C_21 
DOCKED: REMARK    5  A    between atoms: C_21  and  N_22 
DOCKED: USER                              x       y       z     vdW  Elec       q    Type
DOCKED: USER                           _______ _______ _______ _____ _____    ______ ____
DOCKED: ROOT
DOCKED: ATOM      1  O   UNL     1     -32.181  -3.507   5.990 -0.05 -0.00    -0.346 OA 
DOCKED: ATOM      2  C   UNL     1     -33.483  -4.144   6.195 -0.15 +0.00    +0.130 C  
DOCKED: ATOM      3  C   UNL     1     -34.332  -3.589   5.088 -0.22 +0.00    +0.004 A  
DOCKED: ATOM      4  C   UNL     1     -33.557  -2.793   4.258 -0.19 +0.00    +0.006 A  
DOCKED: ATOM      5  C   UNL     1     -32.158  -2.775   4.742 -0.11 +0.00    +0.169 C  
DOCKED: ATOM      6  C   UNL     1     -35.682  -3.783   4.830 -0.22 -0.00    -0.001 A  
DOCKED: ATOM      7  C   UNL     1     -34.099  -2.163   3.151 -0.28 +0.00    +0.008 A  
DOCKED: ATOM      8  C   UNL     1     -36.244  -3.152   3.720 -0.15 +0.00    +0.010 A  
DOCKED: ATOM      9  C   UNL     1     -35.457  -2.346   2.885 -0.34 +0.00    +0.068 A  
DOCKED: ATOM     10  N   UNL     1     -36.532  -1.191   0.829 -2.45 -0.00    -0.191 NA 
DOCKED: ATOM     11  C   UNL     1     -36.050  -1.709   1.751 -0.39 +0.00    +0.101 C  
DOCKED: ENDROOT
DOCKED: BRANCH   2  12
DOCKED: ATOM     12  C   UNL     1     -33.301  -5.654   6.104 -0.11 +0.00    +0.038 C  
DOCKED: BRANCH  12  13
DOCKED: ATOM     13  C   UNL     1     -32.037  -6.108   6.831 -0.04 +0.00    +0.038 C  
DOCKED: BRANCH  13  14
DOCKED: ATOM     14  C   UNL     1     -32.341  -7.247   7.803 -0.03 +0.00    +0.251 C  
DOCKED: BRANCH  14  15
DOCKED: ATOM     15  N   UNL     1     -31.691  -7.005   9.085 -0.02 +0.00    +0.141 N  
DOCKED: ATOM     16  C   UNL     1     -31.131  -5.654   9.134 -0.01 +0.00    +0.285 C  
DOCKED: ATOM     17  C   UNL     1     -32.635  -7.204  10.187 -0.04 +0.00    +0.285 C  
DOCKED: ENDBRANCH  14  15
DOCKED: ENDBRANCH  13  14
DOCKED: ENDBRANCH  12  13
DOCKED: ENDBRANCH   2  12
DOCKED: BRANCH   2  18
DOCKED: ATOM     18  C   UNL     1     -33.957  -3.739   7.551 -0.17 +0.00    +0.006 A  
DOCKED: ATOM     19  C   UNL     1     -35.310  -3.837   7.873 -0.23 +0.00    +0.001 A  
DOCKED: ATOM     20  C   UNL     1     -35.752  -3.458   9.141 -0.19 +0.00    +0.029 A  
DOCKED: ATOM     21  C   UNL     1     -34.842  -2.984  10.084 -0.13 +0.00    +0.140 A  
DOCKED: ATOM     22  C   UNL     1     -33.489  -2.886   9.761 -0.09 +0.00    +0.029 A  
DOCKED: ATOM     23  F   UNL     1     -35.267  -2.622  11.302 -0.02 -0.00    -0.204 F  
DOCKED: ATOM     24  C   UNL     1     -33.046  -3.264   8.493 -0.11 +0.00    +0.001 A  
DOCKED: ENDBRANCH   2  18
DOCKED: TORSDOF 5
DOCKED: TER
DOCKED: ENDMDL
________________________________________________________________________________


    FINAL DOCKED STATE:
    ________________________


Run:   194 / 512
Time taken for this run:   0.002s

DOCKED: MODEL        194
DOCKED: USER    Run = 194
DOCKED: USER
DOCKED: USER    Estimated Free Energy of Binding    =  -4.05 kcal/mol  [=(1)+(2)+(3)-(4)]
DOCKED: USER
DOCKED: USER    (1) Final Intermolecular Energy     =  -5.54 kcal/mol
DOCKED: USER        vdW + Hbond + desolv Energy     =  -5.54 kcal/mol
DOCKED: USER        Electrostatic Energy            =  +0.00 kcal/mol
DOCKED: USER        Moving Ligand-Fixed Receptor    =  -5.54 kcal/mol
DOCKED: USER        Moving Ligand-Moving Receptor   =  +0.00 kcal/mol
DOCKED: USER    (2) Final Total Internal Energy     =  -1.22 kcal/mol
DOCKED: USER    (3) Torsional Free Energy           =  +1.49 kcal/mol
DOCKED: USER    (4) Unbound System's Energy         =  -1.22 kcal/mol
DOCKED: USER
DOCKED: USER
DOCKED: REMARK  5 active torsions:
DOCKED: REMARK  status: ('A' for Active; 'I' for Inactive)
DOCKED: REMARK    1  A    between atoms: C_2  and  C_19 
DOCKED: REMARK    2  A    between atoms: C_2  and  C_11 
DOCKED: REMARK    3  A    between atoms: C_19  and  C_20 
DOCKED: REMARK    4  A    between atoms: C_20  and  C_21 
DOCKED: REMARK    5  A    between atoms: C_21  and  N_22 
DOCKED: USER                              x       y       z     vdW  Elec       q    Type
DOCKED: USER                           _______ _______ _______ _____ _____    ______ ____
DOCKED: ROOT
DOCKED: ATOM      1  O   UNL     1     -37.781  -8.260  13.222 -0.06 -0.00    -0.346 OA 
DOCKED: ATOM      2  C   UNL     1     -36.643  -9.127  13.535 -0.15 +0.00    +0.130 C  
DOCKED: ATOM      3  C   UNL     1     -37.100 -10.489  13.101 -0.24 +0.00    +0.004 A  
DOCKED: ATOM      4  C   UNL     1     -38.343 -10.394  12.492 -0.27 +0.00    +0.006 A  
DOCKED: ATOM      5  C   UNL     1     -38.784  -8.981  12.469 -0.17 +0.00    +0.169 C  
DOCKED: ATOM      6  C   UNL     1     -36.461 -11.714  13.225 -0.22 -0.00    -0.001 A  
DOCKED: ATOM      7  C   UNL     1     -38.989 -11.512  11.992 -0.29 +0.00    +0.008 A  
DOCKED: ATOM      8  C   UNL     1     -37.101 -12.852  12.730 -0.34 +0.00    +0.010 A  
DOCKED: ATOM      9  C   UNL     1     -38.358 -12.751  12.116 -0.31 +0.00    +0.068 A  
DOCKED: ATOM     10  N   UNL     1     -39.517 -14.881  11.204 -2.48 -0.00    -0.191 NA 
DOCKED: ATOM     11  C   UNL     1     -38.998 -13.925  11.614 -0.33 +0.00    +0.101 C  
DOCKED: ENDROOT
DOCKED: BRANCH   2  12
DOCKED: ATOM     12  C   UNL     1     -35.430  -8.631  12.757 -0.17 +0.00    +0.038 C  
DOCKED: BRANCH  12  13
DOCKED: ATOM     13  C   UNL     1     -35.306  -7.110  12.829 -0.10 +0.00    +0.038 C  
DOCKED: BRANCH  13  14
DOCKED: ATOM     14  C   UNL     1     -35.807  -6.457  11.542 -0.07 +0.00    +0.251 C  
DOCKED: BRANCH  14  15
DOCKED: ATOM     15  N   UNL     1     -36.768  -5.404  11.849 -0.07 +0.00    +0.141 N  
DOCKED: ATOM     16  C   UNL     1     -36.173  -4.407  12.740 -0.01 +0.00    +0.285 C  
DOCKED: ATOM     17  C   UNL     1     -37.244  -4.767  10.620 -0.08 +0.00    +0.285 C  
DOCKED: ENDBRANCH  14  15
DOCKED: ENDBRANCH  13  14
DOCKED: ENDBRANCH  12  13
DOCKED: ENDBRANCH   2  12
DOCKED: BRANCH   2  18
DOCKED: ATOM     18  C   UNL     1     -36.415  -9.032  15.007 -0.05 +0.00    +0.006 A  
DOCKED: ATOM     19  C   UNL     1     -35.511  -9.892  15.629 -0.06 +0.00    +0.001 A  
DOCKED: ATOM     20  C   UNL     1     -35.298  -9.802  17.005 -0.02 +0.00    +0.029 A  
DOCKED: ATOM     21  C   UNL     1     -35.989  -8.853  17.757 -0.00 +0.00    +0.140 A  
DOCKED: ATOM     22  C   UNL     1     -36.893  -7.993  17.134 -0.00 +0.00    +0.029 A  
DOCKED: ATOM     23  F   UNL     1     -35.783  -8.766  19.077 +0.00 -0.00    -0.204 F  
DOCKED: ATOM     24  C   UNL     1     -37.107  -8.082  15.758 -0.02 +0.00    +0.001 A  
DOCKED: ENDBRANCH   2  18
DOCKED: TORSDOF 5
DOCKED: TER
DOCKED: ENDMDL
________________________________________________________________________________


    FINAL DOCKED STATE:
    ________________________


Run:   195 / 512
Time taken for this run:   0.002s

DOCKED: MODEL        195
DOCKED: USER    Run = 195
DOCKED: USER
DOCKED: USER    Estimated Free Energy of Binding    =  -3.60 kcal/mol  [=(1)+(2)+(3)-(4)]
DOCKED: USER
DOCKED: USER    (1) Final Intermolecular Energy     =  -5.09 kcal/mol
DOCKED: USER        vdW + Hbond + desolv Energy     =  -5.09 kcal/mol
DOCKED: USER        Electrostatic Energy            =  +0.00 kcal/mol
DOCKED: USER        Moving Ligand-Fixed Receptor    =  -5.09 kcal/mol
DOCKED: USER        Moving Ligand-Moving Receptor   =  +0.00 kcal/mol
DOCKED: USER    (2) Final Total Internal Energy     =  -1.40 kcal/mol
DOCKED: USER    (3) Torsional Free Energy           =  +1.49 kcal/mol
DOCKED: USER    (4) Unbound System's Energy         =  -1.40 kcal/mol
DOCKED: USER
DOCKED: USER
DOCKED: REMARK  5 active torsions:
DOCKED: REMARK  status: ('A' for Active; 'I' for Inactive)
DOCKED: REMARK    1  A    between atoms: C_2  and  C_19 
DOCKED: REMARK    2  A    between atoms: C_2  and  C_11 
DOCKED: REMARK    3  A    between atoms: C_19  and  C_20 
DOCKED: REMARK    4  A    between atoms: C_20  and  C_21 
DOCKED: REMARK    5  A    between atoms: C_21  and  N_22 
DOCKED: USER                              x       y       z     vdW  Elec       q    Type
DOCKED: USER                           _______ _______ _______ _____ _____    ______ ____
DOCKED: ROOT
DOCKED: ATOM      1  O   UNL     1     -35.516 -10.850  15.560 -0.04 -0.00    -0.346 OA 
DOCKED: ATOM      2  C   UNL     1     -36.485  -9.980  14.892 -0.08 +0.00    +0.130 C  
DOCKED: ATOM      3  C   UNL     1     -37.196 -10.897  13.940 -0.18 +0.00    +0.004 A  
DOCKED: ATOM      4  C   UNL     1     -36.750 -12.198  14.124 -0.24 +0.00    +0.006 A  
DOCKED: ATOM      5  C   UNL     1     -35.738 -12.235  15.204 -0.11 +0.00    +0.169 C  
DOCKED: ATOM      6  C   UNL     1     -38.168 -10.605  12.994 -0.25 -0.00    -0.001 A  
DOCKED: ATOM      7  C   UNL     1     -37.253 -13.246  13.372 -0.35 +0.00    +0.008 A  
DOCKED: ATOM      8  C   UNL     1     -38.682 -11.650  12.224 -0.31 +0.00    +0.010 A  
DOCKED: ATOM      9  C   UNL     1     -38.227 -12.964  12.412 -0.30 +0.00    +0.068 A  
DOCKED: ATOM     10  N   UNL     1     -39.205 -14.881  10.970 -2.38 -0.00    -0.191 NA 
DOCKED: ATOM     11  C   UNL     1     -38.766 -14.021  11.616 -0.29 +0.00    +0.101 C  
DOCKED: ENDROOT
DOCKED: BRANCH   2  12
DOCKED: ATOM     12  C   UNL     1     -37.411  -9.389  15.949 -0.03 +0.00    +0.038 C  
DOCKED: BRANCH  12  13
DOCKED: ATOM     13  C   UNL     1     -38.439 -10.414  16.425 -0.04 +0.00    +0.038 C  
DOCKED: BRANCH  13  14
DOCKED: ATOM     14  C   UNL     1     -39.814 -10.133  15.822 -0.01 +0.00    +0.251 C  
DOCKED: BRANCH  14  15
DOCKED: ATOM     15  N   UNL     1     -40.434 -11.374  15.372 -0.04 +0.00    +0.141 N  
DOCKED: ATOM     16  C   UNL     1     -40.254 -12.431  16.369 -0.03 +0.00    +0.285 C  
DOCKED: ATOM     17  C   UNL     1     -41.857 -11.171  15.099 -0.02 +0.00    +0.285 C  
DOCKED: ENDBRANCH  14  15
DOCKED: ENDBRANCH  13  14
DOCKED: ENDBRANCH  12  13
DOCKED: ENDBRANCH   2  12
DOCKED: BRANCH   2  18
DOCKED: ATOM     18  C   UNL     1     -35.708  -8.911  14.200 -0.10 +0.00    +0.006 A  
DOCKED: ATOM     19  C   UNL     1     -34.921  -9.228  13.093 -0.10 +0.00    +0.001 A  
DOCKED: ATOM     20  C   UNL     1     -34.194  -8.228  12.447 -0.12 +0.00    +0.029 A  
DOCKED: ATOM     21  C   UNL     1     -34.255  -6.913  12.906 -0.04 +0.00    +0.140 A  
DOCKED: ATOM     22  C   UNL     1     -35.043  -6.597  14.013 -0.03 +0.00    +0.029 A  
DOCKED: ATOM     23  F   UNL     1     -33.559  -5.953  12.284 -0.00 -0.00    -0.204 F  
DOCKED: ATOM     24  C   UNL     1     -35.770  -7.597  14.661 -0.04 +0.00    +0.001 A  
DOCKED: ENDBRANCH   2  18
DOCKED: TORSDOF 5
DOCKED: TER
DOCKED: ENDMDL
________________________________________________________________________________


    FINAL DOCKED STATE:
    ________________________


Run:   196 / 512
Time taken for this run:   0.002s

DOCKED: MODEL        196
DOCKED: USER    Run = 196
DOCKED: USER
DOCKED: USER    Estimated Free Energy of Binding    =  -4.39 kcal/mol  [=(1)+(2)+(3)-(4)]
DOCKED: USER
DOCKED: USER    (1) Final Intermolecular Energy     =  -5.88 kcal/mol
DOCKED: USER        vdW + Hbond + desolv Energy     =  -5.88 kcal/mol
DOCKED: USER        Electrostatic Energy            =  +0.00 kcal/mol
DOCKED: USER        Moving Ligand-Fixed Receptor    =  -5.88 kcal/mol
DOCKED: USER        Moving Ligand-Moving Receptor   =  +0.00 kcal/mol
DOCKED: USER    (2) Final Total Internal Energy     =  -1.29 kcal/mol
DOCKED: USER    (3) Torsional Free Energy           =  +1.49 kcal/mol
DOCKED: USER    (4) Unbound System's Energy         =  -1.29 kcal/mol
DOCKED: USER
DOCKED: USER
DOCKED: REMARK  5 active torsions:
DOCKED: REMARK  status: ('A' for Active; 'I' for Inactive)
DOCKED: REMARK    1  A    between atoms: C_2  and  C_19 
DOCKED: REMARK    2  A    between atoms: C_2  and  C_11 
DOCKED: REMARK    3  A    between atoms: C_19  and  C_20 
DOCKED: REMARK    4  A    between atoms: C_20  and  C_21 
DOCKED: REMARK    5  A    between atoms: C_21  and  N_22 
DOCKED: USER                              x       y       z     vdW  Elec       q    Type
DOCKED: USER                           _______ _______ _______ _____ _____    ______ ____
DOCKED: ROOT
DOCKED: ATOM      1  O   UNL     1     -37.196  -8.374  12.758 -0.09 -0.00    -0.346 OA 
DOCKED: ATOM      2  C   UNL     1     -38.470  -8.588  13.446 -0.15 +0.00    +0.130 C  
DOCKED: ATOM      3  C   UNL     1     -38.892  -9.959  13.004 -0.22 +0.00    +0.004 A  
DOCKED: ATOM      4  C   UNL     1     -37.896 -10.525  12.221 -0.28 +0.00    +0.006 A  
DOCKED: ATOM      5  C   UNL     1     -36.757  -9.587  12.103 -0.08 +0.00    +0.169 C  
DOCKED: ATOM      6  C   UNL     1     -40.059 -10.655  13.282 -0.19 -0.00    -0.001 A  
DOCKED: ATOM      7  C   UNL     1     -38.032 -11.795  11.689 -0.36 +0.00    +0.008 A  
DOCKED: ATOM      8  C   UNL     1     -40.214 -11.936  12.749 -0.22 +0.00    +0.010 A  
DOCKED: ATOM      9  C   UNL     1     -39.204 -12.503  11.956 -0.27 +0.00    +0.068 A  
DOCKED: ATOM     10  N   UNL     1     -39.521 -14.884  10.986 -2.37 -0.00    -0.191 NA 
DOCKED: ATOM     11  C   UNL     1     -39.379 -13.816  11.421 -0.39 +0.00    +0.101 C  
DOCKED: ENDROOT
DOCKED: BRANCH   2  12
DOCKED: ATOM     12  C   UNL     1     -38.228  -8.497  14.948 -0.05 +0.00    +0.038 C  
DOCKED: BRANCH  12  13
DOCKED: ATOM     13  C   UNL     1     -37.996  -9.877  15.560 -0.05 +0.00    +0.038 C  
DOCKED: BRANCH  13  14
DOCKED: ATOM     14  C   UNL     1     -36.513 -10.240  15.550 -0.04 +0.00    +0.251 C  
DOCKED: BRANCH  14  15
DOCKED: ATOM     15  N   UNL     1     -35.699  -9.045  15.360 -0.03 +0.00    +0.141 N  
DOCKED: ATOM     16  C   UNL     1     -35.459  -8.375  16.639 -0.00 +0.00    +0.285 C  
DOCKED: ATOM     17  C   UNL     1     -34.428  -9.383  14.718 -0.05 +0.00    +0.285 C  
DOCKED: ENDBRANCH  14  15
DOCKED: ENDBRANCH  13  14
DOCKED: ENDBRANCH  12  13
DOCKED: ENDBRANCH   2  12
DOCKED: BRANCH   2  18
DOCKED: ATOM     18  C   UNL     1     -39.400  -7.516  12.985 -0.20 +0.00    +0.006 A  
DOCKED: ATOM     19  C   UNL     1     -38.935  -6.504  12.146 -0.18 +0.00    +0.001 A  
DOCKED: ATOM     20  C   UNL     1     -39.806  -5.502  11.716 -0.17 +0.00    +0.029 A  
DOCKED: ATOM     21  C   UNL     1     -41.139  -5.514  12.123 -0.12 +0.00    +0.140 A  
DOCKED: ATOM     22  C   UNL     1     -41.603  -6.527  12.962 -0.16 +0.00    +0.029 A  
DOCKED: ATOM     23  F   UNL     1     -41.975  -4.554  11.708 -0.01 -0.00    -0.204 F  
DOCKED: ATOM     24  C   UNL     1     -40.733  -7.530  13.394 -0.18 +0.00    +0.001 A  
DOCKED: ENDBRANCH   2  18
DOCKED: TORSDOF 5
DOCKED: TER
DOCKED: ENDMDL
________________________________________________________________________________


    FINAL DOCKED STATE:
    ________________________


Run:   197 / 512
Time taken for this run:   0.002s

DOCKED: MODEL        197
DOCKED: USER    Run = 197
DOCKED: USER
DOCKED: USER    Estimated Free Energy of Binding    =  -5.82 kcal/mol  [=(1)+(2)+(3)-(4)]
DOCKED: USER
DOCKED: USER    (1) Final Intermolecular Energy     =  -7.31 kcal/mol
DOCKED: USER        vdW + Hbond + desolv Energy     =  -7.31 kcal/mol
DOCKED: USER        Electrostatic Energy            =  +0.00 kcal/mol
DOCKED: USER        Moving Ligand-Fixed Receptor    =  -7.31 kcal/mol
DOCKED: USER        Moving Ligand-Moving Receptor   =  +0.00 kcal/mol
DOCKED: USER    (2) Final Total Internal Energy     =  -1.50 kcal/mol
DOCKED: USER    (3) Torsional Free Energy           =  +1.49 kcal/mol
DOCKED: USER    (4) Unbound System's Energy         =  -1.50 kcal/mol
DOCKED: USER
DOCKED: USER
DOCKED: REMARK  5 active torsions:
DOCKED: REMARK  status: ('A' for Active; 'I' for Inactive)
DOCKED: REMARK    1  A    between atoms: C_2  and  C_19 
DOCKED: REMARK    2  A    between atoms: C_2  and  C_11 
DOCKED: REMARK    3  A    between atoms: C_19  and  C_20 
DOCKED: REMARK    4  A    between atoms: C_20  and  C_21 
DOCKED: REMARK    5  A    between atoms: C_21  and  N_22 
DOCKED: USER                              x       y       z     vdW  Elec       q    Type
DOCKED: USER                           _______ _______ _______ _____ _____    ______ ____
DOCKED: ROOT
DOCKED: ATOM      1  O   UNL     1     -37.292 -10.728  13.865 -0.05 -0.00    -0.346 OA 
DOCKED: ATOM      2  C   UNL     1     -36.968 -12.155  13.851 -0.23 +0.00    +0.130 C  
DOCKED: ATOM      3  C   UNL     1     -37.505 -12.634  12.534 -0.35 +0.00    +0.004 A  
DOCKED: ATOM      4  C   UNL     1     -37.994 -11.555  11.809 -0.34 +0.00    +0.006 A  
DOCKED: ATOM      5  C   UNL     1     -37.805 -10.306  12.580 -0.24 +0.00    +0.169 C  
DOCKED: ATOM      6  C   UNL     1     -37.548 -13.919  12.013 -0.37 -0.00    -0.001 A  
DOCKED: ATOM      7  C   UNL     1     -38.542 -11.723  10.549 -0.07 +0.00    +0.008 A  
DOCKED: ATOM      8  C   UNL     1     -38.102 -14.104  10.745 -0.45 +0.00    +0.010 A  
DOCKED: ATOM      9  C   UNL     1     -38.596 -13.012  10.017 -0.42 +0.00    +0.068 A  
DOCKED: ATOM     10  N   UNL     1     -39.614 -13.391   7.665 -2.90 -0.00    -0.191 NA 
DOCKED: ATOM     11  C   UNL     1     -39.158 -13.221   8.720 -0.44 +0.00    +0.101 C  
DOCKED: ENDROOT
DOCKED: BRANCH   2  12
DOCKED: ATOM     12  C   UNL     1     -35.456 -12.308  13.966 -0.21 +0.00    +0.038 C  
DOCKED: BRANCH  12  13
DOCKED: ATOM     13  C   UNL     1     -34.773 -10.956  14.161 -0.14 +0.00    +0.038 C  
DOCKED: BRANCH  13  14
DOCKED: ATOM     14  C   UNL     1     -34.682 -10.594  15.642 -0.06 +0.00    +0.251 C  
DOCKED: BRANCH  14  15
DOCKED: ATOM     15  N   UNL     1     -35.862  -9.845  16.055 -0.03 +0.00    +0.141 N  
DOCKED: ATOM     16  C   UNL     1     -35.993  -9.849  17.512 -0.01 +0.00    +0.285 C  
DOCKED: ATOM     17  C   UNL     1     -35.802  -8.471  15.554 -0.01 +0.00    +0.285 C  
DOCKED: ENDBRANCH  14  15
DOCKED: ENDBRANCH  13  14
DOCKED: ENDBRANCH  12  13
DOCKED: ENDBRANCH   2  12
DOCKED: BRANCH   2  18
DOCKED: ATOM     18  C   UNL     1     -37.662 -12.771  15.020 -0.19 +0.00    +0.006 A  
DOCKED: ATOM     19  C   UNL     1     -39.013 -13.102  14.933 -0.18 +0.00    +0.001 A  
DOCKED: ATOM     20  C   UNL     1     -39.661 -13.677  16.027 -0.16 +0.00    +0.029 A  
DOCKED: ATOM     21  C   UNL     1     -38.956 -13.922  17.205 -0.07 +0.00    +0.140 A  
DOCKED: ATOM     22  C   UNL     1     -37.604 -13.591  17.291 -0.19 +0.00    +0.029 A  
DOCKED: ATOM     23  F   UNL     1     -39.578 -14.476  18.254 -0.03 -0.00    -0.204 F  
DOCKED: ATOM     24  C   UNL     1     -36.956 -13.015  16.198 -0.17 +0.00    +0.001 A  
DOCKED: ENDBRANCH   2  18
DOCKED: TORSDOF 5
DOCKED: TER
DOCKED: ENDMDL
________________________________________________________________________________


    FINAL DOCKED STATE:
    ________________________


Run:   198 / 512
Time taken for this run:   0.002s

DOCKED: MODEL        198
DOCKED: USER    Run = 198
DOCKED: USER
DOCKED: USER    Estimated Free Energy of Binding    =  -4.27 kcal/mol  [=(1)+(2)+(3)-(4)]
DOCKED: USER
DOCKED: USER    (1) Final Intermolecular Energy     =  -5.76 kcal/mol
DOCKED: USER        vdW + Hbond + desolv Energy     =  -5.76 kcal/mol
DOCKED: USER        Electrostatic Energy            =  +0.00 kcal/mol
DOCKED: USER        Moving Ligand-Fixed Receptor    =  -5.76 kcal/mol
DOCKED: USER        Moving Ligand-Moving Receptor   =  +0.00 kcal/mol
DOCKED: USER    (2) Final Total Internal Energy     =  -1.51 kcal/mol
DOCKED: USER    (3) Torsional Free Energy           =  +1.49 kcal/mol
DOCKED: USER    (4) Unbound System's Energy         =  -1.51 kcal/mol
DOCKED: USER
DOCKED: USER
DOCKED: REMARK  5 active torsions:
DOCKED: REMARK  status: ('A' for Active; 'I' for Inactive)
DOCKED: REMARK    1  A    between atoms: C_2  and  C_19 
DOCKED: REMARK    2  A    between atoms: C_2  and  C_11 
DOCKED: REMARK    3  A    between atoms: C_19  and  C_20 
DOCKED: REMARK    4  A    between atoms: C_20  and  C_21 
DOCKED: REMARK    5  A    between atoms: C_21  and  N_22 
DOCKED: USER                              x       y       z     vdW  Elec       q    Type
DOCKED: USER                           _______ _______ _______ _____ _____    ______ ____
DOCKED: ROOT
DOCKED: ATOM      1  O   UNL     1     -33.099  -4.579   5.635 -0.03 -0.00    -0.346 OA 
DOCKED: ATOM      2  C   UNL     1     -32.279  -4.654   4.425 -0.07 +0.00    +0.130 C  
DOCKED: ATOM      3  C   UNL     1     -33.080  -3.902   3.401 -0.16 +0.00    +0.004 A  
DOCKED: ATOM      4  C   UNL     1     -34.204  -3.352   4.000 -0.25 +0.00    +0.006 A  
DOCKED: ATOM      5  C   UNL     1     -34.219  -3.684   5.442 -0.17 +0.00    +0.169 C  
DOCKED: ATOM      6  C   UNL     1     -32.828  -3.712   2.051 -0.15 -0.00    -0.001 A  
DOCKED: ATOM      7  C   UNL     1     -35.112  -2.600   3.274 -0.35 +0.00    +0.008 A  
DOCKED: ATOM      8  C   UNL     1     -33.736  -2.960   1.304 -0.22 +0.00    +0.010 A  
DOCKED: ATOM      9  C   UNL     1     -34.872  -2.406   1.913 -0.23 +0.00    +0.068 A  
DOCKED: ATOM     10  N   UNL     1     -36.536  -1.011   0.499 -2.55 -0.00    -0.191 NA 
DOCKED: ATOM     11  C   UNL     1     -35.790  -1.638   1.133 -0.35 +0.00    +0.101 C  
DOCKED: ENDROOT
DOCKED: BRANCH   2  12
DOCKED: ATOM     12  C   UNL     1     -30.930  -4.007   4.715 -0.03 +0.00    +0.038 C  
DOCKED: BRANCH  12  13
DOCKED: ATOM     13  C   UNL     1     -31.098  -2.596   5.275 -0.10 +0.00    +0.038 C  
DOCKED: BRANCH  13  14
DOCKED: ATOM     14  C   UNL     1     -30.596  -1.547   4.284 -0.04 +0.00    +0.251 C  
DOCKED: BRANCH  14  15
DOCKED: ATOM     15  N   UNL     1     -31.703  -1.035   3.484 -0.08 +0.00    +0.141 N  
DOCKED: ATOM     16  C   UNL     1     -32.484  -0.062   4.248 -0.14 +0.00    +0.285 C  
DOCKED: ATOM     17  C   UNL     1     -31.207  -0.429   2.247 -0.04 +0.00    +0.285 C  
DOCKED: ENDBRANCH  14  15
DOCKED: ENDBRANCH  13  14
DOCKED: ENDBRANCH  12  13
DOCKED: ENDBRANCH   2  12
DOCKED: BRANCH   2  18
DOCKED: ATOM     18  C   UNL     1     -32.122  -6.100   4.094 -0.08 +0.00    +0.006 A  
DOCKED: ATOM     19  C   UNL     1     -33.247  -6.919   3.997 -0.21 +0.00    +0.001 A  
DOCKED: ATOM     20  C   UNL     1     -33.098  -8.271   3.687 -0.18 +0.00    +0.029 A  
DOCKED: ATOM     21  C   UNL     1     -31.827  -8.803   3.474 -0.16 +0.00    +0.140 A  
DOCKED: ATOM     22  C   UNL     1     -30.703  -7.983   3.571 -0.04 +0.00    +0.029 A  
DOCKED: ATOM     23  F   UNL     1     -31.686 -10.101   3.175 -0.09 -0.00    -0.204 F  
DOCKED: ATOM     24  C   UNL     1     -30.850  -6.630   3.881 -0.02 +0.00    +0.001 A  
DOCKED: ENDBRANCH   2  18
DOCKED: TORSDOF 5
DOCKED: TER
DOCKED: ENDMDL
________________________________________________________________________________


    FINAL DOCKED STATE:
    ________________________


Run:   199 / 512
Time taken for this run:   0.002s

DOCKED: MODEL        199
DOCKED: USER    Run = 199
DOCKED: USER
DOCKED: USER    Estimated Free Energy of Binding    =  -4.10 kcal/mol  [=(1)+(2)+(3)-(4)]
DOCKED: USER
DOCKED: USER    (1) Final Intermolecular Energy     =  -5.60 kcal/mol
DOCKED: USER        vdW + Hbond + desolv Energy     =  -5.60 kcal/mol
DOCKED: USER        Electrostatic Energy            =  +0.00 kcal/mol
DOCKED: USER        Moving Ligand-Fixed Receptor    =  -5.60 kcal/mol
DOCKED: USER        Moving Ligand-Moving Receptor   =  +0.00 kcal/mol
DOCKED: USER    (2) Final Total Internal Energy     =  -1.26 kcal/mol
DOCKED: USER    (3) Torsional Free Energy           =  +1.49 kcal/mol
DOCKED: USER    (4) Unbound System's Energy         =  -1.26 kcal/mol
DOCKED: USER
DOCKED: USER
DOCKED: REMARK  5 active torsions:
DOCKED: REMARK  status: ('A' for Active; 'I' for Inactive)
DOCKED: REMARK    1  A    between atoms: C_2  and  C_19 
DOCKED: REMARK    2  A    between atoms: C_2  and  C_11 
DOCKED: REMARK    3  A    between atoms: C_19  and  C_20 
DOCKED: REMARK    4  A    between atoms: C_20  and  C_21 
DOCKED: REMARK    5  A    between atoms: C_21  and  N_22 
DOCKED: USER                              x       y       z     vdW  Elec       q    Type
DOCKED: USER                           _______ _______ _______ _____ _____    ______ ____
DOCKED: ROOT
DOCKED: ATOM      1  O   UNL     1     -39.129  -8.032  13.392 -0.07 -0.00    -0.346 OA 
DOCKED: ATOM      2  C   UNL     1     -37.753  -8.530  13.394 -0.14 +0.00    +0.130 C  
DOCKED: ATOM      3  C   UNL     1     -37.889  -9.965  12.977 -0.24 +0.00    +0.004 A  
DOCKED: ATOM      4  C   UNL     1     -39.213 -10.235  12.657 -0.23 +0.00    +0.006 A  
DOCKED: ATOM      5  C   UNL     1     -40.029  -9.012  12.825 -0.20 +0.00    +0.169 C  
DOCKED: ATOM      6  C   UNL     1     -36.918 -10.951  12.877 -0.25 -0.00    -0.001 A  
DOCKED: ATOM      7  C   UNL     1     -39.610 -11.492  12.234 -0.24 +0.00    +0.008 A  
DOCKED: ATOM      8  C   UNL     1     -37.304 -12.225  12.456 -0.32 +0.00    +0.010 A  
DOCKED: ATOM      9  C   UNL     1     -38.643 -12.493  12.135 -0.29 +0.00    +0.068 A  
DOCKED: ATOM     10  N   UNL     1     -39.324 -14.867  11.352 -2.58 -0.00    -0.191 NA 
DOCKED: ATOM     11  C   UNL     1     -39.019 -13.803  11.704 -0.36 +0.00    +0.101 C  
DOCKED: ENDROOT
DOCKED: BRANCH   2  12
DOCKED: ATOM     12  C   UNL     1     -36.938  -7.700  12.408 -0.15 +0.00    +0.038 C  
DOCKED: BRANCH  12  13
DOCKED: ATOM     13  C   UNL     1     -37.252  -6.211  12.540 -0.12 +0.00    +0.038 C  
DOCKED: BRANCH  13  14
DOCKED: ATOM     14  C   UNL     1     -38.140  -5.733  11.394 -0.10 +0.00    +0.251 C  
DOCKED: BRANCH  14  15
DOCKED: ATOM     15  N   UNL     1     -38.803  -4.485  11.752 -0.08 +0.00    +0.141 N  
DOCKED: ATOM     16  C   UNL     1     -40.214  -4.519  11.362 -0.08 +0.00    +0.285 C  
DOCKED: ATOM     17  C   UNL     1     -38.680  -4.230  13.188 -0.02 +0.00    +0.285 C  
DOCKED: ENDBRANCH  14  15
DOCKED: ENDBRANCH  13  14
DOCKED: ENDBRANCH  12  13
DOCKED: ENDBRANCH   2  12
DOCKED: BRANCH   2  18
DOCKED: ATOM     18  C   UNL     1     -37.235  -8.375  14.785 -0.05 +0.00    +0.006 A  
DOCKED: ATOM     19  C   UNL     1     -38.125  -8.202  15.844 -0.02 +0.00    +0.001 A  
DOCKED: ATOM     20  C   UNL     1     -37.639  -8.057  17.144 -0.00 +0.00    +0.029 A  
DOCKED: ATOM     21  C   UNL     1     -36.266  -8.085  17.383 -0.00 +0.00    +0.140 A  
DOCKED: ATOM     22  C   UNL     1     -35.377  -8.259  16.323 -0.01 +0.00    +0.029 A  
DOCKED: ATOM     23  F   UNL     1     -35.800  -7.948  18.631 +0.00 -0.00    -0.204 F  
DOCKED: ATOM     24  C   UNL     1     -35.861  -8.404  15.022 -0.04 +0.00    +0.001 A  
DOCKED: ENDBRANCH   2  18
DOCKED: TORSDOF 5
DOCKED: TER
DOCKED: ENDMDL
________________________________________________________________________________


    FINAL DOCKED STATE:
    ________________________


Run:   200 / 512
Time taken for this run:   0.002s

DOCKED: MODEL        200
DOCKED: USER    Run = 200
DOCKED: USER
DOCKED: USER    Estimated Free Energy of Binding    =  -4.18 kcal/mol  [=(1)+(2)+(3)-(4)]
DOCKED: USER
DOCKED: USER    (1) Final Intermolecular Energy     =  -5.67 kcal/mol
DOCKED: USER        vdW + Hbond + desolv Energy     =  -5.67 kcal/mol
DOCKED: USER        Electrostatic Energy            =  +0.00 kcal/mol
DOCKED: USER        Moving Ligand-Fixed Receptor    =  -5.67 kcal/mol
DOCKED: USER        Moving Ligand-Moving Receptor   =  +0.00 kcal/mol
DOCKED: USER    (2) Final Total Internal Energy     =  -1.14 kcal/mol
DOCKED: USER    (3) Torsional Free Energy           =  +1.49 kcal/mol
DOCKED: USER    (4) Unbound System's Energy         =  -1.14 kcal/mol
DOCKED: USER
DOCKED: USER
DOCKED: REMARK  5 active torsions:
DOCKED: REMARK  status: ('A' for Active; 'I' for Inactive)
DOCKED: REMARK    1  A    between atoms: C_2  and  C_19 
DOCKED: REMARK    2  A    between atoms: C_2  and  C_11 
DOCKED: REMARK    3  A    between atoms: C_19  and  C_20 
DOCKED: REMARK    4  A    between atoms: C_20  and  C_21 
DOCKED: REMARK    5  A    between atoms: C_21  and  N_22 
DOCKED: USER                              x       y       z     vdW  Elec       q    Type
DOCKED: USER                           _______ _______ _______ _____ _____    ______ ____
DOCKED: ROOT
DOCKED: ATOM      1  O   UNL     1     -39.082 -10.550  14.627 -0.01 -0.00    -0.346 OA 
DOCKED: ATOM      2  C   UNL     1     -37.910 -11.415  14.487 -0.11 +0.00    +0.130 C  
DOCKED: ATOM      3  C   UNL     1     -38.096 -12.057  13.143 -0.26 +0.00    +0.004 A  
DOCKED: ATOM      4  C   UNL     1     -39.216 -11.525  12.522 -0.26 +0.00    +0.006 A  
DOCKED: ATOM      5  C   UNL     1     -39.833 -10.499  13.392 -0.15 +0.00    +0.169 C  
DOCKED: ATOM      6  C   UNL     1     -37.328 -13.028  12.516 -0.37 -0.00    -0.001 A  
DOCKED: ATOM      7  C   UNL     1     -39.608 -11.943  11.262 -0.09 +0.00    +0.008 A  
DOCKED: ATOM      8  C   UNL     1     -37.713 -13.463  11.247 -0.32 +0.00    +0.010 A  
DOCKED: ATOM      9  C   UNL     1     -38.847 -12.923  10.623 -0.40 +0.00    +0.068 A  
DOCKED: ATOM     10  N   UNL     1     -39.531 -13.750   8.265 -2.08 -0.00    -0.191 NA 
DOCKED: ATOM     11  C   UNL     1     -39.225 -13.379   9.323 -0.50 +0.00    +0.101 C  
DOCKED: ENDROOT
DOCKED: BRANCH   2  12
DOCKED: ATOM     12  C   UNL     1     -36.659 -10.548  14.563 -0.14 +0.00    +0.038 C  
DOCKED: BRANCH  12  13
DOCKED: ATOM     13  C   UNL     1     -36.990  -9.132  15.031 -0.06 +0.00    +0.038 C  
DOCKED: BRANCH  13  14
DOCKED: ATOM     14  C   UNL     1     -36.988  -9.043  16.556 -0.01 +0.00    +0.251 C  
DOCKED: BRANCH  14  15
DOCKED: ATOM     15  N   UNL     1     -35.626  -8.895  17.054 -0.01 +0.00    +0.141 N  
DOCKED: ATOM     16  C   UNL     1     -35.590  -7.979  18.195 -0.00 +0.00    +0.285 C  
DOCKED: ATOM     17  C   UNL     1     -35.070 -10.196  17.430 -0.01 +0.00    +0.285 C  
DOCKED: ENDBRANCH  14  15
DOCKED: ENDBRANCH  13  14
DOCKED: ENDBRANCH  12  13
DOCKED: ENDBRANCH   2  12
DOCKED: BRANCH   2  18
DOCKED: ATOM     18  C   UNL     1     -37.954 -12.395  15.612 -0.13 +0.00    +0.006 A  
DOCKED: ATOM     19  C   UNL     1     -37.247 -13.593  15.520 -0.20 +0.00    +0.001 A  
DOCKED: ATOM     20  C   UNL     1     -37.289 -14.509  16.572 -0.20 +0.00    +0.029 A  
DOCKED: ATOM     21  C   UNL     1     -38.038 -14.226  17.713 -0.14 +0.00    +0.140 A  
DOCKED: ATOM     22  C   UNL     1     -38.745 -13.027  17.804 -0.10 +0.00    +0.029 A  
DOCKED: ATOM     23  F   UNL     1     -38.077 -15.104  18.723 -0.05 -0.00    -0.204 F  
DOCKED: ATOM     24  C   UNL     1     -38.704 -12.111  16.752 -0.08 +0.00    +0.001 A  
DOCKED: ENDBRANCH   2  18
DOCKED: TORSDOF 5
DOCKED: TER
DOCKED: ENDMDL
________________________________________________________________________________


    FINAL DOCKED STATE:
    ________________________


Run:   201 / 512
Time taken for this run:   0.002s

DOCKED: MODEL        201
DOCKED: USER    Run = 201
DOCKED: USER
DOCKED: USER    Estimated Free Energy of Binding    =  -5.34 kcal/mol  [=(1)+(2)+(3)-(4)]
DOCKED: USER
DOCKED: USER    (1) Final Intermolecular Energy     =  -6.83 kcal/mol
DOCKED: USER        vdW + Hbond + desolv Energy     =  -6.83 kcal/mol
DOCKED: USER        Electrostatic Energy            =  +0.00 kcal/mol
DOCKED: USER        Moving Ligand-Fixed Receptor    =  -6.83 kcal/mol
DOCKED: USER        Moving Ligand-Moving Receptor   =  +0.00 kcal/mol
DOCKED: USER    (2) Final Total Internal Energy     =  -1.10 kcal/mol
DOCKED: USER    (3) Torsional Free Energy           =  +1.49 kcal/mol
DOCKED: USER    (4) Unbound System's Energy         =  -1.10 kcal/mol
DOCKED: USER
DOCKED: USER
DOCKED: REMARK  5 active torsions:
DOCKED: REMARK  status: ('A' for Active; 'I' for Inactive)
DOCKED: REMARK    1  A    between atoms: C_2  and  C_19 
DOCKED: REMARK    2  A    between atoms: C_2  and  C_11 
DOCKED: REMARK    3  A    between atoms: C_19  and  C_20 
DOCKED: REMARK    4  A    between atoms: C_20  and  C_21 
DOCKED: REMARK    5  A    between atoms: C_21  and  N_22 
DOCKED: USER                              x       y       z     vdW  Elec       q    Type
DOCKED: USER                           _______ _______ _______ _____ _____    ______ ____
DOCKED: ROOT
DOCKED: ATOM      1  O   UNL     1     -40.262 -13.105  14.690 -0.05 -0.00    -0.346 OA 
DOCKED: ATOM      2  C   UNL     1     -39.373 -12.010  14.298 -0.11 +0.00    +0.130 C  
DOCKED: ATOM      3  C   UNL     1     -39.261 -12.153  12.808 -0.24 +0.00    +0.004 A  
DOCKED: ATOM      4  C   UNL     1     -40.099 -13.170  12.372 -0.28 +0.00    +0.006 A  
DOCKED: ATOM      5  C   UNL     1     -40.822 -13.754  13.525 -0.08 +0.00    +0.169 C  
DOCKED: ATOM      6  C   UNL     1     -38.489 -11.433  11.908 -0.33 -0.00    -0.001 A  
DOCKED: ATOM      7  C   UNL     1     -40.190 -13.505  11.032 -0.38 +0.00    +0.008 A  
DOCKED: ATOM      8  C   UNL     1     -38.566 -11.761  10.554 -0.10 +0.00    +0.010 A  
DOCKED: ATOM      9  C   UNL     1     -39.413 -12.792  10.118 -0.36 +0.00    +0.068 A  
DOCKED: ATOM     10  N   UNL     1     -39.536 -13.372   7.596 -2.97 -0.00    -0.191 NA 
DOCKED: ATOM     11  C   UNL     1     -39.480 -13.112   8.727 -0.29 +0.00    +0.101 C  
DOCKED: ENDROOT
DOCKED: BRANCH   2  12
DOCKED: ATOM     12  C   UNL     1     -40.014 -10.693  14.721 -0.09 +0.00    +0.038 C  
DOCKED: BRANCH  12  13
DOCKED: ATOM     13  C   UNL     1     -40.838 -10.085  13.588 -0.20 +0.00    +0.038 C  
DOCKED: BRANCH  13  14
DOCKED: ATOM     14  C   UNL     1     -40.887  -8.563  13.700 -0.12 +0.00    +0.251 C  
DOCKED: BRANCH  14  15
DOCKED: ATOM     15  N   UNL     1     -40.294  -7.948  12.518 -0.22 +0.00    +0.141 N  
DOCKED: ATOM     16  C   UNL     1     -40.785  -6.579  12.347 -0.12 +0.00    +0.285 C  
DOCKED: ATOM     17  C   UNL     1     -38.834  -7.955  12.610 -0.14 +0.00    +0.285 C  
DOCKED: ENDBRANCH  14  15
DOCKED: ENDBRANCH  13  14
DOCKED: ENDBRANCH  12  13
DOCKED: ENDBRANCH   2  12
DOCKED: BRANCH   2  18
DOCKED: ATOM     18  C   UNL     1     -38.076 -12.228  15.002 -0.14 +0.00    +0.006 A  
DOCKED: ATOM     19  C   UNL     1     -36.951 -11.492  14.634 -0.16 +0.00    +0.001 A  
DOCKED: ATOM     20  C   UNL     1     -35.738 -11.697  15.293 -0.15 +0.00    +0.029 A  
DOCKED: ATOM     21  C   UNL     1     -35.652 -12.636  16.319 +0.04 +0.00    +0.140 A  
DOCKED: ATOM     22  C   UNL     1     -36.778 -13.372  16.688 -0.16 +0.00    +0.029 A  
DOCKED: ATOM     23  F   UNL     1     -34.489 -12.832  16.953 -0.01 -0.00    -0.204 F  
DOCKED: ATOM     24  C   UNL     1     -37.992 -13.168  16.029 -0.19 +0.00    +0.001 A  
DOCKED: ENDBRANCH   2  18
DOCKED: TORSDOF 5
DOCKED: TER
DOCKED: ENDMDL
________________________________________________________________________________


    FINAL DOCKED STATE:
    ________________________


Run:   202 / 512
Time taken for this run:   0.002s

DOCKED: MODEL        202
DOCKED: USER    Run = 202
DOCKED: USER
DOCKED: USER    Estimated Free Energy of Binding    =  -5.98 kcal/mol  [=(1)+(2)+(3)-(4)]
DOCKED: USER
DOCKED: USER    (1) Final Intermolecular Energy     =  -7.47 kcal/mol
DOCKED: USER        vdW + Hbond + desolv Energy     =  -7.47 kcal/mol
DOCKED: USER        Electrostatic Energy            =  +0.00 kcal/mol
DOCKED: USER        Moving Ligand-Fixed Receptor    =  -7.47 kcal/mol
DOCKED: USER        Moving Ligand-Moving Receptor   =  +0.00 kcal/mol
DOCKED: USER    (2) Final Total Internal Energy     =  -1.04 kcal/mol
DOCKED: USER    (3) Torsional Free Energy           =  +1.49 kcal/mol
DOCKED: USER    (4) Unbound System's Energy         =  -1.04 kcal/mol
DOCKED: USER
DOCKED: USER
DOCKED: REMARK  5 active torsions:
DOCKED: REMARK  status: ('A' for Active; 'I' for Inactive)
DOCKED: REMARK    1  A    between atoms: C_2  and  C_19 
DOCKED: REMARK    2  A    between atoms: C_2  and  C_11 
DOCKED: REMARK    3  A    between atoms: C_19  and  C_20 
DOCKED: REMARK    4  A    between atoms: C_20  and  C_21 
DOCKED: REMARK    5  A    between atoms: C_21  and  N_22 
DOCKED: USER                              x       y       z     vdW  Elec       q    Type
DOCKED: USER                           _______ _______ _______ _____ _____    ______ ____
DOCKED: ROOT
DOCKED: ATOM      1  O   UNL     1     -37.132 -10.663  13.925 -0.06 -0.00    -0.346 OA 
DOCKED: ATOM      2  C   UNL     1     -36.857 -12.099  13.865 -0.23 +0.00    +0.130 C  
DOCKED: ATOM      3  C   UNL     1     -37.417 -12.518  12.536 -0.34 +0.00    +0.004 A  
DOCKED: ATOM      4  C   UNL     1     -37.872 -11.401  11.849 -0.32 +0.00    +0.006 A  
DOCKED: ATOM      5  C   UNL     1     -37.637 -10.184  12.657 -0.23 +0.00    +0.169 C  
DOCKED: ATOM      6  C   UNL     1     -37.506 -13.783  11.976 -0.42 -0.00    -0.001 A  
DOCKED: ATOM      7  C   UNL     1     -38.433 -11.511  10.588 +0.00 +0.00    +0.008 A  
DOCKED: ATOM      8  C   UNL     1     -38.072 -13.911  10.706 -0.44 +0.00    +0.010 A  
DOCKED: ATOM      9  C   UNL     1     -38.533 -12.780  10.016 -0.38 +0.00    +0.068 A  
DOCKED: ATOM     10  N   UNL     1     -39.575 -13.051   7.659 -3.05 -0.00    -0.191 NA 
DOCKED: ATOM     11  C   UNL     1     -39.108 -12.929   8.717 -0.42 +0.00    +0.101 C  
DOCKED: ENDROOT
DOCKED: BRANCH   2  12
DOCKED: ATOM     12  C   UNL     1     -35.351 -12.307  13.966 -0.18 +0.00    +0.038 C  
DOCKED: BRANCH  12  13
DOCKED: ATOM     13  C   UNL     1     -34.649 -11.053  14.484 -0.18 +0.00    +0.038 C  
DOCKED: BRANCH  13  14
DOCKED: ATOM     14  C   UNL     1     -33.172 -11.048  14.094 -0.07 +0.00    +0.251 C  
DOCKED: BRANCH  14  15
DOCKED: ATOM     15  N   UNL     1     -32.697  -9.680  13.926 -0.08 +0.00    +0.141 N  
DOCKED: ATOM     16  C   UNL     1     -31.265  -9.665  13.620 -0.04 +0.00    +0.285 C  
DOCKED: ATOM     17  C   UNL     1     -33.448  -8.999  12.870 -0.04 +0.00    +0.285 C  
DOCKED: ENDBRANCH  14  15
DOCKED: ENDBRANCH  13  14
DOCKED: ENDBRANCH  12  13
DOCKED: ENDBRANCH   2  12
DOCKED: BRANCH   2  18
DOCKED: ATOM     18  C   UNL     1     -37.565 -12.728  15.018 -0.19 +0.00    +0.006 A  
DOCKED: ATOM     19  C   UNL     1     -38.905 -13.097  14.896 -0.19 +0.00    +0.001 A  
DOCKED: ATOM     20  C   UNL     1     -39.566 -13.684  15.976 -0.16 +0.00    +0.029 A  
DOCKED: ATOM     21  C   UNL     1     -38.888 -13.901  17.174 -0.08 +0.00    +0.140 A  
DOCKED: ATOM     22  C   UNL     1     -37.548 -13.532  17.296 -0.18 +0.00    +0.029 A  
DOCKED: ATOM     23  F   UNL     1     -39.522 -14.467  18.210 -0.03 -0.00    -0.204 F  
DOCKED: ATOM     24  C   UNL     1     -36.886 -12.944  16.217 -0.17 +0.00    +0.001 A  
DOCKED: ENDBRANCH   2  18
DOCKED: TORSDOF 5
DOCKED: TER
DOCKED: ENDMDL
________________________________________________________________________________


    FINAL DOCKED STATE:
    ________________________


Run:   203 / 512
Time taken for this run:   0.002s

DOCKED: MODEL        203
DOCKED: USER    Run = 203
DOCKED: USER
DOCKED: USER    Estimated Free Energy of Binding    =  -4.15 kcal/mol  [=(1)+(2)+(3)-(4)]
DOCKED: USER
DOCKED: USER    (1) Final Intermolecular Energy     =  -5.64 kcal/mol
DOCKED: USER        vdW + Hbond + desolv Energy     =  -5.64 kcal/mol
DOCKED: USER        Electrostatic Energy            =  +0.00 kcal/mol
DOCKED: USER        Moving Ligand-Fixed Receptor    =  -5.64 kcal/mol
DOCKED: USER        Moving Ligand-Moving Receptor   =  +0.00 kcal/mol
DOCKED: USER    (2) Final Total Internal Energy     =  -1.09 kcal/mol
DOCKED: USER    (3) Torsional Free Energy           =  +1.49 kcal/mol
DOCKED: USER    (4) Unbound System's Energy         =  -1.09 kcal/mol
DOCKED: USER
DOCKED: USER
DOCKED: REMARK  5 active torsions:
DOCKED: REMARK  status: ('A' for Active; 'I' for Inactive)
DOCKED: REMARK    1  A    between atoms: C_2  and  C_19 
DOCKED: REMARK    2  A    between atoms: C_2  and  C_11 
DOCKED: REMARK    3  A    between atoms: C_19  and  C_20 
DOCKED: REMARK    4  A    between atoms: C_20  and  C_21 
DOCKED: REMARK    5  A    between atoms: C_21  and  N_22 
DOCKED: USER                              x       y       z     vdW  Elec       q    Type
DOCKED: USER                           _______ _______ _______ _____ _____    ______ ____
DOCKED: ROOT
DOCKED: ATOM      1  O   UNL     1     -35.077 -10.481  14.764 -0.06 -0.00    -0.346 OA 
DOCKED: ATOM      2  C   UNL     1     -35.986  -9.654  13.970 -0.13 +0.00    +0.130 C  
DOCKED: ATOM      3  C   UNL     1     -36.801 -10.652  13.201 -0.23 +0.00    +0.004 A  
DOCKED: ATOM      4  C   UNL     1     -36.466 -11.937  13.601 -0.26 +0.00    +0.006 A  
DOCKED: ATOM      5  C   UNL     1     -35.429 -11.880  14.656 -0.17 +0.00    +0.169 C  
DOCKED: ATOM      6  C   UNL     1     -37.771 -10.439  12.232 -0.28 -0.00    -0.001 A  
DOCKED: ATOM      7  C   UNL     1     -37.080 -13.048  13.048 -0.35 +0.00    +0.008 A  
DOCKED: ATOM      8  C   UNL     1     -38.397 -11.549  11.662 -0.34 +0.00    +0.010 A  
DOCKED: ATOM      9  C   UNL     1     -38.053 -12.847  12.069 -0.33 +0.00    +0.068 A  
DOCKED: ATOM     10  N   UNL     1     -39.237 -14.885  10.993 -2.39 -0.00    -0.191 NA 
DOCKED: ATOM     11  C   UNL     1     -38.706 -13.971  11.475 -0.37 +0.00    +0.101 C  
DOCKED: ENDROOT
DOCKED: BRANCH   2  12
DOCKED: ATOM     12  C   UNL     1     -36.825  -8.809  14.922 -0.06 +0.00    +0.038 C  
DOCKED: BRANCH  12  13
DOCKED: ATOM     13  C   UNL     1     -36.375  -8.990  16.370 -0.02 +0.00    +0.038 C  
DOCKED: BRANCH  13  14
DOCKED: ATOM     14  C   UNL     1     -37.165 -10.103  17.056 -0.01 +0.00    +0.251 C  
DOCKED: BRANCH  14  15
DOCKED: ATOM     15  N   UNL     1     -37.496  -9.722  18.424 -0.00 +0.00    +0.141 N  
DOCKED: ATOM     16  C   UNL     1     -36.513  -8.772  18.947 +0.00 +0.00    +0.285 C  
DOCKED: ATOM     17  C   UNL     1     -38.841  -9.146  18.487 -0.00 +0.00    +0.285 C  
DOCKED: ENDBRANCH  14  15
DOCKED: ENDBRANCH  13  14
DOCKED: ENDBRANCH  12  13
DOCKED: ENDBRANCH   2  12
DOCKED: BRANCH   2  18
DOCKED: ATOM     18  C   UNL     1     -35.139  -8.794  13.092 -0.14 +0.00    +0.006 A  
DOCKED: ATOM     19  C   UNL     1     -35.711  -7.728  12.400 -0.15 +0.00    +0.001 A  
DOCKED: ATOM     20  C   UNL     1     -34.917  -6.925  11.579 -0.11 +0.00    +0.029 A  
DOCKED: ATOM     21  C   UNL     1     -33.555  -7.190  11.452 -0.07 +0.00    +0.140 A  
DOCKED: ATOM     22  C   UNL     1     -32.983  -8.257  12.144 -0.10 +0.00    +0.029 A  
DOCKED: ATOM     23  F   UNL     1     -32.793  -6.419  10.665 -0.00 -0.00    -0.204 F  
DOCKED: ATOM     24  C   UNL     1     -33.776  -9.061  12.965 -0.06 +0.00    +0.001 A  
DOCKED: ENDBRANCH   2  18
DOCKED: TORSDOF 5
DOCKED: TER
DOCKED: ENDMDL
________________________________________________________________________________


    FINAL DOCKED STATE:
    ________________________


Run:   204 / 512
Time taken for this run:   0.002s

DOCKED: MODEL        204
DOCKED: USER    Run = 204
DOCKED: USER
DOCKED: USER    Estimated Free Energy of Binding    =  -4.46 kcal/mol  [=(1)+(2)+(3)-(4)]
DOCKED: USER
DOCKED: USER    (1) Final Intermolecular Energy     =  -5.95 kcal/mol
DOCKED: USER        vdW + Hbond + desolv Energy     =  -5.95 kcal/mol
DOCKED: USER        Electrostatic Energy            =  +0.00 kcal/mol
DOCKED: USER        Moving Ligand-Fixed Receptor    =  -5.95 kcal/mol
DOCKED: USER        Moving Ligand-Moving Receptor   =  +0.00 kcal/mol
DOCKED: USER    (2) Final Total Internal Energy     =  -1.09 kcal/mol
DOCKED: USER    (3) Torsional Free Energy           =  +1.49 kcal/mol
DOCKED: USER    (4) Unbound System's Energy         =  -1.09 kcal/mol
DOCKED: USER
DOCKED: USER
DOCKED: REMARK  5 active torsions:
DOCKED: REMARK  status: ('A' for Active; 'I' for Inactive)
DOCKED: REMARK    1  A    between atoms: C_2  and  C_19 
DOCKED: REMARK    2  A    between atoms: C_2  and  C_11 
DOCKED: REMARK    3  A    between atoms: C_19  and  C_20 
DOCKED: REMARK    4  A    between atoms: C_20  and  C_21 
DOCKED: REMARK    5  A    between atoms: C_21  and  N_22 
DOCKED: USER                              x       y       z     vdW  Elec       q    Type
DOCKED: USER                           _______ _______ _______ _____ _____    ______ ____
DOCKED: ROOT
DOCKED: ATOM      1  O   UNL     1     -34.817 -10.253  14.561 -0.06 -0.00    -0.346 OA 
DOCKED: ATOM      2  C   UNL     1     -35.738  -9.476  13.730 -0.13 +0.00    +0.130 C  
DOCKED: ATOM      3  C   UNL     1     -36.600 -10.518  13.079 -0.21 +0.00    +0.004 A  
DOCKED: ATOM      4  C   UNL     1     -36.276 -11.771  13.578 -0.24 +0.00    +0.006 A  
DOCKED: ATOM      5  C   UNL     1     -35.201 -11.647  14.587 -0.17 +0.00    +0.169 C  
DOCKED: ATOM      6  C   UNL     1     -37.601 -10.367  12.129 -0.27 -0.00    -0.001 A  
DOCKED: ATOM      7  C   UNL     1     -36.932 -12.911  13.145 -0.34 +0.00    +0.008 A  
DOCKED: ATOM      8  C   UNL     1     -38.269 -11.507  11.680 -0.34 +0.00    +0.010 A  
DOCKED: ATOM      9  C   UNL     1     -37.936 -12.773  12.186 -0.32 +0.00    +0.068 A  
DOCKED: ATOM     10  N   UNL     1     -39.199 -14.869  11.333 -2.60 -0.00    -0.191 NA 
DOCKED: ATOM     11  C   UNL     1     -38.632 -13.929  11.715 -0.30 +0.00    +0.101 C  
DOCKED: ENDROOT
DOCKED: BRANCH   2  12
DOCKED: ATOM     12  C   UNL     1     -36.524  -8.533  14.632 -0.06 +0.00    +0.038 C  
DOCKED: BRANCH  12  13
DOCKED: ATOM     13  C   UNL     1     -36.863  -7.228  13.914 -0.07 +0.00    +0.038 C  
DOCKED: BRANCH  13  14
DOCKED: ATOM     14  C   UNL     1     -38.286  -6.777  14.238 -0.03 +0.00    +0.251 C  
DOCKED: BRANCH  14  15
DOCKED: ATOM     15  N   UNL     1     -39.244  -7.811  13.866 -0.08 +0.00    +0.141 N  
DOCKED: ATOM     16  C   UNL     1     -40.417  -7.767  14.740 -0.02 +0.00    +0.285 C  
DOCKED: ATOM     17  C   UNL     1     -39.647  -7.662  12.467 -0.15 +0.00    +0.285 C  
DOCKED: ENDBRANCH  14  15
DOCKED: ENDBRANCH  13  14
DOCKED: ENDBRANCH  12  13
DOCKED: ENDBRANCH   2  12
DOCKED: BRANCH   2  18
DOCKED: ATOM     18  C   UNL     1     -34.906  -8.715  12.751 -0.14 +0.00    +0.006 A  
DOCKED: ATOM     19  C   UNL     1     -35.412  -8.423  11.485 -0.04 +0.00    +0.001 A  
DOCKED: ATOM     20  C   UNL     1     -34.633  -7.713  10.571 -0.14 +0.00    +0.029 A  
DOCKED: ATOM     21  C   UNL     1     -33.351  -7.295  10.924 -0.08 +0.00    +0.140 A  
DOCKED: ATOM     22  C   UNL     1     -32.845  -7.587  12.191 -0.07 +0.00    +0.029 A  
DOCKED: ATOM     23  F   UNL     1     -32.604  -6.611  10.048 -0.00 -0.00    -0.204 F  
DOCKED: ATOM     24  C   UNL     1     -33.623  -8.299  13.106 -0.10 +0.00    +0.001 A  
DOCKED: ENDBRANCH   2  18
DOCKED: TORSDOF 5
DOCKED: TER
DOCKED: ENDMDL
________________________________________________________________________________


    FINAL DOCKED STATE:
    ________________________


Run:   205 / 512
Time taken for this run:   0.002s

DOCKED: MODEL        205
DOCKED: USER    Run = 205
DOCKED: USER
DOCKED: USER    Estimated Free Energy of Binding    =  -4.75 kcal/mol  [=(1)+(2)+(3)-(4)]
DOCKED: USER
DOCKED: USER    (1) Final Intermolecular Energy     =  -6.24 kcal/mol
DOCKED: USER        vdW + Hbond + desolv Energy     =  -6.24 kcal/mol
DOCKED: USER        Electrostatic Energy            =  +0.00 kcal/mol
DOCKED: USER        Moving Ligand-Fixed Receptor    =  -6.24 kcal/mol
DOCKED: USER        Moving Ligand-Moving Receptor   =  +0.00 kcal/mol
DOCKED: USER    (2) Final Total Internal Energy     =  -1.37 kcal/mol
DOCKED: USER    (3) Torsional Free Energy           =  +1.49 kcal/mol
DOCKED: USER    (4) Unbound System's Energy         =  -1.37 kcal/mol
DOCKED: USER
DOCKED: USER
DOCKED: REMARK  5 active torsions:
DOCKED: REMARK  status: ('A' for Active; 'I' for Inactive)
DOCKED: REMARK    1  A    between atoms: C_2  and  C_19 
DOCKED: REMARK    2  A    between atoms: C_2  and  C_11 
DOCKED: REMARK    3  A    between atoms: C_19  and  C_20 
DOCKED: REMARK    4  A    between atoms: C_20  and  C_21 
DOCKED: REMARK    5  A    between atoms: C_21  and  N_22 
DOCKED: USER                              x       y       z     vdW  Elec       q    Type
DOCKED: USER                           _______ _______ _______ _____ _____    ______ ____
DOCKED: ROOT
DOCKED: ATOM      1  O   UNL     1     -33.303  -5.058   5.739 -0.02 -0.00    -0.346 OA 
DOCKED: ATOM      2  C   UNL     1     -34.682  -4.841   6.178 -0.20 +0.00    +0.130 C  
DOCKED: ATOM      3  C   UNL     1     -35.275  -3.989   5.094 -0.29 +0.00    +0.004 A  
DOCKED: ATOM      4  C   UNL     1     -34.352  -3.825   4.071 -0.26 +0.00    +0.006 A  
DOCKED: ATOM      5  C   UNL     1     -33.107  -4.557   4.396 -0.12 +0.00    +0.169 C  
DOCKED: ATOM      6  C   UNL     1     -36.535  -3.415   5.014 +0.02 -0.00    -0.001 A  
DOCKED: ATOM      7  C   UNL     1     -34.652  -3.083   2.941 -0.23 +0.00    +0.008 A  
DOCKED: ATOM      8  C   UNL     1     -36.852  -2.660   3.883 -0.34 +0.00    +0.010 A  
DOCKED: ATOM      9  C   UNL     1     -35.914  -2.495   2.852 -0.27 +0.00    +0.068 A  
DOCKED: ATOM     10  N   UNL     1     -36.535  -1.092   0.765 -2.43 -0.00    -0.191 NA 
DOCKED: ATOM     11  C   UNL     1     -36.257  -1.721   1.701 -0.31 +0.00    +0.101 C  
DOCKED: ENDROOT
DOCKED: BRANCH   2  12
DOCKED: ATOM     12  C   UNL     1     -35.365  -6.197   6.309 -0.26 +0.00    +0.038 C  
DOCKED: BRANCH  12  13
DOCKED: ATOM     13  C   UNL     1     -34.432  -7.233   6.933 -0.22 +0.00    +0.038 C  
DOCKED: BRANCH  13  14
DOCKED: ATOM     14  C   UNL     1     -33.619  -7.956   5.861 -0.12 +0.00    +0.251 C  
DOCKED: BRANCH  14  15
DOCKED: ATOM     15  N   UNL     1     -32.192  -7.751   6.082 -0.07 +0.00    +0.141 N  
DOCKED: ATOM     16  C   UNL     1     -31.944  -7.278   7.445 -0.02 +0.00    +0.285 C  
DOCKED: ATOM     17  C   UNL     1     -31.449  -8.987   5.831 -0.08 +0.00    +0.285 C  
DOCKED: ENDBRANCH  14  15
DOCKED: ENDBRANCH  13  14
DOCKED: ENDBRANCH  12  13
DOCKED: ENDBRANCH   2  12
DOCKED: BRANCH   2  18
DOCKED: ATOM     18  C   UNL     1     -34.615  -4.143   7.496 -0.20 +0.00    +0.006 A  
DOCKED: ATOM     19  C   UNL     1     -35.790  -3.839   8.183 -0.24 +0.00    +0.001 A  
DOCKED: ATOM     20  C   UNL     1     -35.726  -3.186   9.414 -0.19 +0.00    +0.029 A  
DOCKED: ATOM     21  C   UNL     1     -34.490  -2.838   9.956 -0.12 +0.00    +0.140 A  
DOCKED: ATOM     22  C   UNL     1     -33.316  -3.142   9.268 -0.08 +0.00    +0.029 A  
DOCKED: ATOM     23  F   UNL     1     -34.429  -2.212  11.139 -0.04 -0.00    -0.204 F  
DOCKED: ATOM     24  C   UNL     1     -33.378  -3.795   8.036 -0.15 +0.00    +0.001 A  
DOCKED: ENDBRANCH   2  18
DOCKED: TORSDOF 5
DOCKED: TER
DOCKED: ENDMDL
________________________________________________________________________________


    FINAL DOCKED STATE:
    ________________________


Run:   206 / 512
Time taken for this run:   0.002s

DOCKED: MODEL        206
DOCKED: USER    Run = 206
DOCKED: USER
DOCKED: USER    Estimated Free Energy of Binding    =  -4.41 kcal/mol  [=(1)+(2)+(3)-(4)]
DOCKED: USER
DOCKED: USER    (1) Final Intermolecular Energy     =  -5.90 kcal/mol
DOCKED: USER        vdW + Hbond + desolv Energy     =  -5.90 kcal/mol
DOCKED: USER        Electrostatic Energy            =  +0.00 kcal/mol
DOCKED: USER        Moving Ligand-Fixed Receptor    =  -5.90 kcal/mol
DOCKED: USER        Moving Ligand-Moving Receptor   =  +0.00 kcal/mol
DOCKED: USER    (2) Final Total Internal Energy     =  -1.46 kcal/mol
DOCKED: USER    (3) Torsional Free Energy           =  +1.49 kcal/mol
DOCKED: USER    (4) Unbound System's Energy         =  -1.46 kcal/mol
DOCKED: USER
DOCKED: USER
DOCKED: REMARK  5 active torsions:
DOCKED: REMARK  status: ('A' for Active; 'I' for Inactive)
DOCKED: REMARK    1  A    between atoms: C_2  and  C_19 
DOCKED: REMARK    2  A    between atoms: C_2  and  C_11 
DOCKED: REMARK    3  A    between atoms: C_19  and  C_20 
DOCKED: REMARK    4  A    between atoms: C_20  and  C_21 
DOCKED: REMARK    5  A    between atoms: C_21  and  N_22 
DOCKED: USER                              x       y       z     vdW  Elec       q    Type
DOCKED: USER                           _______ _______ _______ _____ _____    ______ ____
DOCKED: ROOT
DOCKED: ATOM      1  O   UNL     1     -37.377  -8.127  12.753 -0.08 -0.00    -0.346 OA 
DOCKED: ATOM      2  C   UNL     1     -38.594  -8.423  13.511 -0.15 +0.00    +0.130 C  
DOCKED: ATOM      3  C   UNL     1     -38.910  -9.843  13.143 -0.21 +0.00    +0.004 A  
DOCKED: ATOM      4  C   UNL     1     -37.904 -10.351  12.333 -0.27 +0.00    +0.006 A  
DOCKED: ATOM      5  C   UNL     1     -36.861  -9.322  12.123 -0.12 +0.00    +0.169 C  
DOCKED: ATOM      6  C   UNL     1     -39.996 -10.627  13.504 -0.17 -0.00    -0.001 A  
DOCKED: ATOM      7  C   UNL     1     -37.950 -11.650  11.856 -0.34 +0.00    +0.008 A  
DOCKED: ATOM      8  C   UNL     1     -40.059 -11.937  13.028 -0.20 +0.00    +0.010 A  
DOCKED: ATOM      9  C   UNL     1     -39.041 -12.446  12.208 -0.26 +0.00    +0.068 A  
DOCKED: ATOM     10  N   UNL     1     -39.186 -14.885  11.344 -2.61 -0.00    -0.191 NA 
DOCKED: ATOM     11  C   UNL     1     -39.121 -13.791  11.731 -0.36 +0.00    +0.101 C  
DOCKED: ENDROOT
DOCKED: BRANCH   2  12
DOCKED: ATOM     12  C   UNL     1     -38.292  -8.248  14.995 -0.05 +0.00    +0.038 C  
DOCKED: BRANCH  12  13
DOCKED: ATOM     13  C   UNL     1     -38.153  -6.772  15.365 -0.02 +0.00    +0.038 C  
DOCKED: BRANCH  13  14
DOCKED: ATOM     14  C   UNL     1     -36.792  -6.225  14.941 -0.01 +0.00    +0.251 C  
DOCKED: BRANCH  14  15
DOCKED: ATOM     15  N   UNL     1     -36.954  -5.195  13.921 -0.01 +0.00    +0.141 N  
DOCKED: ATOM     16  C   UNL     1     -36.914  -3.862  14.523 -0.00 +0.00    +0.285 C  
DOCKED: ATOM     17  C   UNL     1     -35.919  -5.320  12.893 -0.02 +0.00    +0.285 C  
DOCKED: ENDBRANCH  14  15
DOCKED: ENDBRANCH  13  14
DOCKED: ENDBRANCH  12  13
DOCKED: ENDBRANCH   2  12
DOCKED: BRANCH   2  18
DOCKED: ATOM     18  C   UNL     1     -39.637  -7.457  13.056 -0.20 +0.00    +0.006 A  
DOCKED: ATOM     19  C   UNL     1     -40.940  -7.560  13.542 -0.16 +0.00    +0.001 A  
DOCKED: ATOM     20  C   UNL     1     -41.914  -6.657  13.116 -0.16 +0.00    +0.029 A  
DOCKED: ATOM     21  C   UNL     1     -41.585  -5.653  12.206 -0.12 +0.00    +0.140 A  
DOCKED: ATOM     22  C   UNL     1     -40.282  -5.551  11.721 -0.16 +0.00    +0.029 A  
DOCKED: ATOM     23  F   UNL     1     -42.520  -4.785  11.799 -0.02 -0.00    -0.204 F  
DOCKED: ATOM     24  C   UNL     1     -39.306  -6.454  12.146 -0.19 +0.00    +0.001 A  
DOCKED: ENDBRANCH   2  18
DOCKED: TORSDOF 5
DOCKED: TER
DOCKED: ENDMDL
________________________________________________________________________________


    FINAL DOCKED STATE:
    ________________________


Run:   207 / 512
Time taken for this run:   0.002s

DOCKED: MODEL        207
DOCKED: USER    Run = 207
DOCKED: USER
DOCKED: USER    Estimated Free Energy of Binding    =  -4.32 kcal/mol  [=(1)+(2)+(3)-(4)]
DOCKED: USER
DOCKED: USER    (1) Final Intermolecular Energy     =  -5.81 kcal/mol
DOCKED: USER        vdW + Hbond + desolv Energy     =  -5.81 kcal/mol
DOCKED: USER        Electrostatic Energy            =  +0.00 kcal/mol
DOCKED: USER        Moving Ligand-Fixed Receptor    =  -5.81 kcal/mol
DOCKED: USER        Moving Ligand-Moving Receptor   =  +0.00 kcal/mol
DOCKED: USER    (2) Final Total Internal Energy     =  -1.30 kcal/mol
DOCKED: USER    (3) Torsional Free Energy           =  +1.49 kcal/mol
DOCKED: USER    (4) Unbound System's Energy         =  -1.30 kcal/mol
DOCKED: USER
DOCKED: USER
DOCKED: REMARK  5 active torsions:
DOCKED: REMARK  status: ('A' for Active; 'I' for Inactive)
DOCKED: REMARK    1  A    between atoms: C_2  and  C_19 
DOCKED: REMARK    2  A    between atoms: C_2  and  C_11 
DOCKED: REMARK    3  A    between atoms: C_19  and  C_20 
DOCKED: REMARK    4  A    between atoms: C_20  and  C_21 
DOCKED: REMARK    5  A    between atoms: C_21  and  N_22 
DOCKED: USER                              x       y       z     vdW  Elec       q    Type
DOCKED: USER                           _______ _______ _______ _____ _____    ______ ____
DOCKED: ROOT
DOCKED: ATOM      1  O   UNL     1     -35.041 -10.509  14.461 -0.08 -0.00    -0.346 OA 
DOCKED: ATOM      2  C   UNL     1     -36.250  -9.746  14.153 -0.12 +0.00    +0.130 C  
DOCKED: ATOM      3  C   UNL     1     -37.120 -10.728  13.423 -0.22 +0.00    +0.004 A  
DOCKED: ATOM      4  C   UNL     1     -36.509 -11.974  13.412 -0.26 +0.00    +0.006 A  
DOCKED: ATOM      5  C   UNL     1     -35.218 -11.907  14.134 -0.14 +0.00    +0.169 C  
DOCKED: ATOM      6  C   UNL     1     -38.358 -10.537  12.827 -0.26 -0.00    -0.001 A  
DOCKED: ATOM      7  C   UNL     1     -37.107 -13.064  12.805 -0.36 +0.00    +0.008 A  
DOCKED: ATOM      8  C   UNL     1     -38.972 -11.626  12.206 -0.29 +0.00    +0.010 A  
DOCKED: ATOM      9  C   UNL     1     -38.350 -12.883  12.196 -0.31 +0.00    +0.068 A  
DOCKED: ATOM     10  N   UNL     1     -39.521 -14.885  11.040 -2.40 -0.00    -0.191 NA 
DOCKED: ATOM     11  C   UNL     1     -38.995 -13.987  11.558 -0.33 +0.00    +0.101 C  
DOCKED: ENDROOT
DOCKED: BRANCH   2  12
DOCKED: ATOM     12  C   UNL     1     -36.866  -9.267  15.463 -0.04 +0.00    +0.038 C  
DOCKED: BRANCH  12  13
DOCKED: ATOM     13  C   UNL     1     -37.890 -10.267  15.995 -0.05 +0.00    +0.038 C  
DOCKED: BRANCH  13  14
DOCKED: ATOM     14  C   UNL     1     -37.209 -11.387  16.780 -0.03 +0.00    +0.251 C  
DOCKED: BRANCH  14  15
DOCKED: ATOM     15  N   UNL     1     -38.108 -12.526  16.921 -0.07 +0.00    +0.141 N  
DOCKED: ATOM     16  C   UNL     1     -37.483 -13.745  16.405 -0.14 +0.00    +0.285 C  
DOCKED: ATOM     17  C   UNL     1     -38.494 -12.708  18.322 -0.03 +0.00    +0.285 C  
DOCKED: ENDBRANCH  14  15
DOCKED: ENDBRANCH  13  14
DOCKED: ENDBRANCH  12  13
DOCKED: ENDBRANCH   2  12
DOCKED: BRANCH   2  18
DOCKED: ATOM     18  C   UNL     1     -35.833  -8.593  13.302 -0.14 +0.00    +0.006 A  
DOCKED: ATOM     19  C   UNL     1     -36.722  -7.546  13.063 -0.12 +0.00    +0.001 A  
DOCKED: ATOM     20  C   UNL     1     -36.331  -6.469  12.266 -0.10 +0.00    +0.029 A  
DOCKED: ATOM     21  C   UNL     1     -35.053  -6.441  11.711 -0.07 +0.00    +0.140 A  
DOCKED: ATOM     22  C   UNL     1     -34.164  -7.488  11.951 -0.11 +0.00    +0.029 A  
DOCKED: ATOM     23  F   UNL     1     -34.677  -5.406  10.948 -0.01 -0.00    -0.204 F  
DOCKED: ATOM     24  C   UNL     1     -34.554  -8.566  12.747 -0.13 +0.00    +0.001 A  
DOCKED: ENDBRANCH   2  18
DOCKED: TORSDOF 5
DOCKED: TER
DOCKED: ENDMDL
________________________________________________________________________________


    FINAL DOCKED STATE:
    ________________________


Run:   208 / 512
Time taken for this run:   0.002s

DOCKED: MODEL        208
DOCKED: USER    Run = 208
DOCKED: USER
DOCKED: USER    Estimated Free Energy of Binding    =  -4.76 kcal/mol  [=(1)+(2)+(3)-(4)]
DOCKED: USER
DOCKED: USER    (1) Final Intermolecular Energy     =  -6.25 kcal/mol
DOCKED: USER        vdW + Hbond + desolv Energy     =  -6.25 kcal/mol
DOCKED: USER        Electrostatic Energy            =  +0.00 kcal/mol
DOCKED: USER        Moving Ligand-Fixed Receptor    =  -6.25 kcal/mol
DOCKED: USER        Moving Ligand-Moving Receptor   =  +0.00 kcal/mol
DOCKED: USER    (2) Final Total Internal Energy     =  -0.88 kcal/mol
DOCKED: USER    (3) Torsional Free Energy           =  +1.49 kcal/mol
DOCKED: USER    (4) Unbound System's Energy         =  -0.88 kcal/mol
DOCKED: USER
DOCKED: USER
DOCKED: REMARK  5 active torsions:
DOCKED: REMARK  status: ('A' for Active; 'I' for Inactive)
DOCKED: REMARK    1  A    between atoms: C_2  and  C_19 
DOCKED: REMARK    2  A    between atoms: C_2  and  C_11 
DOCKED: REMARK    3  A    between atoms: C_19  and  C_20 
DOCKED: REMARK    4  A    between atoms: C_20  and  C_21 
DOCKED: REMARK    5  A    between atoms: C_21  and  N_22 
DOCKED: USER                              x       y       z     vdW  Elec       q    Type
DOCKED: USER                           _______ _______ _______ _____ _____    ______ ____
DOCKED: ROOT
DOCKED: ATOM      1  O   UNL     1     -38.016 -10.614  14.397 -0.02 -0.00    -0.346 OA 
DOCKED: ATOM      2  C   UNL     1     -37.982 -12.076  14.452 -0.14 +0.00    +0.130 C  
DOCKED: ATOM      3  C   UNL     1     -38.306 -12.496  13.047 -0.27 +0.00    +0.004 A  
DOCKED: ATOM      4  C   UNL     1     -38.406 -11.375  12.236 -0.31 +0.00    +0.006 A  
DOCKED: ATOM      5  C   UNL     1     -38.147 -10.154  13.031 -0.20 +0.00    +0.169 C  
DOCKED: ATOM      6  C   UNL     1     -38.486 -13.770  12.527 -0.15 -0.00    -0.001 A  
DOCKED: ATOM      7  C   UNL     1     -38.692 -11.486  10.886 +0.08 +0.00    +0.008 A  
DOCKED: ATOM      8  C   UNL     1     -38.779 -13.898  11.168 -0.46 +0.00    +0.010 A  
DOCKED: ATOM      9  C   UNL     1     -38.881 -12.762  10.352 -0.40 +0.00    +0.068 A  
DOCKED: ATOM     10  N   UNL     1     -39.422 -13.035   7.833 -2.61 -0.00    -0.191 NA 
DOCKED: ATOM     11  C   UNL     1     -39.180 -12.912   8.963 -0.47 +0.00    +0.101 C  
DOCKED: ENDROOT
DOCKED: BRANCH   2  12
DOCKED: ATOM     12  C   UNL     1     -36.591 -12.511  14.895 -0.22 +0.00    +0.038 C  
DOCKED: BRANCH  12  13
DOCKED: ATOM     13  C   UNL     1     -35.984 -11.515  15.883 -0.12 +0.00    +0.038 C  
DOCKED: BRANCH  13  14
DOCKED: ATOM     14  C   UNL     1     -35.526 -10.244  15.170 -0.06 +0.00    +0.251 C  
DOCKED: BRANCH  14  15
DOCKED: ATOM     15  N   UNL     1     -34.114 -10.339  14.822 -0.09 +0.00    +0.141 N  
DOCKED: ATOM     16  C   UNL     1     -33.790 -11.682  14.339 -0.10 +0.00    +0.285 C  
DOCKED: ATOM     17  C   UNL     1     -33.763  -9.338  13.813 -0.07 +0.00    +0.285 C  
DOCKED: ENDBRANCH  14  15
DOCKED: ENDBRANCH  13  14
DOCKED: ENDBRANCH  12  13
DOCKED: ENDBRANCH   2  12
DOCKED: BRANCH   2  18
DOCKED: ATOM     18  C   UNL     1     -39.019 -12.499  15.439 -0.12 +0.00    +0.006 A  
DOCKED: ATOM     19  C   UNL     1     -38.718 -13.472  16.391 -0.18 +0.00    +0.001 A  
DOCKED: ATOM     20  C   UNL     1     -39.688 -13.867  17.313 -0.13 +0.00    +0.029 A  
DOCKED: ATOM     21  C   UNL     1     -40.956 -13.289  17.282 -0.06 +0.00    +0.140 A  
DOCKED: ATOM     22  C   UNL     1     -41.256 -12.316  16.329 -0.06 +0.00    +0.029 A  
DOCKED: ATOM     23  F   UNL     1     -41.886 -13.667  18.168 +0.01 -0.00    -0.204 F  
DOCKED: ATOM     24  C   UNL     1     -40.287 -11.920  15.406 -0.08 +0.00    +0.001 A  
DOCKED: ENDBRANCH   2  18
DOCKED: TORSDOF 5
DOCKED: TER
DOCKED: ENDMDL
________________________________________________________________________________


    FINAL DOCKED STATE:
    ________________________


Run:   209 / 512
Time taken for this run:   0.002s

DOCKED: MODEL        209
DOCKED: USER    Run = 209
DOCKED: USER
DOCKED: USER    Estimated Free Energy of Binding    =  -4.15 kcal/mol  [=(1)+(2)+(3)-(4)]
DOCKED: USER
DOCKED: USER    (1) Final Intermolecular Energy     =  -5.64 kcal/mol
DOCKED: USER        vdW + Hbond + desolv Energy     =  -5.64 kcal/mol
DOCKED: USER        Electrostatic Energy            =  +0.00 kcal/mol
DOCKED: USER        Moving Ligand-Fixed Receptor    =  -5.64 kcal/mol
DOCKED: USER        Moving Ligand-Moving Receptor   =  +0.00 kcal/mol
DOCKED: USER    (2) Final Total Internal Energy     =  -1.10 kcal/mol
DOCKED: USER    (3) Torsional Free Energy           =  +1.49 kcal/mol
DOCKED: USER    (4) Unbound System's Energy         =  -1.10 kcal/mol
DOCKED: USER
DOCKED: USER
DOCKED: REMARK  5 active torsions:
DOCKED: REMARK  status: ('A' for Active; 'I' for Inactive)
DOCKED: REMARK    1  A    between atoms: C_2  and  C_19 
DOCKED: REMARK    2  A    between atoms: C_2  and  C_11 
DOCKED: REMARK    3  A    between atoms: C_19  and  C_20 
DOCKED: REMARK    4  A    between atoms: C_20  and  C_21 
DOCKED: REMARK    5  A    between atoms: C_21  and  N_22 
DOCKED: USER                              x       y       z     vdW  Elec       q    Type
DOCKED: USER                           _______ _______ _______ _____ _____    ______ ____
DOCKED: ROOT
DOCKED: ATOM      1  O   UNL     1     -38.931 -10.897  15.046 -0.00 -0.00    -0.346 OA 
DOCKED: ATOM      2  C   UNL     1     -37.618 -11.437  14.692 -0.11 +0.00    +0.130 C  
DOCKED: ATOM      3  C   UNL     1     -37.840 -12.077  13.353 -0.25 +0.00    +0.004 A  
DOCKED: ATOM      4  C   UNL     1     -39.138 -11.830  12.927 -0.23 +0.00    +0.006 A  
DOCKED: ATOM      5  C   UNL     1     -39.849 -11.011  13.933 -0.10 +0.00    +0.169 C  
DOCKED: ATOM      6  C   UNL     1     -36.961 -12.810  12.569 -0.34 -0.00    -0.001 A  
DOCKED: ATOM      7  C   UNL     1     -39.601 -12.308  11.713 -0.31 +0.00    +0.008 A  
DOCKED: ATOM      8  C   UNL     1     -37.414 -13.302  11.344 -0.04 +0.00    +0.010 A  
DOCKED: ATOM      9  C   UNL     1     -38.727 -13.052  10.918 -0.39 +0.00    +0.068 A  
DOCKED: ATOM     10  N   UNL     1     -39.535 -13.975   8.636 -1.68 -0.00    -0.191 NA 
DOCKED: ATOM     11  C   UNL     1     -39.173 -13.562   9.660 -0.52 +0.00    +0.101 C  
DOCKED: ENDROOT
DOCKED: BRANCH   2  12
DOCKED: ATOM     12  C   UNL     1     -36.621 -10.285  14.641 -0.12 +0.00    +0.038 C  
DOCKED: BRANCH  12  13
DOCKED: ATOM     13  C   UNL     1     -37.167  -9.112  13.829 -0.14 +0.00    +0.038 C  
DOCKED: BRANCH  13  14
DOCKED: ATOM     14  C   UNL     1     -36.589  -9.105  12.416 -0.15 +0.00    +0.251 C  
DOCKED: BRANCH  14  15
DOCKED: ATOM     15  N   UNL     1     -35.837  -7.877  12.181 -0.14 +0.00    +0.141 N  
DOCKED: ATOM     16  C   UNL     1     -35.426  -7.274  13.450 -0.04 +0.00    +0.285 C  
DOCKED: ATOM     17  C   UNL     1     -34.667  -8.142  11.342 -0.10 +0.00    +0.285 C  
DOCKED: ENDBRANCH  14  15
DOCKED: ENDBRANCH  13  14
DOCKED: ENDBRANCH  12  13
DOCKED: ENDBRANCH   2  12
DOCKED: BRANCH   2  18
DOCKED: ATOM     18  C   UNL     1     -37.250 -12.420  15.753 -0.14 +0.00    +0.006 A  
DOCKED: ATOM     19  C   UNL     1     -38.089 -13.500  16.022 -0.21 +0.00    +0.001 A  
DOCKED: ATOM     20  C   UNL     1     -37.744 -14.419  17.015 -0.14 +0.00    +0.029 A  
DOCKED: ATOM     21  C   UNL     1     -36.562 -14.255  17.736 -0.18 +0.00    +0.140 A  
DOCKED: ATOM     22  C   UNL     1     -35.723 -13.174  17.466 -0.11 +0.00    +0.029 A  
DOCKED: ATOM     23  F   UNL     1     -36.230 -15.138  18.687 -0.07 -0.00    -0.204 F  
DOCKED: ATOM     24  C   UNL     1     -36.067 -12.255  16.473 -0.12 +0.00    +0.001 A  
DOCKED: ENDBRANCH   2  18
DOCKED: TORSDOF 5
DOCKED: TER
DOCKED: ENDMDL
________________________________________________________________________________


    FINAL DOCKED STATE:
    ________________________


Run:   210 / 512
Time taken for this run:   0.002s

DOCKED: MODEL        210
DOCKED: USER    Run = 210
DOCKED: USER
DOCKED: USER    Estimated Free Energy of Binding    =  -6.21 kcal/mol  [=(1)+(2)+(3)-(4)]
DOCKED: USER
DOCKED: USER    (1) Final Intermolecular Energy     =  -7.70 kcal/mol
DOCKED: USER        vdW + Hbond + desolv Energy     =  -7.70 kcal/mol
DOCKED: USER        Electrostatic Energy            =  +0.00 kcal/mol
DOCKED: USER        Moving Ligand-Fixed Receptor    =  -7.70 kcal/mol
DOCKED: USER        Moving Ligand-Moving Receptor   =  +0.00 kcal/mol
DOCKED: USER    (2) Final Total Internal Energy     =  -1.12 kcal/mol
DOCKED: USER    (3) Torsional Free Energy           =  +1.49 kcal/mol
DOCKED: USER    (4) Unbound System's Energy         =  -1.12 kcal/mol
DOCKED: USER
DOCKED: USER
DOCKED: REMARK  5 active torsions:
DOCKED: REMARK  status: ('A' for Active; 'I' for Inactive)
DOCKED: REMARK    1  A    between atoms: C_2  and  C_19 
DOCKED: REMARK    2  A    between atoms: C_2  and  C_11 
DOCKED: REMARK    3  A    between atoms: C_19  and  C_20 
DOCKED: REMARK    4  A    between atoms: C_20  and  C_21 
DOCKED: REMARK    5  A    between atoms: C_21  and  N_22 
DOCKED: USER                              x       y       z     vdW  Elec       q    Type
DOCKED: USER                           _______ _______ _______ _____ _____    ______ ____
DOCKED: ROOT
DOCKED: ATOM      1  O   UNL     1     -36.786 -14.052  13.689 -0.40 -0.00    -0.346 OA 
DOCKED: ATOM      2  C   UNL     1     -38.095 -13.423  13.868 -0.25 +0.00    +0.130 C  
DOCKED: ATOM      3  C   UNL     1     -38.638 -13.322  12.472 -0.33 +0.00    +0.004 A  
DOCKED: ATOM      4  C   UNL     1     -37.767 -13.939  11.586 -0.41 +0.00    +0.006 A  
DOCKED: ATOM      5  C   UNL     1     -36.610 -14.494  12.323 -0.22 +0.00    +0.169 C  
DOCKED: ATOM      6  C   UNL     1     -39.816 -12.741  12.024 -0.30 -0.00    -0.001 A  
DOCKED: ATOM      7  C   UNL     1     -38.037 -13.993  10.229 -0.36 +0.00    +0.008 A  
DOCKED: ATOM      8  C   UNL     1     -40.100 -12.783  10.658 -0.34 +0.00    +0.010 A  
DOCKED: ATOM      9  C   UNL     1     -39.215 -13.406   9.765 -0.45 +0.00    +0.068 A  
DOCKED: ATOM     10  N   UNL     1     -39.776 -13.471   7.237 -3.15 -0.00    -0.191 NA 
DOCKED: ATOM     11  C   UNL     1     -39.524 -13.441   8.371 -0.28 +0.00    +0.101 C  
DOCKED: ENDROOT
DOCKED: BRANCH   2  12
DOCKED: ATOM     12  C   UNL     1     -38.940 -14.314  14.771 -0.24 +0.00    +0.038 C  
DOCKED: BRANCH  12  13
DOCKED: ATOM     13  C   UNL     1     -40.406 -13.887  14.760 -0.24 +0.00    +0.038 C  
DOCKED: BRANCH  13  14
DOCKED: ATOM     14  C   UNL     1     -40.945 -13.739  16.182 -0.08 +0.00    +0.251 C  
DOCKED: BRANCH  14  15
DOCKED: ATOM     15  N   UNL     1     -41.909 -12.647  16.248 -0.05 +0.00    +0.141 N  
DOCKED: ATOM     16  C   UNL     1     -41.441 -11.601  17.158 +0.00 +0.00    +0.285 C  
DOCKED: ATOM     17  C   UNL     1     -42.150 -12.091  14.916 -0.03 +0.00    +0.285 C  
DOCKED: ENDBRANCH  14  15
DOCKED: ENDBRANCH  13  14
DOCKED: ENDBRANCH  12  13
DOCKED: ENDBRANCH   2  12
DOCKED: BRANCH   2  18
DOCKED: ATOM     18  C   UNL     1     -37.857 -12.091  14.497 -0.16 +0.00    +0.006 A  
DOCKED: ATOM     19  C   UNL     1     -38.360 -10.937  13.897 -0.15 +0.00    +0.001 A  
DOCKED: ATOM     20  C   UNL     1     -38.136  -9.692  14.486 -0.08 +0.00    +0.029 A  
DOCKED: ATOM     21  C   UNL     1     -37.410  -9.603  15.673 -0.02 +0.00    +0.140 A  
DOCKED: ATOM     22  C   UNL     1     -36.908 -10.757  16.272 -0.05 +0.00    +0.029 A  
DOCKED: ATOM     23  F   UNL     1     -37.197  -8.408  16.239 +0.00 -0.00    -0.204 F  
DOCKED: ATOM     24  C   UNL     1     -37.131 -12.003  15.684 -0.12 +0.00    +0.001 A  
DOCKED: ENDBRANCH   2  18
DOCKED: TORSDOF 5
DOCKED: TER
DOCKED: ENDMDL
________________________________________________________________________________


    FINAL DOCKED STATE:
    ________________________


Run:   211 / 512
Time taken for this run:   0.002s

DOCKED: MODEL        211
DOCKED: USER    Run = 211
DOCKED: USER
DOCKED: USER    Estimated Free Energy of Binding    =  -4.16 kcal/mol  [=(1)+(2)+(3)-(4)]
DOCKED: USER
DOCKED: USER    (1) Final Intermolecular Energy     =  -5.65 kcal/mol
DOCKED: USER        vdW + Hbond + desolv Energy     =  -5.65 kcal/mol
DOCKED: USER        Electrostatic Energy            =  +0.00 kcal/mol
DOCKED: USER        Moving Ligand-Fixed Receptor    =  -5.65 kcal/mol
DOCKED: USER        Moving Ligand-Moving Receptor   =  +0.00 kcal/mol
DOCKED: USER    (2) Final Total Internal Energy     =  -1.33 kcal/mol
DOCKED: USER    (3) Torsional Free Energy           =  +1.49 kcal/mol
DOCKED: USER    (4) Unbound System's Energy         =  -1.33 kcal/mol
DOCKED: USER
DOCKED: USER
DOCKED: REMARK  5 active torsions:
DOCKED: REMARK  status: ('A' for Active; 'I' for Inactive)
DOCKED: REMARK    1  A    between atoms: C_2  and  C_19 
DOCKED: REMARK    2  A    between atoms: C_2  and  C_11 
DOCKED: REMARK    3  A    between atoms: C_19  and  C_20 
DOCKED: REMARK    4  A    between atoms: C_20  and  C_21 
DOCKED: REMARK    5  A    between atoms: C_21  and  N_22 
DOCKED: USER                              x       y       z     vdW  Elec       q    Type
DOCKED: USER                           _______ _______ _______ _____ _____    ______ ____
DOCKED: ROOT
DOCKED: ATOM      1  O   UNL     1     -34.958 -10.664  15.131 -0.05 -0.00    -0.346 OA 
DOCKED: ATOM      2  C   UNL     1     -35.602  -9.778  14.161 -0.12 +0.00    +0.130 C  
DOCKED: ATOM      3  C   UNL     1     -36.522 -10.687  13.399 -0.21 +0.00    +0.004 A  
DOCKED: ATOM      4  C   UNL     1     -36.491 -11.957  13.957 -0.24 +0.00    +0.006 A  
DOCKED: ATOM      5  C   UNL     1     -35.572 -11.974  15.116 -0.13 +0.00    +0.169 C  
DOCKED: ATOM      6  C   UNL     1     -37.332 -10.409  12.307 -0.26 -0.00    -0.001 A  
DOCKED: ATOM      7  C   UNL     1     -37.259 -12.988  13.443 -0.32 +0.00    +0.008 A  
DOCKED: ATOM      8  C   UNL     1     -38.108 -11.439  11.775 -0.34 +0.00    +0.010 A  
DOCKED: ATOM      9  C   UNL     1     -38.072 -12.722  12.341 -0.31 +0.00    +0.068 A  
DOCKED: ATOM     10  N   UNL     1     -39.531 -14.612  11.332 -2.55 -0.00    -0.191 NA 
DOCKED: ATOM     11  C   UNL     1     -38.876 -13.764  11.784 -0.36 +0.00    +0.101 C  
DOCKED: ENDROOT
DOCKED: BRANCH   2  12
DOCKED: ATOM     12  C   UNL     1     -36.343  -8.685  14.922 -0.06 +0.00    +0.038 C  
DOCKED: BRANCH  12  13
DOCKED: ATOM     13  C   UNL     1     -37.689  -9.184  15.443 -0.04 +0.00    +0.038 C  
DOCKED: BRANCH  13  14
DOCKED: ATOM     14  C   UNL     1     -37.724  -9.179  16.970 -0.00 +0.00    +0.251 C  
DOCKED: BRANCH  14  15
DOCKED: ATOM     15  N   UNL     1     -36.393  -9.431  17.509 -0.01 +0.00    +0.141 N  
DOCKED: ATOM     16  C   UNL     1     -35.864  -8.231  18.159 -0.00 +0.00    +0.285 C  
DOCKED: ATOM     17  C   UNL     1     -36.423 -10.549  18.453 -0.01 +0.00    +0.285 C  
DOCKED: ENDBRANCH  14  15
DOCKED: ENDBRANCH  13  14
DOCKED: ENDBRANCH  12  13
DOCKED: ENDBRANCH   2  12
DOCKED: BRANCH   2  18
DOCKED: ATOM     18  C   UNL     1     -34.519  -9.202  13.311 -0.11 +0.00    +0.006 A  
DOCKED: ATOM     19  C   UNL     1     -34.825  -8.240  12.349 -0.15 +0.00    +0.001 A  
DOCKED: ATOM     20  C   UNL     1     -33.812  -7.703  11.555 -0.11 +0.00    +0.029 A  
DOCKED: ATOM     21  C   UNL     1     -32.494  -8.126  11.724 -0.07 +0.00    +0.140 A  
DOCKED: ATOM     22  C   UNL     1     -32.189  -9.088  12.686 -0.10 +0.00    +0.029 A  
DOCKED: ATOM     23  F   UNL     1     -31.521  -7.609  10.963 -0.01 -0.00    -0.204 F  
DOCKED: ATOM     24  C   UNL     1     -33.202  -9.627  13.481 -0.09 +0.00    +0.001 A  
DOCKED: ENDBRANCH   2  18
DOCKED: TORSDOF 5
DOCKED: TER
DOCKED: ENDMDL
________________________________________________________________________________


    FINAL DOCKED STATE:
    ________________________


Run:   212 / 512
Time taken for this run:   0.002s

DOCKED: MODEL        212
DOCKED: USER    Run = 212
DOCKED: USER
DOCKED: USER    Estimated Free Energy of Binding    =  -4.71 kcal/mol  [=(1)+(2)+(3)-(4)]
DOCKED: USER
DOCKED: USER    (1) Final Intermolecular Energy     =  -6.20 kcal/mol
DOCKED: USER        vdW + Hbond + desolv Energy     =  -6.20 kcal/mol
DOCKED: USER        Electrostatic Energy            =  +0.00 kcal/mol
DOCKED: USER        Moving Ligand-Fixed Receptor    =  -6.20 kcal/mol
DOCKED: USER        Moving Ligand-Moving Receptor   =  +0.00 kcal/mol
DOCKED: USER    (2) Final Total Internal Energy     =  -1.08 kcal/mol
DOCKED: USER    (3) Torsional Free Energy           =  +1.49 kcal/mol
DOCKED: USER    (4) Unbound System's Energy         =  -1.08 kcal/mol
DOCKED: USER
DOCKED: USER
DOCKED: REMARK  5 active torsions:
DOCKED: REMARK  status: ('A' for Active; 'I' for Inactive)
DOCKED: REMARK    1  A    between atoms: C_2  and  C_19 
DOCKED: REMARK    2  A    between atoms: C_2  and  C_11 
DOCKED: REMARK    3  A    between atoms: C_19  and  C_20 
DOCKED: REMARK    4  A    between atoms: C_20  and  C_21 
DOCKED: REMARK    5  A    between atoms: C_21  and  N_22 
DOCKED: USER                              x       y       z     vdW  Elec       q    Type
DOCKED: USER                           _______ _______ _______ _____ _____    ______ ____
DOCKED: ROOT
DOCKED: ATOM      1  O   UNL     1     -35.487  -4.805   6.879 -0.09 -0.00    -0.346 OA 
DOCKED: ATOM      2  C   UNL     1     -34.174  -4.561   6.281 -0.17 +0.00    +0.130 C  
DOCKED: ATOM      3  C   UNL     1     -34.488  -3.822   5.012 -0.25 +0.00    +0.004 A  
DOCKED: ATOM      4  C   UNL     1     -35.850  -3.567   4.946 -0.26 +0.00    +0.006 A  
DOCKED: ATOM      5  C   UNL     1     -36.521  -4.101   6.152 -0.10 +0.00    +0.169 C  
DOCKED: ATOM      6  C   UNL     1     -33.635  -3.398   4.004 -0.21 -0.00    -0.001 A  
DOCKED: ATOM      7  C   UNL     1     -36.405  -2.889   3.874 -0.37 +0.00    +0.008 A  
DOCKED: ATOM      8  C   UNL     1     -34.179  -2.716   2.914 -0.27 +0.00    +0.010 A  
DOCKED: ATOM      9  C   UNL     1     -35.557  -2.463   2.850 -0.30 +0.00    +0.068 A  
DOCKED: ATOM     10  N   UNL     1     -36.535  -1.190   0.816 -2.46 -0.00    -0.191 NA 
DOCKED: ATOM     11  C   UNL     1     -36.097  -1.761   1.728 -0.40 +0.00    +0.101 C  
DOCKED: ENDROOT
DOCKED: BRANCH   2  12
DOCKED: ATOM     12  C   UNL     1     -33.343  -3.738   7.258 -0.17 +0.00    +0.038 C  
DOCKED: BRANCH  12  13
DOCKED: ATOM     13  C   UNL     1     -33.118  -4.489   8.569 -0.11 +0.00    +0.038 C  
DOCKED: BRANCH  13  14
DOCKED: ATOM     14  C   UNL     1     -34.185  -4.125   9.600 -0.09 +0.00    +0.251 C  
DOCKED: BRANCH  14  15
DOCKED: ATOM     15  N   UNL     1     -34.026  -4.937  10.801 -0.03 +0.00    +0.141 N  
DOCKED: ATOM     16  C   UNL     1     -35.295  -5.042  11.524 -0.03 +0.00    +0.285 C  
DOCKED: ATOM     17  C   UNL     1     -33.525  -6.269  10.460 -0.04 +0.00    +0.285 C  
DOCKED: ENDBRANCH  14  15
DOCKED: ENDBRANCH  13  14
DOCKED: ENDBRANCH  12  13
DOCKED: ENDBRANCH   2  12
DOCKED: BRANCH   2  18
DOCKED: ATOM     18  C   UNL     1     -33.551  -5.896   6.037 -0.12 +0.00    +0.006 A  
DOCKED: ATOM     19  C   UNL     1     -33.915  -6.988   6.822 -0.16 +0.00    +0.001 A  
DOCKED: ATOM     20  C   UNL     1     -33.332  -8.235   6.593 -0.19 +0.00    +0.029 A  
DOCKED: ATOM     21  C   UNL     1     -32.387  -8.388   5.580 -0.14 +0.00    +0.140 A  
DOCKED: ATOM     22  C   UNL     1     -32.023  -7.294   4.795 -0.09 +0.00    +0.029 A  
DOCKED: ATOM     23  F   UNL     1     -31.829  -9.585   5.359 -0.06 -0.00    -0.204 F  
DOCKED: ATOM     24  C   UNL     1     -32.606  -6.046   5.023 -0.09 +0.00    +0.001 A  
DOCKED: ENDBRANCH   2  18
DOCKED: TORSDOF 5
DOCKED: TER
DOCKED: ENDMDL
________________________________________________________________________________


    FINAL DOCKED STATE:
    ________________________


Run:   213 / 512
Time taken for this run:   0.002s

DOCKED: MODEL        213
DOCKED: USER    Run = 213
DOCKED: USER
DOCKED: USER    Estimated Free Energy of Binding    =  -4.12 kcal/mol  [=(1)+(2)+(3)-(4)]
DOCKED: USER
DOCKED: USER    (1) Final Intermolecular Energy     =  -5.61 kcal/mol
DOCKED: USER        vdW + Hbond + desolv Energy     =  -5.61 kcal/mol
DOCKED: USER        Electrostatic Energy            =  +0.00 kcal/mol
DOCKED: USER        Moving Ligand-Fixed Receptor    =  -5.61 kcal/mol
DOCKED: USER        Moving Ligand-Moving Receptor   =  +0.00 kcal/mol
DOCKED: USER    (2) Final Total Internal Energy     =  -1.20 kcal/mol
DOCKED: USER    (3) Torsional Free Energy           =  +1.49 kcal/mol
DOCKED: USER    (4) Unbound System's Energy         =  -1.20 kcal/mol
DOCKED: USER
DOCKED: USER
DOCKED: REMARK  5 active torsions:
DOCKED: REMARK  status: ('A' for Active; 'I' for Inactive)
DOCKED: REMARK    1  A    between atoms: C_2  and  C_19 
DOCKED: REMARK    2  A    between atoms: C_2  and  C_11 
DOCKED: REMARK    3  A    between atoms: C_19  and  C_20 
DOCKED: REMARK    4  A    between atoms: C_20  and  C_21 
DOCKED: REMARK    5  A    between atoms: C_21  and  N_22 
DOCKED: USER                              x       y       z     vdW  Elec       q    Type
DOCKED: USER                           _______ _______ _______ _____ _____    ______ ____
DOCKED: ROOT
DOCKED: ATOM      1  O   UNL     1     -29.456  -9.387   6.662 +0.01 -0.00    -0.346 OA 
DOCKED: ATOM      2  C   UNL     1     -30.911  -9.256   6.740 -0.06 +0.00    +0.130 C  
DOCKED: ATOM      3  C   UNL     1     -31.352 -10.531   7.399 -0.15 +0.00    +0.004 A  
DOCKED: ATOM      4  C   UNL     1     -30.241 -11.276   7.766 -0.09 +0.00    +0.006 A  
DOCKED: ATOM      5  C   UNL     1     -29.005 -10.551   7.393 -0.02 +0.00    +0.169 C  
DOCKED: ATOM      6  C   UNL     1     -32.635 -10.989   7.663 -0.31 -0.00    -0.001 A  
DOCKED: ATOM      7  C   UNL     1     -30.370 -12.499   8.401 -0.16 +0.00    +0.008 A  
DOCKED: ATOM      8  C   UNL     1     -32.783 -12.223   8.299 -0.24 +0.00    +0.010 A  
DOCKED: ATOM      9  C   UNL     1     -31.656 -12.973   8.667 -0.29 +0.00    +0.068 A  
DOCKED: ATOM     10  N   UNL     1     -31.965 -15.257   9.851 -2.48 -0.00    -0.191 NA 
DOCKED: ATOM     11  C   UNL     1     -31.827 -14.233   9.319 -0.34 +0.00    +0.101 C  
DOCKED: ENDROOT
DOCKED: BRANCH   2  12
DOCKED: ATOM     12  C   UNL     1     -31.240  -8.017   7.565 -0.04 +0.00    +0.038 C  
DOCKED: BRANCH  12  13
DOCKED: ATOM     13  C   UNL     1     -31.360  -8.352   9.050 -0.07 +0.00    +0.038 C  
DOCKED: BRANCH  13  14
DOCKED: ATOM     14  C   UNL     1     -32.031  -7.215   9.818 -0.03 +0.00    +0.251 C  
DOCKED: BRANCH  14  15
DOCKED: ATOM     15  N   UNL     1     -33.144  -7.725  10.610 -0.09 +0.00    +0.141 N  
DOCKED: ATOM     16  C   UNL     1     -34.249  -8.136   9.742 -0.09 +0.00    +0.285 C  
DOCKED: ATOM     17  C   UNL     1     -32.711  -8.846  11.445 -0.04 +0.00    +0.285 C  
DOCKED: ENDBRANCH  14  15
DOCKED: ENDBRANCH  13  14
DOCKED: ENDBRANCH  12  13
DOCKED: ENDBRANCH   2  12
DOCKED: BRANCH   2  18
DOCKED: ATOM     18  C   UNL     1     -31.413  -9.120   5.341 -0.12 +0.00    +0.006 A  
DOCKED: ATOM     19  C   UNL     1     -30.741  -9.754   4.296 -0.12 +0.00    +0.001 A  
DOCKED: ATOM     20  C   UNL     1     -31.211  -9.626   2.988 -0.16 +0.00    +0.029 A  
DOCKED: ATOM     21  C   UNL     1     -32.351  -8.867   2.728 -0.21 +0.00    +0.140 A  
DOCKED: ATOM     22  C   UNL     1     -33.022  -8.234   3.774 -0.19 +0.00    +0.029 A  
DOCKED: ATOM     23  F   UNL     1     -32.803  -8.746   1.473 -0.11 -0.00    -0.204 F  
DOCKED: ATOM     24  C   UNL     1     -32.553  -8.361   5.082 -0.18 +0.00    +0.001 A  
DOCKED: ENDBRANCH   2  18
DOCKED: TORSDOF 5
DOCKED: TER
DOCKED: ENDMDL
________________________________________________________________________________


    FINAL DOCKED STATE:
    ________________________


Run:   214 / 512
Time taken for this run:   0.002s

DOCKED: MODEL        214
DOCKED: USER    Run = 214
DOCKED: USER
DOCKED: USER    Estimated Free Energy of Binding    =  -4.50 kcal/mol  [=(1)+(2)+(3)-(4)]
DOCKED: USER
DOCKED: USER    (1) Final Intermolecular Energy     =  -5.99 kcal/mol
DOCKED: USER        vdW + Hbond + desolv Energy     =  -5.99 kcal/mol
DOCKED: USER        Electrostatic Energy            =  +0.00 kcal/mol
DOCKED: USER        Moving Ligand-Fixed Receptor    =  -5.99 kcal/mol
DOCKED: USER        Moving Ligand-Moving Receptor   =  +0.00 kcal/mol
DOCKED: USER    (2) Final Total Internal Energy     =  -1.07 kcal/mol
DOCKED: USER    (3) Torsional Free Energy           =  +1.49 kcal/mol
DOCKED: USER    (4) Unbound System's Energy         =  -1.07 kcal/mol
DOCKED: USER
DOCKED: USER
DOCKED: REMARK  5 active torsions:
DOCKED: REMARK  status: ('A' for Active; 'I' for Inactive)
DOCKED: REMARK    1  A    between atoms: C_2  and  C_19 
DOCKED: REMARK    2  A    between atoms: C_2  and  C_11 
DOCKED: REMARK    3  A    between atoms: C_19  and  C_20 
DOCKED: REMARK    4  A    between atoms: C_20  and  C_21 
DOCKED: REMARK    5  A    between atoms: C_21  and  N_22 
DOCKED: USER                              x       y       z     vdW  Elec       q    Type
DOCKED: USER                           _______ _______ _______ _____ _____    ______ ____
DOCKED: ROOT
DOCKED: ATOM      1  O   UNL     1     -35.949  -4.488   7.334 -0.11 -0.00    -0.346 OA 
DOCKED: ATOM      2  C   UNL     1     -34.599  -4.369   6.783 -0.19 +0.00    +0.130 C  
DOCKED: ATOM      3  C   UNL     1     -34.815  -3.735   5.439 -0.24 +0.00    +0.004 A  
DOCKED: ATOM      4  C   UNL     1     -36.156  -3.418   5.282 -0.15 +0.00    +0.006 A  
DOCKED: ATOM      5  C   UNL     1     -36.909  -3.802   6.497 -0.04 +0.00    +0.169 C  
DOCKED: ATOM      6  C   UNL     1     -33.895  -3.451   4.440 -0.22 -0.00    -0.001 A  
DOCKED: ATOM      7  C   UNL     1     -36.624  -2.814   4.127 -0.24 +0.00    +0.008 A  
DOCKED: ATOM      8  C   UNL     1     -34.351  -2.846   3.268 -0.28 +0.00    +0.010 A  
DOCKED: ATOM      9  C   UNL     1     -35.709  -2.529   3.113 -0.34 +0.00    +0.068 A  
DOCKED: ATOM     10  N   UNL     1     -36.522  -1.401   0.926 -2.43 -0.00    -0.191 NA 
DOCKED: ATOM     11  C   UNL     1     -36.157  -1.908   1.906 -0.35 +0.00    +0.101 C  
DOCKED: ENDROOT
DOCKED: BRANCH   2  12
DOCKED: ATOM     12  C   UNL     1     -33.769  -3.502   7.721 -0.15 +0.00    +0.038 C  
DOCKED: BRANCH  12  13
DOCKED: ATOM     13  C   UNL     1     -34.604  -2.993   8.895 -0.16 +0.00    +0.038 C  
DOCKED: BRANCH  13  14
DOCKED: ATOM     14  C   UNL     1     -33.744  -2.810  10.143 -0.08 +0.00    +0.251 C  
DOCKED: BRANCH  14  15
DOCKED: ATOM     15  N   UNL     1     -34.215  -3.679  11.216 -0.04 +0.00    +0.141 N  
DOCKED: ATOM     16  C   UNL     1     -33.535  -3.363  12.472 -0.02 +0.00    +0.285 C  
DOCKED: ATOM     17  C   UNL     1     -35.664  -3.557  11.378 -0.03 +0.00    +0.285 C  
DOCKED: ENDBRANCH  14  15
DOCKED: ENDBRANCH  13  14
DOCKED: ENDBRANCH  12  13
DOCKED: ENDBRANCH   2  12
DOCKED: BRANCH   2  18
DOCKED: ATOM     18  C   UNL     1     -34.042  -5.750   6.691 -0.14 +0.00    +0.006 A  
DOCKED: ATOM     19  C   UNL     1     -32.683  -5.938   6.444 -0.06 +0.00    +0.001 A  
DOCKED: ATOM     20  C   UNL     1     -32.163  -7.231   6.359 -0.06 +0.00    +0.029 A  
DOCKED: ATOM     21  C   UNL     1     -33.002  -8.332   6.520 -0.15 +0.00    +0.140 A  
DOCKED: ATOM     22  C   UNL     1     -34.362  -8.143   6.768 -0.22 +0.00    +0.029 A  
DOCKED: ATOM     23  F   UNL     1     -32.503  -9.572   6.440 -0.07 -0.00    -0.204 F  
DOCKED: ATOM     24  C   UNL     1     -34.883  -6.851   6.853 -0.22 +0.00    +0.001 A  
DOCKED: ENDBRANCH   2  18
DOCKED: TORSDOF 5
DOCKED: TER
DOCKED: ENDMDL
________________________________________________________________________________


    FINAL DOCKED STATE:
    ________________________


Run:   215 / 512
Time taken for this run:   0.002s

DOCKED: MODEL        215
DOCKED: USER    Run = 215
DOCKED: USER
DOCKED: USER    Estimated Free Energy of Binding    =  -5.61 kcal/mol  [=(1)+(2)+(3)-(4)]
DOCKED: USER
DOCKED: USER    (1) Final Intermolecular Energy     =  -7.10 kcal/mol
DOCKED: USER        vdW + Hbond + desolv Energy     =  -7.10 kcal/mol
DOCKED: USER        Electrostatic Energy            =  +0.00 kcal/mol
DOCKED: USER        Moving Ligand-Fixed Receptor    =  -7.10 kcal/mol
DOCKED: USER        Moving Ligand-Moving Receptor   =  +0.00 kcal/mol
DOCKED: USER    (2) Final Total Internal Energy     =  -1.27 kcal/mol
DOCKED: USER    (3) Torsional Free Energy           =  +1.49 kcal/mol
DOCKED: USER    (4) Unbound System's Energy         =  -1.27 kcal/mol
DOCKED: USER
DOCKED: USER
DOCKED: REMARK  5 active torsions:
DOCKED: REMARK  status: ('A' for Active; 'I' for Inactive)
DOCKED: REMARK    1  A    between atoms: C_2  and  C_19 
DOCKED: REMARK    2  A    between atoms: C_2  and  C_11 
DOCKED: REMARK    3  A    between atoms: C_19  and  C_20 
DOCKED: REMARK    4  A    between atoms: C_20  and  C_21 
DOCKED: REMARK    5  A    between atoms: C_21  and  N_22 
DOCKED: USER                              x       y       z     vdW  Elec       q    Type
DOCKED: USER                           _______ _______ _______ _____ _____    ______ ____
DOCKED: ROOT
DOCKED: ATOM      1  O   UNL     1     -36.814 -13.379  13.778 -0.18 -0.00    -0.346 OA 
DOCKED: ATOM      2  C   UNL     1     -38.140 -12.767  13.865 -0.20 +0.00    +0.130 C  
DOCKED: ATOM      3  C   UNL     1     -38.677 -12.872  12.466 -0.32 +0.00    +0.004 A  
DOCKED: ATOM      4  C   UNL     1     -37.784 -13.580  11.675 -0.43 +0.00    +0.006 A  
DOCKED: ATOM      5  C   UNL     1     -36.618 -13.998  12.485 -0.24 +0.00    +0.169 C  
DOCKED: ATOM      6  C   UNL     1     -39.866 -12.389  11.940 -0.30 -0.00    -0.001 A  
DOCKED: ATOM      7  C   UNL     1     -38.044 -13.825  10.338 -0.38 +0.00    +0.008 A  
DOCKED: ATOM      8  C   UNL     1     -40.140 -12.624  10.591 -0.29 +0.00    +0.010 A  
DOCKED: ATOM      9  C   UNL     1     -39.234 -13.339   9.795 -0.44 +0.00    +0.068 A  
DOCKED: ATOM     10  N   UNL     1     -39.776 -13.762   7.297 -2.85 -0.00    -0.191 NA 
DOCKED: ATOM     11  C   UNL     1     -39.533 -13.572   8.417 -0.29 +0.00    +0.101 C  
DOCKED: ENDROOT
DOCKED: BRANCH   2  12
DOCKED: ATOM     12  C   UNL     1     -38.968 -13.549  14.878 -0.25 +0.00    +0.038 C  
DOCKED: BRANCH  12  13
DOCKED: ATOM     13  C   UNL     1     -38.076 -14.328  15.842 -0.09 +0.00    +0.038 C  
DOCKED: BRANCH  13  14
DOCKED: ATOM     14  C   UNL     1     -37.295 -13.383  16.754 -0.14 +0.00    +0.251 C  
DOCKED: BRANCH  14  15
DOCKED: ATOM     15  N   UNL     1     -38.040 -13.132  17.981 -0.08 +0.00    +0.141 N  
DOCKED: ATOM     16  C   UNL     1     -38.990 -12.034  17.793 -0.02 +0.00    +0.285 C  
DOCKED: ATOM     17  C   UNL     1     -38.743 -14.341  18.415 -0.09 +0.00    +0.285 C  
DOCKED: ENDBRANCH  14  15
DOCKED: ENDBRANCH  13  14
DOCKED: ENDBRANCH  12  13
DOCKED: ENDBRANCH   2  12
DOCKED: BRANCH   2  18
DOCKED: ATOM     18  C   UNL     1     -37.941 -11.356  14.307 -0.13 +0.00    +0.006 A  
DOCKED: ATOM     19  C   UNL     1     -39.045 -10.537  14.544 -0.09 +0.00    +0.001 A  
DOCKED: ATOM     20  C   UNL     1     -38.857  -9.218  14.957 -0.05 +0.00    +0.029 A  
DOCKED: ATOM     21  C   UNL     1     -37.567  -8.719  15.133 -0.03 +0.00    +0.140 A  
DOCKED: ATOM     22  C   UNL     1     -36.464  -9.538  14.896 -0.07 +0.00    +0.029 A  
DOCKED: ATOM     23  F   UNL     1     -37.387  -7.453  15.531 +0.00 -0.00    -0.204 F  
DOCKED: ATOM     24  C   UNL     1     -36.650 -10.858  14.482 -0.15 +0.00    +0.001 A  
DOCKED: ENDBRANCH   2  18
DOCKED: TORSDOF 5
DOCKED: TER
DOCKED: ENDMDL
________________________________________________________________________________


    FINAL DOCKED STATE:
    ________________________


Run:   216 / 512
Time taken for this run:   0.002s

DOCKED: MODEL        216
DOCKED: USER    Run = 216
DOCKED: USER
DOCKED: USER    Estimated Free Energy of Binding    =  -3.43 kcal/mol  [=(1)+(2)+(3)-(4)]
DOCKED: USER
DOCKED: USER    (1) Final Intermolecular Energy     =  -4.92 kcal/mol
DOCKED: USER        vdW + Hbond + desolv Energy     =  -4.92 kcal/mol
DOCKED: USER        Electrostatic Energy            =  +0.00 kcal/mol
DOCKED: USER        Moving Ligand-Fixed Receptor    =  -4.92 kcal/mol
DOCKED: USER        Moving Ligand-Moving Receptor   =  +0.00 kcal/mol
DOCKED: USER    (2) Final Total Internal Energy     =  -1.37 kcal/mol
DOCKED: USER    (3) Torsional Free Energy           =  +1.49 kcal/mol
DOCKED: USER    (4) Unbound System's Energy         =  -1.37 kcal/mol
DOCKED: USER
DOCKED: USER
DOCKED: REMARK  5 active torsions:
DOCKED: REMARK  status: ('A' for Active; 'I' for Inactive)
DOCKED: REMARK    1  A    between atoms: C_2  and  C_19 
DOCKED: REMARK    2  A    between atoms: C_2  and  C_11 
DOCKED: REMARK    3  A    between atoms: C_19  and  C_20 
DOCKED: REMARK    4  A    between atoms: C_20  and  C_21 
DOCKED: REMARK    5  A    between atoms: C_21  and  N_22 
DOCKED: USER                              x       y       z     vdW  Elec       q    Type
DOCKED: USER                           _______ _______ _______ _____ _____    ______ ____
DOCKED: ROOT
DOCKED: ATOM      1  O   UNL     1     -30.981   0.375   4.318 -0.03 -0.00    -0.346 OA 
DOCKED: ATOM      2  C   UNL     1     -30.654  -0.754   3.447 -0.06 +0.00    +0.130 C  
DOCKED: ATOM      3  C   UNL     1     -31.977  -1.148   2.857 -0.13 +0.00    +0.004 A  
DOCKED: ATOM      4  C   UNL     1     -32.956  -0.255   3.268 -0.20 +0.00    +0.006 A  
DOCKED: ATOM      5  C   UNL     1     -32.356   0.784   4.135 -0.21 +0.00    +0.169 C  
DOCKED: ATOM      6  C   UNL     1     -32.287  -2.206   2.015 -0.11 -0.00    -0.001 A  
DOCKED: ATOM      7  C   UNL     1     -34.272  -0.389   2.858 -0.20 +0.00    +0.008 A  
DOCKED: ATOM      8  C   UNL     1     -33.610  -2.357   1.596 -0.24 +0.00    +0.010 A  
DOCKED: ATOM      9  C   UNL     1     -34.597  -1.453   2.016 -0.35 +0.00    +0.068 A  
DOCKED: ATOM     10  N   UNL     1     -37.043  -1.760   1.217 -2.50 -0.00    -0.191 NA 
DOCKED: ATOM     11  C   UNL     1     -35.946  -1.622   1.576 -0.39 +0.00    +0.101 C  
DOCKED: ENDROOT
DOCKED: BRANCH   2  12
DOCKED: ATOM     12  C   UNL     1     -29.654  -0.280   2.398 -0.05 +0.00    +0.038 C  
DOCKED: BRANCH  12  13
DOCKED: ATOM     13  C   UNL     1     -30.265   0.781   1.486 -0.11 +0.00    +0.038 C  
DOCKED: BRANCH  13  14
DOCKED: ATOM     14  C   UNL     1     -30.000   0.461   0.016 -0.01 +0.00    +0.251 C  
DOCKED: BRANCH  14  15
DOCKED: ATOM     15  N   UNL     1     -30.662  -0.782  -0.360 -0.07 +0.00    +0.141 N  
DOCKED: ATOM     16  C   UNL     1     -31.524  -0.577  -1.525 -0.07 +0.00    +0.285 C  
DOCKED: ATOM     17  C   UNL     1     -29.676  -1.828  -0.636 +0.00 +0.00    +0.285 C  
DOCKED: ENDBRANCH  14  15
DOCKED: ENDBRANCH  13  14
DOCKED: ENDBRANCH  12  13
DOCKED: ENDBRANCH   2  12
DOCKED: BRANCH   2  18
DOCKED: ATOM     18  C   UNL     1     -30.063  -1.816   4.312 -0.04 +0.00    +0.006 A  
DOCKED: ATOM     19  C   UNL     1     -28.809  -2.345   4.009 -0.01 +0.00    +0.001 A  
DOCKED: ATOM     20  C   UNL     1     -28.258  -3.339   4.819 -0.00 +0.00    +0.029 A  
DOCKED: ATOM     21  C   UNL     1     -28.961  -3.801   5.930 -0.01 +0.00    +0.140 A  
DOCKED: ATOM     22  C   UNL     1     -30.215  -3.272   6.233 -0.04 +0.00    +0.029 A  
DOCKED: ATOM     23  F   UNL     1     -28.431  -4.754   6.709 +0.00 -0.00    -0.204 F  
DOCKED: ATOM     24  C   UNL     1     -30.767  -2.278   5.423 -0.09 +0.00    +0.001 A  
DOCKED: ENDBRANCH   2  18
DOCKED: TORSDOF 5
DOCKED: TER
DOCKED: ENDMDL
________________________________________________________________________________


    FINAL DOCKED STATE:
    ________________________


Run:   217 / 512
Time taken for this run:   0.002s

DOCKED: MODEL        217
DOCKED: USER    Run = 217
DOCKED: USER
DOCKED: USER    Estimated Free Energy of Binding    =  -4.95 kcal/mol  [=(1)+(2)+(3)-(4)]
DOCKED: USER
DOCKED: USER    (1) Final Intermolecular Energy     =  -6.44 kcal/mol
DOCKED: USER        vdW + Hbond + desolv Energy     =  -6.44 kcal/mol
DOCKED: USER        Electrostatic Energy            =  +0.00 kcal/mol
DOCKED: USER        Moving Ligand-Fixed Receptor    =  -6.44 kcal/mol
DOCKED: USER        Moving Ligand-Moving Receptor   =  +0.00 kcal/mol
DOCKED: USER    (2) Final Total Internal Energy     =  -1.29 kcal/mol
DOCKED: USER    (3) Torsional Free Energy           =  +1.49 kcal/mol
DOCKED: USER    (4) Unbound System's Energy         =  -1.29 kcal/mol
DOCKED: USER
DOCKED: USER
DOCKED: REMARK  5 active torsions:
DOCKED: REMARK  status: ('A' for Active; 'I' for Inactive)
DOCKED: REMARK    1  A    between atoms: C_2  and  C_19 
DOCKED: REMARK    2  A    between atoms: C_2  and  C_11 
DOCKED: REMARK    3  A    between atoms: C_19  and  C_20 
DOCKED: REMARK    4  A    between atoms: C_20  and  C_21 
DOCKED: REMARK    5  A    between atoms: C_21  and  N_22 
DOCKED: USER                              x       y       z     vdW  Elec       q    Type
DOCKED: USER                           _______ _______ _______ _____ _____    ______ ____
DOCKED: ROOT
DOCKED: ATOM      1  O   UNL     1     -36.625 -12.994  14.632 -0.09 -0.00    -0.346 OA 
DOCKED: ATOM      2  C   UNL     1     -36.904 -11.656  14.110 -0.19 +0.00    +0.130 C  
DOCKED: ATOM      3  C   UNL     1     -37.490 -11.915  12.752 -0.31 +0.00    +0.004 A  
DOCKED: ATOM      4  C   UNL     1     -37.636 -13.281  12.559 -0.39 +0.00    +0.006 A  
DOCKED: ATOM      5  C   UNL     1     -37.177 -14.010  13.762 -0.26 +0.00    +0.169 C  
DOCKED: ATOM      6  C   UNL     1     -37.873 -11.012  11.770 -0.29 -0.00    -0.001 A  
DOCKED: ATOM      7  C   UNL     1     -38.164 -13.790  11.385 -0.46 +0.00    +0.008 A  
DOCKED: ATOM      8  C   UNL     1     -38.402 -11.511  10.579 -0.01 +0.00    +0.010 A  
DOCKED: ATOM      9  C   UNL     1     -38.547 -12.893  10.387 -0.40 +0.00    +0.068 A  
DOCKED: ATOM     10  N   UNL     1     -39.538 -13.784   8.166 -2.14 -0.00    -0.191 NA 
DOCKED: ATOM     11  C   UNL     1     -39.093 -13.384   9.162 -0.51 +0.00    +0.101 C  
DOCKED: ENDROOT
DOCKED: BRANCH   2  12
DOCKED: ATOM     12  C   UNL     1     -37.878 -10.962  15.054 -0.10 +0.00    +0.038 C  
DOCKED: BRANCH  12  13
DOCKED: ATOM     13  C   UNL     1     -39.274 -11.577  14.965 -0.10 +0.00    +0.038 C  
DOCKED: BRANCH  13  14
DOCKED: ATOM     14  C   UNL     1     -40.197 -10.721  14.100 -0.06 +0.00    +0.251 C  
DOCKED: BRANCH  14  15
DOCKED: ATOM     15  N   UNL     1     -41.444 -11.428  13.836 -0.10 +0.00    +0.141 N  
DOCKED: ATOM     16  C   UNL     1     -42.522 -10.482  13.545 -0.12 +0.00    +0.285 C  
DOCKED: ATOM     17  C   UNL     1     -41.280 -12.367  12.725 -0.11 +0.00    +0.285 C  
DOCKED: ENDBRANCH  14  15
DOCKED: ENDBRANCH  13  14
DOCKED: ENDBRANCH  12  13
DOCKED: ENDBRANCH   2  12
DOCKED: BRANCH   2  18
DOCKED: ATOM     18  C   UNL     1     -35.601 -10.930  14.052 -0.18 +0.00    +0.006 A  
DOCKED: ATOM     19  C   UNL     1     -34.411 -11.615  14.295 -0.15 +0.00    +0.001 A  
DOCKED: ATOM     20  C   UNL     1     -33.194 -10.935  14.242 -0.13 +0.00    +0.029 A  
DOCKED: ATOM     21  C   UNL     1     -33.168  -9.573  13.945 -0.08 +0.00    +0.140 A  
DOCKED: ATOM     22  C   UNL     1     -34.359  -8.889  13.702 -0.10 +0.00    +0.029 A  
DOCKED: ATOM     23  F   UNL     1     -31.999  -8.921  13.892 -0.01 -0.00    -0.204 F  
DOCKED: ATOM     24  C   UNL     1     -35.577  -9.568  13.756 -0.14 +0.00    +0.001 A  
DOCKED: ENDBRANCH   2  18
DOCKED: TORSDOF 5
DOCKED: TER
DOCKED: ENDMDL
________________________________________________________________________________


    FINAL DOCKED STATE:
    ________________________


Run:   218 / 512
Time taken for this run:   0.002s

DOCKED: MODEL        218
DOCKED: USER    Run = 218
DOCKED: USER
DOCKED: USER    Estimated Free Energy of Binding    =  -4.33 kcal/mol  [=(1)+(2)+(3)-(4)]
DOCKED: USER
DOCKED: USER    (1) Final Intermolecular Energy     =  -5.82 kcal/mol
DOCKED: USER        vdW + Hbond + desolv Energy     =  -5.82 kcal/mol
DOCKED: USER        Electrostatic Energy            =  +0.00 kcal/mol
DOCKED: USER        Moving Ligand-Fixed Receptor    =  -5.82 kcal/mol
DOCKED: USER        Moving Ligand-Moving Receptor   =  +0.00 kcal/mol
DOCKED: USER    (2) Final Total Internal Energy     =  -1.31 kcal/mol
DOCKED: USER    (3) Torsional Free Energy           =  +1.49 kcal/mol
DOCKED: USER    (4) Unbound System's Energy         =  -1.31 kcal/mol
DOCKED: USER
DOCKED: USER
DOCKED: REMARK  5 active torsions:
DOCKED: REMARK  status: ('A' for Active; 'I' for Inactive)
DOCKED: REMARK    1  A    between atoms: C_2  and  C_19 
DOCKED: REMARK    2  A    between atoms: C_2  and  C_11 
DOCKED: REMARK    3  A    between atoms: C_19  and  C_20 
DOCKED: REMARK    4  A    between atoms: C_20  and  C_21 
DOCKED: REMARK    5  A    between atoms: C_21  and  N_22 
DOCKED: USER                              x       y       z     vdW  Elec       q    Type
DOCKED: USER                           _______ _______ _______ _____ _____    ______ ____
DOCKED: ROOT
DOCKED: ATOM      1  O   UNL     1     -35.377  -9.484  14.105 -0.06 -0.00    -0.346 OA 
DOCKED: ATOM      2  C   UNL     1     -36.649  -8.936  13.632 -0.13 +0.00    +0.130 C  
DOCKED: ATOM      3  C   UNL     1     -37.361 -10.126  13.056 -0.23 +0.00    +0.004 A  
DOCKED: ATOM      4  C   UNL     1     -36.612 -11.272  13.279 -0.23 +0.00    +0.006 A  
DOCKED: ATOM      5  C   UNL     1     -35.376 -10.928  14.017 -0.13 +0.00    +0.169 C  
DOCKED: ATOM      6  C   UNL     1     -38.581 -10.190  12.398 -0.25 -0.00    -0.001 A  
DOCKED: ATOM      7  C   UNL     1     -37.049 -12.514  12.850 -0.32 +0.00    +0.008 A  
DOCKED: ATOM      8  C   UNL     1     -39.034 -11.434  11.956 -0.27 +0.00    +0.010 A  
DOCKED: ATOM      9  C   UNL     1     -38.271 -12.590  12.182 -0.31 +0.00    +0.068 A  
DOCKED: ATOM     10  N   UNL     1     -39.143 -14.885  11.353 -2.60 -0.00    -0.191 NA 
DOCKED: ATOM     11  C   UNL     1     -38.752 -13.856  11.724 -0.33 +0.00    +0.101 C  
DOCKED: ENDROOT
DOCKED: BRANCH   2  12
DOCKED: ATOM     12  C   UNL     1     -37.382  -8.324  14.821 -0.05 +0.00    +0.038 C  
DOCKED: BRANCH  12  13
DOCKED: ATOM     13  C   UNL     1     -37.109  -9.105  16.105 -0.03 +0.00    +0.038 C  
DOCKED: BRANCH  13  14
DOCKED: ATOM     14  C   UNL     1     -37.968 -10.366  16.174 -0.01 +0.00    +0.251 C  
DOCKED: BRANCH  14  15
DOCKED: ATOM     15  N   UNL     1     -37.413 -11.306  17.141 -0.03 +0.00    +0.141 N  
DOCKED: ATOM     16  C   UNL     1     -37.714 -12.684  16.752 -0.07 +0.00    +0.285 C  
DOCKED: ATOM     17  C   UNL     1     -35.967 -11.118  17.270 -0.03 +0.00    +0.285 C  
DOCKED: ENDBRANCH  14  15
DOCKED: ENDBRANCH  13  14
DOCKED: ENDBRANCH  12  13
DOCKED: ENDBRANCH   2  12
DOCKED: BRANCH   2  18
DOCKED: ATOM     18  C   UNL     1     -36.325  -7.900  12.608 -0.15 +0.00    +0.006 A  
DOCKED: ATOM     19  C   UNL     1     -37.205  -6.843  12.384 -0.13 +0.00    +0.001 A  
DOCKED: ATOM     20  C   UNL     1     -36.901  -5.875  11.426 -0.10 +0.00    +0.029 A  
DOCKED: ATOM     21  C   UNL     1     -35.718  -5.966  10.694 -0.06 +0.00    +0.140 A  
DOCKED: ATOM     22  C   UNL     1     -34.837  -7.024  10.920 -0.12 +0.00    +0.029 A  
DOCKED: ATOM     23  F   UNL     1     -35.425  -5.036   9.776 -0.02 -0.00    -0.204 F  
DOCKED: ATOM     24  C   UNL     1     -35.141  -7.993  11.877 -0.16 +0.00    +0.001 A  
DOCKED: ENDBRANCH   2  18
DOCKED: TORSDOF 5
DOCKED: TER
DOCKED: ENDMDL
________________________________________________________________________________


    FINAL DOCKED STATE:
    ________________________


Run:   219 / 512
Time taken for this run:   0.002s

DOCKED: MODEL        219
DOCKED: USER    Run = 219
DOCKED: USER
DOCKED: USER    Estimated Free Energy of Binding    =  -4.25 kcal/mol  [=(1)+(2)+(3)-(4)]
DOCKED: USER
DOCKED: USER    (1) Final Intermolecular Energy     =  -5.74 kcal/mol
DOCKED: USER        vdW + Hbond + desolv Energy     =  -5.74 kcal/mol
DOCKED: USER        Electrostatic Energy            =  +0.00 kcal/mol
DOCKED: USER        Moving Ligand-Fixed Receptor    =  -5.74 kcal/mol
DOCKED: USER        Moving Ligand-Moving Receptor   =  +0.00 kcal/mol
DOCKED: USER    (2) Final Total Internal Energy     =  -1.31 kcal/mol
DOCKED: USER    (3) Torsional Free Energy           =  +1.49 kcal/mol
DOCKED: USER    (4) Unbound System's Energy         =  -1.31 kcal/mol
DOCKED: USER
DOCKED: USER
DOCKED: REMARK  5 active torsions:
DOCKED: REMARK  status: ('A' for Active; 'I' for Inactive)
DOCKED: REMARK    1  A    between atoms: C_2  and  C_19 
DOCKED: REMARK    2  A    between atoms: C_2  and  C_11 
DOCKED: REMARK    3  A    between atoms: C_19  and  C_20 
DOCKED: REMARK    4  A    between atoms: C_20  and  C_21 
DOCKED: REMARK    5  A    between atoms: C_21  and  N_22 
DOCKED: USER                              x       y       z     vdW  Elec       q    Type
DOCKED: USER                           _______ _______ _______ _____ _____    ______ ____
DOCKED: ROOT
DOCKED: ATOM      1  O   UNL     1     -36.906  -7.955  12.560 -0.08 -0.00    -0.346 OA 
DOCKED: ATOM      2  C   UNL     1     -38.220  -8.006  13.202 -0.15 +0.00    +0.130 C  
DOCKED: ATOM      3  C   UNL     1     -38.703  -9.399  12.921 -0.22 +0.00    +0.004 A  
DOCKED: ATOM      4  C   UNL     1     -37.709 -10.117  12.273 -0.25 +0.00    +0.006 A  
DOCKED: ATOM      5  C   UNL     1     -36.511  -9.266  12.093 -0.11 +0.00    +0.169 C  
DOCKED: ATOM      6  C   UNL     1     -39.922  -9.988  13.226 -0.21 -0.00    -0.001 A  
DOCKED: ATOM      7  C   UNL     1     -37.897 -11.438  11.904 -0.33 +0.00    +0.008 A  
DOCKED: ATOM      8  C   UNL     1     -40.129 -11.318  12.857 -0.22 +0.00    +0.010 A  
DOCKED: ATOM      9  C   UNL     1     -39.121 -12.040  12.200 -0.25 +0.00    +0.068 A  
DOCKED: ATOM     10  N   UNL     1     -39.536 -14.509  11.534 -2.49 -0.00    -0.191 NA 
DOCKED: ATOM     11  C   UNL     1     -39.350 -13.401  11.832 -0.35 +0.00    +0.101 C  
DOCKED: ENDROOT
DOCKED: BRANCH   2  12
DOCKED: ATOM     12  C   UNL     1     -38.041  -7.728  14.690 -0.05 +0.00    +0.038 C  
DOCKED: BRANCH  12  13
DOCKED: ATOM     13  C   UNL     1     -36.760  -6.941  14.960 -0.03 +0.00    +0.038 C  
DOCKED: BRANCH  13  14
DOCKED: ATOM     14  C   UNL     1     -36.940  -5.464  14.611 -0.01 +0.00    +0.251 C  
DOCKED: BRANCH  14  15
DOCKED: ATOM     15  N   UNL     1     -38.048  -4.895  15.367 -0.00 +0.00    +0.141 N  
DOCKED: ATOM     16  C   UNL     1     -37.663  -4.678  16.763 +0.00 +0.00    +0.285 C  
DOCKED: ATOM     17  C   UNL     1     -38.494  -3.639  14.763 -0.00 +0.00    +0.285 C  
DOCKED: ENDBRANCH  14  15
DOCKED: ENDBRANCH  13  14
DOCKED: ENDBRANCH  12  13
DOCKED: ENDBRANCH   2  12
DOCKED: BRANCH   2  18
DOCKED: ATOM     18  C   UNL     1     -39.062  -6.957  12.556 -0.19 +0.00    +0.006 A  
DOCKED: ATOM     19  C   UNL     1     -40.427  -6.892  12.832 -0.20 +0.00    +0.001 A  
DOCKED: ATOM     20  C   UNL     1     -41.214  -5.911  12.226 -0.17 +0.00    +0.029 A  
DOCKED: ATOM     21  C   UNL     1     -40.635  -4.997  11.348 -0.11 +0.00    +0.140 A  
DOCKED: ATOM     22  C   UNL     1     -39.269  -5.062  11.073 -0.16 +0.00    +0.029 A  
DOCKED: ATOM     23  F   UNL     1     -41.389  -4.054  10.769 -0.02 -0.00    -0.204 F  
DOCKED: ATOM     24  C   UNL     1     -38.481  -6.043  11.678 -0.15 +0.00    +0.001 A  
DOCKED: ENDBRANCH   2  18
DOCKED: TORSDOF 5
DOCKED: TER
DOCKED: ENDMDL
________________________________________________________________________________


    FINAL DOCKED STATE:
    ________________________


Run:   220 / 512
Time taken for this run:   0.002s

DOCKED: MODEL        220
DOCKED: USER    Run = 220
DOCKED: USER
DOCKED: USER    Estimated Free Energy of Binding    =  -3.69 kcal/mol  [=(1)+(2)+(3)-(4)]
DOCKED: USER
DOCKED: USER    (1) Final Intermolecular Energy     =  -5.18 kcal/mol
DOCKED: USER        vdW + Hbond + desolv Energy     =  -5.18 kcal/mol
DOCKED: USER        Electrostatic Energy            =  +0.00 kcal/mol
DOCKED: USER        Moving Ligand-Fixed Receptor    =  -5.18 kcal/mol
DOCKED: USER        Moving Ligand-Moving Receptor   =  +0.00 kcal/mol
DOCKED: USER    (2) Final Total Internal Energy     =  -1.12 kcal/mol
DOCKED: USER    (3) Torsional Free Energy           =  +1.49 kcal/mol
DOCKED: USER    (4) Unbound System's Energy         =  -1.12 kcal/mol
DOCKED: USER
DOCKED: USER
DOCKED: REMARK  5 active torsions:
DOCKED: REMARK  status: ('A' for Active; 'I' for Inactive)
DOCKED: REMARK    1  A    between atoms: C_2  and  C_19 
DOCKED: REMARK    2  A    between atoms: C_2  and  C_11 
DOCKED: REMARK    3  A    between atoms: C_19  and  C_20 
DOCKED: REMARK    4  A    between atoms: C_20  and  C_21 
DOCKED: REMARK    5  A    between atoms: C_21  and  N_22 
DOCKED: USER                              x       y       z     vdW  Elec       q    Type
DOCKED: USER                           _______ _______ _______ _____ _____    ______ ____
DOCKED: ROOT
DOCKED: ATOM      1  O   UNL     1     -30.648  -8.615   7.946 +0.00 -0.00    -0.346 OA 
DOCKED: ATOM      2  C   UNL     1     -31.879  -9.090   7.312 -0.11 +0.00    +0.130 C  
DOCKED: ATOM      3  C   UNL     1     -31.983 -10.520   7.756 -0.22 +0.00    +0.004 A  
DOCKED: ATOM      4  C   UNL     1     -30.964 -10.807   8.653 -0.14 +0.00    +0.006 A  
DOCKED: ATOM      5  C   UNL     1     -30.134  -9.601   8.872 -0.04 +0.00    +0.169 C  
DOCKED: ATOM      6  C   UNL     1     -32.913 -11.488   7.403 -0.28 -0.00    -0.001 A  
DOCKED: ATOM      7  C   UNL     1     -30.836 -12.063   9.221 -0.20 +0.00    +0.008 A  
DOCKED: ATOM      8  C   UNL     1     -32.795 -12.760   7.964 -0.09 +0.00    +0.010 A  
DOCKED: ATOM      9  C   UNL     1     -31.761 -13.046   8.869 -0.28 +0.00    +0.068 A  
DOCKED: ATOM     10  N   UNL     1     -31.574 -15.417   9.897 -2.09 -0.00    -0.191 NA 
DOCKED: ATOM     11  C   UNL     1     -31.657 -14.354   9.435 -0.40 +0.00    +0.101 C  
DOCKED: ENDROOT
DOCKED: BRANCH   2  12
DOCKED: ATOM     12  C   UNL     1     -33.037  -8.230   7.804 -0.16 +0.00    +0.038 C  
DOCKED: BRANCH  12  13
DOCKED: ATOM     13  C   UNL     1     -32.565  -6.832   8.198 -0.06 +0.00    +0.038 C  
DOCKED: BRANCH  13  14
DOCKED: ATOM     14  C   UNL     1     -33.338  -6.312   9.409 -0.04 +0.00    +0.251 C  
DOCKED: BRANCH  14  15
DOCKED: ATOM     15  N   UNL     1     -34.025  -7.409  10.081 -0.11 +0.00    +0.141 N  
DOCKED: ATOM     16  C   UNL     1     -33.077  -8.218  10.848 -0.08 +0.00    +0.285 C  
DOCKED: ATOM     17  C   UNL     1     -35.080  -6.896  10.957 -0.07 +0.00    +0.285 C  
DOCKED: ENDBRANCH  14  15
DOCKED: ENDBRANCH  13  14
DOCKED: ENDBRANCH  12  13
DOCKED: ENDBRANCH   2  12
DOCKED: BRANCH   2  18
DOCKED: ATOM     18  C   UNL     1     -31.692  -8.950   5.838 -0.13 +0.00    +0.006 A  
DOCKED: ATOM     19  C   UNL     1     -30.503  -9.372   5.244 -0.08 +0.00    +0.001 A  
DOCKED: ATOM     20  C   UNL     1     -30.330  -9.240   3.865 -0.07 +0.00    +0.029 A  
DOCKED: ATOM     21  C   UNL     1     -31.344  -8.689   3.084 -0.11 +0.00    +0.140 A  
DOCKED: ATOM     22  C   UNL     1     -32.533  -8.268   3.680 -0.21 +0.00    +0.029 A  
DOCKED: ATOM     23  F   UNL     1     -31.178  -8.565   1.761 -0.01 -0.00    -0.204 F  
DOCKED: ATOM     24  C   UNL     1     -32.708  -8.398   5.059 -0.19 +0.00    +0.001 A  
DOCKED: ENDBRANCH   2  18
DOCKED: TORSDOF 5
DOCKED: TER
DOCKED: ENDMDL
________________________________________________________________________________


    FINAL DOCKED STATE:
    ________________________


Run:   221 / 512
Time taken for this run:   0.002s

DOCKED: MODEL        221
DOCKED: USER    Run = 221
DOCKED: USER
DOCKED: USER    Estimated Free Energy of Binding    =  -5.71 kcal/mol  [=(1)+(2)+(3)-(4)]
DOCKED: USER
DOCKED: USER    (1) Final Intermolecular Energy     =  -7.20 kcal/mol
DOCKED: USER        vdW + Hbond + desolv Energy     =  -7.20 kcal/mol
DOCKED: USER        Electrostatic Energy            =  +0.00 kcal/mol
DOCKED: USER        Moving Ligand-Fixed Receptor    =  -7.20 kcal/mol
DOCKED: USER        Moving Ligand-Moving Receptor   =  +0.00 kcal/mol
DOCKED: USER    (2) Final Total Internal Energy     =  -1.60 kcal/mol
DOCKED: USER    (3) Torsional Free Energy           =  +1.49 kcal/mol
DOCKED: USER    (4) Unbound System's Energy         =  -1.60 kcal/mol
DOCKED: USER
DOCKED: USER
DOCKED: REMARK  5 active torsions:
DOCKED: REMARK  status: ('A' for Active; 'I' for Inactive)
DOCKED: REMARK    1  A    between atoms: C_2  and  C_19 
DOCKED: REMARK    2  A    between atoms: C_2  and  C_11 
DOCKED: REMARK    3  A    between atoms: C_19  and  C_20 
DOCKED: REMARK    4  A    between atoms: C_20  and  C_21 
DOCKED: REMARK    5  A    between atoms: C_21  and  N_22 
DOCKED: USER                              x       y       z     vdW  Elec       q    Type
DOCKED: USER                           _______ _______ _______ _____ _____    ______ ____
DOCKED: ROOT
DOCKED: ATOM      1  O   UNL     1     -37.366 -10.917  13.388 -0.09 -0.00    -0.346 OA 
DOCKED: ATOM      2  C   UNL     1     -37.640 -12.342  13.578 -0.23 +0.00    +0.130 C  
DOCKED: ATOM      3  C   UNL     1     -38.185 -12.784  12.251 -0.36 +0.00    +0.004 A  
DOCKED: ATOM      4  C   UNL     1     -38.125 -11.732  11.348 -0.34 +0.00    +0.006 A  
DOCKED: ATOM      5  C   UNL     1     -37.533 -10.543  12.001 -0.18 +0.00    +0.169 C  
DOCKED: ATOM      6  C   UNL     1     -38.684 -14.021  11.870 -0.07 -0.00    -0.001 A  
DOCKED: ATOM      7  C   UNL     1     -38.563 -11.877  10.043 -0.10 +0.00    +0.008 A  
DOCKED: ATOM      8  C   UNL     1     -39.133 -14.182  10.558 -0.48 +0.00    +0.010 A  
DOCKED: ATOM      9  C   UNL     1     -39.072 -13.115   9.649 -0.45 +0.00    +0.068 A  
DOCKED: ATOM     10  N   UNL     1     -39.910 -13.449   7.220 -3.28 -0.00    -0.191 NA 
DOCKED: ATOM     11  C   UNL     1     -39.535 -13.299   8.310 -0.29 +0.00    +0.101 C  
DOCKED: ENDROOT
DOCKED: BRANCH   2  12
DOCKED: ATOM     12  C   UNL     1     -36.335 -13.039  13.945 -0.25 +0.00    +0.038 C  
DOCKED: BRANCH  12  13
DOCKED: ATOM     13  C   UNL     1     -35.259 -12.032  14.346 -0.23 +0.00    +0.038 C  
DOCKED: BRANCH  13  14
DOCKED: ATOM     14  C   UNL     1     -35.245 -11.816  15.858 -0.08 +0.00    +0.251 C  
DOCKED: BRANCH  14  15
DOCKED: ATOM     15  N   UNL     1     -36.355 -10.960  16.259 -0.05 +0.00    +0.141 N  
DOCKED: ATOM     16  C   UNL     1     -36.568 -11.034  17.705 -0.02 +0.00    +0.285 C  
DOCKED: ATOM     17  C   UNL     1     -36.112  -9.575  15.852 -0.02 +0.00    +0.285 C  
DOCKED: ENDBRANCH  14  15
DOCKED: ENDBRANCH  13  14
DOCKED: ENDBRANCH  12  13
DOCKED: ENDBRANCH   2  12
DOCKED: BRANCH   2  18
DOCKED: ATOM     18  C   UNL     1     -38.637 -12.452  14.682 -0.15 +0.00    +0.006 A  
DOCKED: ATOM     19  C   UNL     1     -39.613 -11.468  14.839 -0.09 +0.00    +0.001 A  
DOCKED: ATOM     20  C   UNL     1     -40.545 -11.571  15.873 -0.05 +0.00    +0.029 A  
DOCKED: ATOM     21  C   UNL     1     -40.501 -12.657  16.746 -0.05 +0.00    +0.140 A  
DOCKED: ATOM     22  C   UNL     1     -39.525 -13.640  16.588 -0.14 +0.00    +0.029 A  
DOCKED: ATOM     23  F   UNL     1     -41.397 -12.757  17.737 +0.01 -0.00    -0.204 F  
DOCKED: ATOM     24  C   UNL     1     -38.591 -13.538  15.556 -0.21 +0.00    +0.001 A  
DOCKED: ENDBRANCH   2  18
DOCKED: TORSDOF 5
DOCKED: TER
DOCKED: ENDMDL
________________________________________________________________________________


    FINAL DOCKED STATE:
    ________________________


Run:   222 / 512
Time taken for this run:   0.002s

DOCKED: MODEL        222
DOCKED: USER    Run = 222
DOCKED: USER
DOCKED: USER    Estimated Free Energy of Binding    =  -4.71 kcal/mol  [=(1)+(2)+(3)-(4)]
DOCKED: USER
DOCKED: USER    (1) Final Intermolecular Energy     =  -6.20 kcal/mol
DOCKED: USER        vdW + Hbond + desolv Energy     =  -6.20 kcal/mol
DOCKED: USER        Electrostatic Energy            =  +0.00 kcal/mol
DOCKED: USER        Moving Ligand-Fixed Receptor    =  -6.20 kcal/mol
DOCKED: USER        Moving Ligand-Moving Receptor   =  +0.00 kcal/mol
DOCKED: USER    (2) Final Total Internal Energy     =  -1.07 kcal/mol
DOCKED: USER    (3) Torsional Free Energy           =  +1.49 kcal/mol
DOCKED: USER    (4) Unbound System's Energy         =  -1.07 kcal/mol
DOCKED: USER
DOCKED: USER
DOCKED: REMARK  5 active torsions:
DOCKED: REMARK  status: ('A' for Active; 'I' for Inactive)
DOCKED: REMARK    1  A    between atoms: C_2  and  C_19 
DOCKED: REMARK    2  A    between atoms: C_2  and  C_11 
DOCKED: REMARK    3  A    between atoms: C_19  and  C_20 
DOCKED: REMARK    4  A    between atoms: C_20  and  C_21 
DOCKED: REMARK    5  A    between atoms: C_21  and  N_22 
DOCKED: USER                              x       y       z     vdW  Elec       q    Type
DOCKED: USER                           _______ _______ _______ _____ _____    ______ ____
DOCKED: ROOT
DOCKED: ATOM      1  O   UNL     1     -40.774 -11.842  14.263 -0.00 -0.00    -0.346 OA 
DOCKED: ATOM      2  C   UNL     1     -39.450 -11.333  13.900 -0.12 +0.00    +0.130 C  
DOCKED: ATOM      3  C   UNL     1     -39.279 -11.761  12.472 -0.27 +0.00    +0.004 A  
DOCKED: ATOM      4  C   UNL     1     -40.445 -12.365  12.022 -0.28 +0.00    +0.006 A  
DOCKED: ATOM      5  C   UNL     1     -41.458 -12.366  13.101 -0.17 +0.00    +0.169 C  
DOCKED: ATOM      6  C   UNL     1     -38.183 -11.618  11.634 -0.35 -0.00    -0.001 A  
DOCKED: ATOM      7  C   UNL     1     -40.554 -12.847  10.729 -0.29 +0.00    +0.008 A  
DOCKED: ATOM      8  C   UNL     1     -38.276 -12.103  10.328 -0.15 +0.00    +0.010 A  
DOCKED: ATOM      9  C   UNL     1     -39.456 -12.714   9.878 -0.34 +0.00    +0.068 A  
DOCKED: ATOM     10  N   UNL     1     -39.597 -13.600   7.448 -2.82 -0.00    -0.191 NA 
DOCKED: ATOM     11  C   UNL     1     -39.533 -13.203   8.538 -0.28 +0.00    +0.101 C  
DOCKED: ENDROOT
DOCKED: BRANCH   2  12
DOCKED: ATOM     12  C   UNL     1     -39.453  -9.818  14.069 -0.14 +0.00    +0.038 C  
DOCKED: BRANCH  12  13
DOCKED: ATOM     13  C   UNL     1     -40.845  -9.300  14.425 -0.11 +0.00    +0.038 C  
DOCKED: BRANCH  13  14
DOCKED: ATOM     14  C   UNL     1     -41.046  -9.257  15.939 -0.00 +0.00    +0.251 C  
DOCKED: BRANCH  14  15
DOCKED: ATOM     15  N   UNL     1     -41.991  -8.206  16.296 -0.02 +0.00    +0.141 N  
DOCKED: ATOM     16  C   UNL     1     -42.522  -8.425  17.642 +0.00 +0.00    +0.285 C  
DOCKED: ATOM     17  C   UNL     1     -41.356  -6.890  16.209 +0.00 +0.00    +0.285 C  
DOCKED: ENDBRANCH  14  15
DOCKED: ENDBRANCH  13  14
DOCKED: ENDBRANCH  12  13
DOCKED: ENDBRANCH   2  12
DOCKED: BRANCH   2  18
DOCKED: ATOM     18  C   UNL     1     -38.468 -11.975  14.822 -0.12 +0.00    +0.006 A  
DOCKED: ATOM     19  C   UNL     1     -37.126 -11.598  14.783 -0.15 +0.00    +0.001 A  
DOCKED: ATOM     20  C   UNL     1     -36.209 -12.200  15.645 -0.14 +0.00    +0.029 A  
DOCKED: ATOM     21  C   UNL     1     -36.634 -13.176  16.545 -0.09 +0.00    +0.140 A  
DOCKED: ATOM     22  C   UNL     1     -37.977 -13.552  16.584 -0.19 +0.00    +0.029 A  
DOCKED: ATOM     23  F   UNL     1     -35.754 -13.752  17.374 -0.04 -0.00    -0.204 F  
DOCKED: ATOM     24  C   UNL     1     -38.895 -12.951  15.721 -0.15 +0.00    +0.001 A  
DOCKED: ENDBRANCH   2  18
DOCKED: TORSDOF 5
DOCKED: TER
DOCKED: ENDMDL
________________________________________________________________________________


    FINAL DOCKED STATE:
    ________________________


Run:   223 / 512
Time taken for this run:   0.002s

DOCKED: MODEL        223
DOCKED: USER    Run = 223
DOCKED: USER
DOCKED: USER    Estimated Free Energy of Binding    =  -4.23 kcal/mol  [=(1)+(2)+(3)-(4)]
DOCKED: USER
DOCKED: USER    (1) Final Intermolecular Energy     =  -5.72 kcal/mol
DOCKED: USER        vdW + Hbond + desolv Energy     =  -5.72 kcal/mol
DOCKED: USER        Electrostatic Energy            =  +0.00 kcal/mol
DOCKED: USER        Moving Ligand-Fixed Receptor    =  -5.72 kcal/mol
DOCKED: USER        Moving Ligand-Moving Receptor   =  +0.00 kcal/mol
DOCKED: USER    (2) Final Total Internal Energy     =  -1.18 kcal/mol
DOCKED: USER    (3) Torsional Free Energy           =  +1.49 kcal/mol
DOCKED: USER    (4) Unbound System's Energy         =  -1.18 kcal/mol
DOCKED: USER
DOCKED: USER
DOCKED: REMARK  5 active torsions:
DOCKED: REMARK  status: ('A' for Active; 'I' for Inactive)
DOCKED: REMARK    1  A    between atoms: C_2  and  C_19 
DOCKED: REMARK    2  A    between atoms: C_2  and  C_11 
DOCKED: REMARK    3  A    between atoms: C_19  and  C_20 
DOCKED: REMARK    4  A    between atoms: C_20  and  C_21 
DOCKED: REMARK    5  A    between atoms: C_21  and  N_22 
DOCKED: USER                              x       y       z     vdW  Elec       q    Type
DOCKED: USER                           _______ _______ _______ _____ _____    ______ ____
DOCKED: ROOT
DOCKED: ATOM      1  O   UNL     1     -35.488  -9.459  14.137 -0.05 -0.00    -0.346 OA 
DOCKED: ATOM      2  C   UNL     1     -36.793  -8.937  13.728 -0.12 +0.00    +0.130 C  
DOCKED: ATOM      3  C   UNL     1     -37.488 -10.130  13.136 -0.23 +0.00    +0.004 A  
DOCKED: ATOM      4  C   UNL     1     -36.694 -11.257  13.293 -0.24 +0.00    +0.006 A  
DOCKED: ATOM      5  C   UNL     1     -35.445 -10.898  14.000 -0.14 +0.00    +0.169 C  
DOCKED: ATOM      6  C   UNL     1     -38.727 -10.212  12.518 -0.26 -0.00    -0.001 A  
DOCKED: ATOM      7  C   UNL     1     -37.107 -12.498  12.838 -0.32 +0.00    +0.008 A  
DOCKED: ATOM      8  C   UNL     1     -39.156 -11.455  12.050 -0.27 +0.00    +0.010 A  
DOCKED: ATOM      9  C   UNL     1     -38.350 -12.592  12.209 -0.30 +0.00    +0.068 A  
DOCKED: ATOM     10  N   UNL     1     -39.178 -14.885  11.333 -2.61 -0.00    -0.191 NA 
DOCKED: ATOM     11  C   UNL     1     -38.806 -13.857  11.725 -0.33 +0.00    +0.101 C  
DOCKED: ENDROOT
DOCKED: BRANCH   2  12
DOCKED: ATOM     12  C   UNL     1     -37.502  -8.389  14.960 -0.05 +0.00    +0.038 C  
DOCKED: BRANCH  12  13
DOCKED: ATOM     13  C   UNL     1     -38.253  -9.490  15.707 -0.04 +0.00    +0.038 C  
DOCKED: BRANCH  13  14
DOCKED: ATOM     14  C   UNL     1     -39.584  -8.975  16.252 -0.00 +0.00    +0.251 C  
DOCKED: BRANCH  14  15
DOCKED: ATOM     15  N   UNL     1     -40.496 -10.087  16.495 -0.01 +0.00    +0.141 N  
DOCKED: ATOM     16  C   UNL     1     -41.773  -9.601  17.020 +0.00 +0.00    +0.285 C  
DOCKED: ATOM     17  C   UNL     1     -40.711 -10.855  15.268 -0.01 +0.00    +0.285 C  
DOCKED: ENDBRANCH  14  15
DOCKED: ENDBRANCH  13  14
DOCKED: ENDBRANCH  12  13
DOCKED: ENDBRANCH   2  12
DOCKED: BRANCH   2  18
DOCKED: ATOM     18  C   UNL     1     -36.538  -7.858  12.729 -0.15 +0.00    +0.006 A  
DOCKED: ATOM     19  C   UNL     1     -37.466  -6.832  12.560 -0.14 +0.00    +0.001 A  
DOCKED: ATOM     20  C   UNL     1     -37.227  -5.823  11.625 -0.11 +0.00    +0.029 A  
DOCKED: ATOM     21  C   UNL     1     -36.060  -5.843  10.862 -0.06 +0.00    +0.140 A  
DOCKED: ATOM     22  C   UNL     1     -35.132  -6.870  11.032 -0.10 +0.00    +0.029 A  
DOCKED: ATOM     23  F   UNL     1     -35.829  -4.874   9.967 -0.02 -0.00    -0.204 F  
DOCKED: ATOM     24  C   UNL     1     -35.371  -7.879  11.966 -0.16 +0.00    +0.001 A  
DOCKED: ENDBRANCH   2  18
DOCKED: TORSDOF 5
DOCKED: TER
DOCKED: ENDMDL
________________________________________________________________________________


    FINAL DOCKED STATE:
    ________________________


Run:   224 / 512
Time taken for this run:   0.002s

DOCKED: MODEL        224
DOCKED: USER    Run = 224
DOCKED: USER
DOCKED: USER    Estimated Free Energy of Binding    =  -3.34 kcal/mol  [=(1)+(2)+(3)-(4)]
DOCKED: USER
DOCKED: USER    (1) Final Intermolecular Energy     =  -4.83 kcal/mol
DOCKED: USER        vdW + Hbond + desolv Energy     =  -4.83 kcal/mol
DOCKED: USER        Electrostatic Energy            =  +0.00 kcal/mol
DOCKED: USER        Moving Ligand-Fixed Receptor    =  -4.83 kcal/mol
DOCKED: USER        Moving Ligand-Moving Receptor   =  +0.00 kcal/mol
DOCKED: USER    (2) Final Total Internal Energy     =  -1.43 kcal/mol
DOCKED: USER    (3) Torsional Free Energy           =  +1.49 kcal/mol
DOCKED: USER    (4) Unbound System's Energy         =  -1.43 kcal/mol
DOCKED: USER
DOCKED: USER
DOCKED: REMARK  5 active torsions:
DOCKED: REMARK  status: ('A' for Active; 'I' for Inactive)
DOCKED: REMARK    1  A    between atoms: C_2  and  C_19 
DOCKED: REMARK    2  A    between atoms: C_2  and  C_11 
DOCKED: REMARK    3  A    between atoms: C_19  and  C_20 
DOCKED: REMARK    4  A    between atoms: C_20  and  C_21 
DOCKED: REMARK    5  A    between atoms: C_21  and  N_22 
DOCKED: USER                              x       y       z     vdW  Elec       q    Type
DOCKED: USER                           _______ _______ _______ _____ _____    ______ ____
DOCKED: ROOT
DOCKED: ATOM      1  O   UNL     1     -36.869  -8.627  15.153 -0.00 -0.00    -0.346 OA 
DOCKED: ATOM      2  C   UNL     1     -36.812  -8.793  13.700 -0.12 +0.00    +0.130 C  
DOCKED: ATOM      3  C   UNL     1     -37.449 -10.132  13.466 -0.19 +0.00    +0.004 A  
DOCKED: ATOM      4  C   UNL     1     -37.928 -10.638  14.666 -0.09 +0.00    +0.006 A  
DOCKED: ATOM      5  C   UNL     1     -37.656  -9.678  15.760 -0.03 +0.00    +0.169 C  
DOCKED: ATOM      6  C   UNL     1     -37.603 -10.840  12.283 -0.30 -0.00    -0.001 A  
DOCKED: ATOM      7  C   UNL     1     -38.568 -11.864  14.727 -0.11 +0.00    +0.008 A  
DOCKED: ATOM      8  C   UNL     1     -38.244 -12.080  12.329 -0.33 +0.00    +0.010 A  
DOCKED: ATOM      9  C   UNL     1     -38.724 -12.589  13.545 -0.17 +0.00    +0.068 A  
DOCKED: ATOM     10  N   UNL     1     -39.912 -14.890  13.594 -1.97 -0.00    -0.191 NA 
DOCKED: ATOM     11  C   UNL     1     -39.379 -13.858  13.572 -0.18 +0.00    +0.101 C  
DOCKED: ENDROOT
DOCKED: BRANCH   2  12
DOCKED: ATOM     12  C   UNL     1     -37.583  -7.648  13.054 -0.15 +0.00    +0.038 C  
DOCKED: BRANCH  12  13
DOCKED: ATOM     13  C   UNL     1     -39.005  -8.070  12.687 -0.22 +0.00    +0.038 C  
DOCKED: BRANCH  13  14
DOCKED: ATOM     14  C   UNL     1     -39.960  -7.861  13.861 -0.09 +0.00    +0.251 C  
DOCKED: BRANCH  14  15
DOCKED: ATOM     15  N   UNL     1     -40.745  -9.066  14.097 -0.08 +0.00    +0.141 N  
DOCKED: ATOM     16  C   UNL     1     -42.025  -8.733  14.724 -0.02 +0.00    +0.285 C  
DOCKED: ATOM     17  C   UNL     1     -40.967  -9.790  12.844 -0.13 +0.00    +0.285 C  
DOCKED: ENDBRANCH  14  15
DOCKED: ENDBRANCH  13  14
DOCKED: ENDBRANCH  12  13
DOCKED: ENDBRANCH   2  12
DOCKED: BRANCH   2  18
DOCKED: ATOM     18  C   UNL     1     -35.372  -8.758  13.313 -0.14 +0.00    +0.006 A  
DOCKED: ATOM     19  C   UNL     1     -34.496  -9.727  13.800 -0.11 +0.00    +0.001 A  
DOCKED: ATOM     20  C   UNL     1     -33.149  -9.694  13.437 -0.06 +0.00    +0.029 A  
DOCKED: ATOM     21  C   UNL     1     -32.680  -8.692  12.588 -0.08 +0.00    +0.140 A  
DOCKED: ATOM     22  C   UNL     1     -33.557  -7.723  12.101 -0.10 +0.00    +0.029 A  
DOCKED: ATOM     23  F   UNL     1     -31.388  -8.661  12.238 -0.01 -0.00    -0.204 F  
DOCKED: ATOM     24  C   UNL     1     -34.904  -7.756  12.464 -0.13 +0.00    +0.001 A  
DOCKED: ENDBRANCH   2  18
DOCKED: TORSDOF 5
DOCKED: TER
DOCKED: ENDMDL
________________________________________________________________________________


    FINAL DOCKED STATE:
    ________________________


Run:   225 / 512
Time taken for this run:   0.002s

DOCKED: MODEL        225
DOCKED: USER    Run = 225
DOCKED: USER
DOCKED: USER    Estimated Free Energy of Binding    =  -4.57 kcal/mol  [=(1)+(2)+(3)-(4)]
DOCKED: USER
DOCKED: USER    (1) Final Intermolecular Energy     =  -6.06 kcal/mol
DOCKED: USER        vdW + Hbond + desolv Energy     =  -6.06 kcal/mol
DOCKED: USER        Electrostatic Energy            =  +0.00 kcal/mol
DOCKED: USER        Moving Ligand-Fixed Receptor    =  -6.06 kcal/mol
DOCKED: USER        Moving Ligand-Moving Receptor   =  +0.00 kcal/mol
DOCKED: USER    (2) Final Total Internal Energy     =  -1.21 kcal/mol
DOCKED: USER    (3) Torsional Free Energy           =  +1.49 kcal/mol
DOCKED: USER    (4) Unbound System's Energy         =  -1.21 kcal/mol
DOCKED: USER
DOCKED: USER
DOCKED: REMARK  5 active torsions:
DOCKED: REMARK  status: ('A' for Active; 'I' for Inactive)
DOCKED: REMARK    1  A    between atoms: C_2  and  C_19 
DOCKED: REMARK    2  A    between atoms: C_2  and  C_11 
DOCKED: REMARK    3  A    between atoms: C_19  and  C_20 
DOCKED: REMARK    4  A    between atoms: C_20  and  C_21 
DOCKED: REMARK    5  A    between atoms: C_21  and  N_22 
DOCKED: USER                              x       y       z     vdW  Elec       q    Type
DOCKED: USER                           _______ _______ _______ _____ _____    ______ ____
DOCKED: ROOT
DOCKED: ATOM      1  O   UNL     1     -31.576  -4.749   4.049 +0.01 -0.00    -0.346 OA 
DOCKED: ATOM      2  C   UNL     1     -32.784  -4.738   4.875 -0.09 +0.00    +0.130 C  
DOCKED: ATOM      3  C   UNL     1     -33.758  -3.921   4.076 -0.21 +0.00    +0.004 A  
DOCKED: ATOM      4  C   UNL     1     -33.195  -3.588   2.852 -0.17 +0.00    +0.006 A  
DOCKED: ATOM      5  C   UNL     1     -31.835  -4.163   2.752 -0.06 +0.00    +0.169 C  
DOCKED: ATOM      6  C   UNL     1     -35.044  -3.515   4.401 -0.31 -0.00    -0.001 A  
DOCKED: ATOM      7  C   UNL     1     -33.891  -2.839   1.919 -0.24 +0.00    +0.008 A  
DOCKED: ATOM      8  C   UNL     1     -35.757  -2.756   3.472 -0.36 +0.00    +0.010 A  
DOCKED: ATOM      9  C   UNL     1     -35.183  -2.420   2.237 -0.22 +0.00    +0.068 A  
DOCKED: ATOM     10  N   UNL     1     -36.536  -1.012   0.533 -2.53 -0.00    -0.191 NA 
DOCKED: ATOM     11  C   UNL     1     -35.929  -1.643   1.298 -0.35 +0.00    +0.101 C  
DOCKED: ENDROOT
DOCKED: BRANCH   2  12
DOCKED: ATOM     12  C   UNL     1     -33.243  -6.177   5.078 -0.15 +0.00    +0.038 C  
DOCKED: BRANCH  12  13
DOCKED: ATOM     13  C   UNL     1     -32.314  -7.162   4.371 -0.14 +0.00    +0.038 C  
DOCKED: BRANCH  13  14
DOCKED: ATOM     14  C   UNL     1     -33.048  -7.905   3.256 -0.20 +0.00    +0.251 C  
DOCKED: BRANCH  14  15
DOCKED: ATOM     15  N   UNL     1     -32.289  -7.834   2.013 -0.16 +0.00    +0.141 N  
DOCKED: ATOM     16  C   UNL     1     -30.956  -8.413   2.189 -0.05 +0.00    +0.285 C  
DOCKED: ATOM     17  C   UNL     1     -33.001  -8.519   0.934 -0.20 +0.00    +0.285 C  
DOCKED: ENDBRANCH  14  15
DOCKED: ENDBRANCH  13  14
DOCKED: ENDBRANCH  12  13
DOCKED: ENDBRANCH   2  12
DOCKED: BRANCH   2  18
DOCKED: ATOM     18  C   UNL     1     -32.419  -4.100   6.174 -0.10 +0.00    +0.006 A  
DOCKED: ATOM     19  C   UNL     1     -33.204  -4.324   7.304 -0.13 +0.00    +0.001 A  
DOCKED: ATOM     20  C   UNL     1     -32.861  -3.727   8.518 -0.12 +0.00    +0.029 A  
DOCKED: ATOM     21  C   UNL     1     -31.735  -2.909   8.600 -0.06 +0.00    +0.140 A  
DOCKED: ATOM     22  C   UNL     1     -30.951  -2.686   7.469 -0.09 +0.00    +0.029 A  
DOCKED: ATOM     23  F   UNL     1     -31.406  -2.338   9.766 -0.03 -0.00    -0.204 F  
DOCKED: ATOM     24  C   UNL     1     -31.293  -3.282   6.254 -0.10 +0.00    +0.001 A  
DOCKED: ENDBRANCH   2  18
DOCKED: TORSDOF 5
DOCKED: TER
DOCKED: ENDMDL
________________________________________________________________________________


    FINAL DOCKED STATE:
    ________________________


Run:   226 / 512
Time taken for this run:   0.002s

DOCKED: MODEL        226
DOCKED: USER    Run = 226
DOCKED: USER
DOCKED: USER    Estimated Free Energy of Binding    =  -6.03 kcal/mol  [=(1)+(2)+(3)-(4)]
DOCKED: USER
DOCKED: USER    (1) Final Intermolecular Energy     =  -7.52 kcal/mol
DOCKED: USER        vdW + Hbond + desolv Energy     =  -7.52 kcal/mol
DOCKED: USER        Electrostatic Energy            =  +0.00 kcal/mol
DOCKED: USER        Moving Ligand-Fixed Receptor    =  -7.52 kcal/mol
DOCKED: USER        Moving Ligand-Moving Receptor   =  +0.00 kcal/mol
DOCKED: USER    (2) Final Total Internal Energy     =  -1.18 kcal/mol
DOCKED: USER    (3) Torsional Free Energy           =  +1.49 kcal/mol
DOCKED: USER    (4) Unbound System's Energy         =  -1.18 kcal/mol
DOCKED: USER
DOCKED: USER
DOCKED: REMARK  5 active torsions:
DOCKED: REMARK  status: ('A' for Active; 'I' for Inactive)
DOCKED: REMARK    1  A    between atoms: C_2  and  C_19 
DOCKED: REMARK    2  A    between atoms: C_2  and  C_11 
DOCKED: REMARK    3  A    between atoms: C_19  and  C_20 
DOCKED: REMARK    4  A    between atoms: C_20  and  C_21 
DOCKED: REMARK    5  A    between atoms: C_21  and  N_22 
DOCKED: USER                              x       y       z     vdW  Elec       q    Type
DOCKED: USER                           _______ _______ _______ _____ _____    ______ ____
DOCKED: ROOT
DOCKED: ATOM      1  O   UNL     1     -37.376 -10.843  13.903 -0.05 -0.00    -0.346 OA 
DOCKED: ATOM      2  C   UNL     1     -37.041 -12.267  13.859 -0.23 +0.00    +0.130 C  
DOCKED: ATOM      3  C   UNL     1     -37.559 -12.717  12.524 -0.35 +0.00    +0.004 A  
DOCKED: ATOM      4  C   UNL     1     -38.047 -11.625  11.820 -0.35 +0.00    +0.006 A  
DOCKED: ATOM      5  C   UNL     1     -37.877 -10.393  12.623 -0.24 +0.00    +0.169 C  
DOCKED: ATOM      6  C   UNL     1     -37.585 -13.989  11.971 -0.35 -0.00    -0.001 A  
DOCKED: ATOM      7  C   UNL     1     -38.578 -11.765  10.550 -0.10 +0.00    +0.008 A  
DOCKED: ATOM      8  C   UNL     1     -38.123 -14.148  10.693 -0.44 +0.00    +0.010 A  
DOCKED: ATOM      9  C   UNL     1     -38.616 -13.041   9.985 -0.42 +0.00    +0.068 A  
DOCKED: ATOM     10  N   UNL     1     -39.602 -13.370   7.612 -2.97 -0.00    -0.191 NA 
DOCKED: ATOM     11  C   UNL     1     -39.160 -13.223   8.677 -0.41 +0.00    +0.101 C  
DOCKED: ENDROOT
DOCKED: BRANCH   2  12
DOCKED: ATOM     12  C   UNL     1     -35.530 -12.412  13.989 -0.20 +0.00    +0.038 C  
DOCKED: BRANCH  12  13
DOCKED: ATOM     13  C   UNL     1     -34.914 -11.208  14.700 -0.19 +0.00    +0.038 C  
DOCKED: BRANCH  13  14
DOCKED: ATOM     14  C   UNL     1     -33.654 -10.730  13.981 -0.02 +0.00    +0.251 C  
DOCKED: BRANCH  14  15
DOCKED: ATOM     15  N   UNL     1     -33.659  -9.277  13.859 -0.08 +0.00    +0.141 N  
DOCKED: ATOM     16  C   UNL     1     -32.896  -8.855  12.684 -0.07 +0.00    +0.285 C  
DOCKED: ATOM     17  C   UNL     1     -35.031  -8.771  13.782 -0.07 +0.00    +0.285 C  
DOCKED: ENDBRANCH  14  15
DOCKED: ENDBRANCH  13  14
DOCKED: ENDBRANCH  12  13
DOCKED: ENDBRANCH   2  12
DOCKED: BRANCH   2  18
DOCKED: ATOM     18  C   UNL     1     -37.745 -12.916  15.004 -0.20 +0.00    +0.006 A  
DOCKED: ATOM     19  C   UNL     1     -39.117 -13.154  14.935 -0.19 +0.00    +0.001 A  
DOCKED: ATOM     20  C   UNL     1     -39.773 -13.760  16.006 -0.16 +0.00    +0.029 A  
DOCKED: ATOM     21  C   UNL     1     -39.058 -14.129  17.144 -0.01 +0.00    +0.140 A  
DOCKED: ATOM     22  C   UNL     1     -37.685 -13.891  17.213 -0.21 +0.00    +0.029 A  
DOCKED: ATOM     23  F   UNL     1     -39.688 -14.713  18.172 -0.03 -0.00    -0.204 F  
DOCKED: ATOM     24  C   UNL     1     -37.027 -13.284  16.142 -0.18 +0.00    +0.001 A  
DOCKED: ENDBRANCH   2  18
DOCKED: TORSDOF 5
DOCKED: TER
DOCKED: ENDMDL
________________________________________________________________________________


    FINAL DOCKED STATE:
    ________________________


Run:   227 / 512
Time taken for this run:   0.002s

DOCKED: MODEL        227
DOCKED: USER    Run = 227
DOCKED: USER
DOCKED: USER    Estimated Free Energy of Binding    =  -4.63 kcal/mol  [=(1)+(2)+(3)-(4)]
DOCKED: USER
DOCKED: USER    (1) Final Intermolecular Energy     =  -6.12 kcal/mol
DOCKED: USER        vdW + Hbond + desolv Energy     =  -6.12 kcal/mol
DOCKED: USER        Electrostatic Energy            =  +0.00 kcal/mol
DOCKED: USER        Moving Ligand-Fixed Receptor    =  -6.12 kcal/mol
DOCKED: USER        Moving Ligand-Moving Receptor   =  +0.00 kcal/mol
DOCKED: USER    (2) Final Total Internal Energy     =  -1.28 kcal/mol
DOCKED: USER    (3) Torsional Free Energy           =  +1.49 kcal/mol
DOCKED: USER    (4) Unbound System's Energy         =  -1.28 kcal/mol
DOCKED: USER
DOCKED: USER
DOCKED: REMARK  5 active torsions:
DOCKED: REMARK  status: ('A' for Active; 'I' for Inactive)
DOCKED: REMARK    1  A    between atoms: C_2  and  C_19 
DOCKED: REMARK    2  A    between atoms: C_2  and  C_11 
DOCKED: REMARK    3  A    between atoms: C_19  and  C_20 
DOCKED: REMARK    4  A    between atoms: C_20  and  C_21 
DOCKED: REMARK    5  A    between atoms: C_21  and  N_22 
DOCKED: USER                              x       y       z     vdW  Elec       q    Type
DOCKED: USER                           _______ _______ _______ _____ _____    ______ ____
DOCKED: ROOT
DOCKED: ATOM      1  O   UNL     1     -35.421  -4.637   7.010 -0.09 -0.00    -0.346 OA 
DOCKED: ATOM      2  C   UNL     1     -34.111  -4.280   6.462 -0.17 +0.00    +0.130 C  
DOCKED: ATOM      3  C   UNL     1     -34.436  -3.603   5.162 -0.22 +0.00    +0.004 A  
DOCKED: ATOM      4  C   UNL     1     -35.813  -3.484   5.030 -0.23 +0.00    +0.006 A  
DOCKED: ATOM      5  C   UNL     1     -36.483  -4.053   6.220 -0.15 +0.00    +0.169 C  
DOCKED: ATOM      6  C   UNL     1     -33.583  -3.122   4.181 -0.20 -0.00    -0.001 A  
DOCKED: ATOM      7  C   UNL     1     -36.380  -2.887   3.917 -0.36 +0.00    +0.008 A  
DOCKED: ATOM      8  C   UNL     1     -34.140  -2.521   3.051 -0.27 +0.00    +0.010 A  
DOCKED: ATOM      9  C   UNL     1     -35.532  -2.404   2.920 -0.33 +0.00    +0.068 A  
DOCKED: ATOM     10  N   UNL     1     -36.533  -1.279   0.812 -2.50 -0.00    -0.191 NA 
DOCKED: ATOM     11  C   UNL     1     -36.084  -1.784   1.757 -0.39 +0.00    +0.101 C  
DOCKED: ENDROOT
DOCKED: BRANCH   2  12
DOCKED: ATOM     12  C   UNL     1     -33.409  -3.358   7.452 -0.12 +0.00    +0.038 C  
DOCKED: BRANCH  12  13
DOCKED: ATOM     13  C   UNL     1     -33.045  -4.095   8.739 -0.12 +0.00    +0.038 C  
DOCKED: BRANCH  13  14
DOCKED: ATOM     14  C   UNL     1     -34.298  -4.512   9.507 -0.07 +0.00    +0.251 C  
DOCKED: BRANCH  14  15
DOCKED: ATOM     15  N   UNL     1     -35.225  -3.392   9.612 -0.13 +0.00    +0.141 N  
DOCKED: ATOM     16  C   UNL     1     -36.518  -3.838  10.133 -0.07 +0.00    +0.285 C  
DOCKED: ATOM     17  C   UNL     1     -34.669  -2.342  10.468 -0.10 +0.00    +0.285 C  
DOCKED: ENDBRANCH  14  15
DOCKED: ENDBRANCH  13  14
DOCKED: ENDBRANCH  12  13
DOCKED: ENDBRANCH   2  12
DOCKED: BRANCH   2  18
DOCKED: ATOM     18  C   UNL     1     -33.352  -5.553   6.282 -0.10 +0.00    +0.006 A  
DOCKED: ATOM     19  C   UNL     1     -33.893  -6.756   6.734 -0.15 +0.00    +0.001 A  
DOCKED: ATOM     20  C   UNL     1     -33.182  -7.945   6.564 -0.16 +0.00    +0.029 A  
DOCKED: ATOM     21  C   UNL     1     -31.934  -7.929   5.944 -0.07 +0.00    +0.140 A  
DOCKED: ATOM     22  C   UNL     1     -31.395  -6.725   5.492 -0.03 +0.00    +0.029 A  
DOCKED: ATOM     23  F   UNL     1     -31.253  -9.071   5.780 -0.02 -0.00    -0.204 F  
DOCKED: ATOM     24  C   UNL     1     -32.104  -5.535   5.661 -0.05 +0.00    +0.001 A  
DOCKED: ENDBRANCH   2  18
DOCKED: TORSDOF 5
DOCKED: TER
DOCKED: ENDMDL
________________________________________________________________________________


    FINAL DOCKED STATE:
    ________________________


Run:   228 / 512
Time taken for this run:   0.002s

DOCKED: MODEL        228
DOCKED: USER    Run = 228
DOCKED: USER
DOCKED: USER    Estimated Free Energy of Binding    =  -4.20 kcal/mol  [=(1)+(2)+(3)-(4)]
DOCKED: USER
DOCKED: USER    (1) Final Intermolecular Energy     =  -5.69 kcal/mol
DOCKED: USER        vdW + Hbond + desolv Energy     =  -5.69 kcal/mol
DOCKED: USER        Electrostatic Energy            =  +0.00 kcal/mol
DOCKED: USER        Moving Ligand-Fixed Receptor    =  -5.69 kcal/mol
DOCKED: USER        Moving Ligand-Moving Receptor   =  +0.00 kcal/mol
DOCKED: USER    (2) Final Total Internal Energy     =  -1.44 kcal/mol
DOCKED: USER    (3) Torsional Free Energy           =  +1.49 kcal/mol
DOCKED: USER    (4) Unbound System's Energy         =  -1.44 kcal/mol
DOCKED: USER
DOCKED: USER
DOCKED: REMARK  5 active torsions:
DOCKED: REMARK  status: ('A' for Active; 'I' for Inactive)
DOCKED: REMARK    1  A    between atoms: C_2  and  C_19 
DOCKED: REMARK    2  A    between atoms: C_2  and  C_11 
DOCKED: REMARK    3  A    between atoms: C_19  and  C_20 
DOCKED: REMARK    4  A    between atoms: C_20  and  C_21 
DOCKED: REMARK    5  A    between atoms: C_21  and  N_22 
DOCKED: USER                              x       y       z     vdW  Elec       q    Type
DOCKED: USER                           _______ _______ _______ _____ _____    ______ ____
DOCKED: ROOT
DOCKED: ATOM      1  O   UNL     1     -37.477  -8.531  14.159 -0.02 -0.00    -0.346 OA 
DOCKED: ATOM      2  C   UNL     1     -38.932  -8.565  14.004 -0.10 +0.00    +0.130 C  
DOCKED: ATOM      3  C   UNL     1     -39.196  -9.904  13.378 -0.19 +0.00    +0.004 A  
DOCKED: ATOM      4  C   UNL     1     -38.010 -10.618  13.284 -0.22 +0.00    +0.006 A  
DOCKED: ATOM      5  C   UNL     1     -36.897  -9.819  13.845 -0.13 +0.00    +0.169 C  
DOCKED: ATOM      6  C   UNL     1     -40.392 -10.451  12.937 -0.22 -0.00    -0.001 A  
DOCKED: ATOM      7  C   UNL     1     -37.976 -11.893  12.746 -0.30 +0.00    +0.008 A  
DOCKED: ATOM      8  C   UNL     1     -40.374 -11.734  12.387 -0.24 +0.00    +0.010 A  
DOCKED: ATOM      9  C   UNL     1     -39.172 -12.451  12.293 -0.25 +0.00    +0.068 A  
DOCKED: ATOM     10  N   UNL     1     -39.175 -14.833  11.273 -2.54 -0.00    -0.191 NA 
DOCKED: ATOM     11  C   UNL     1     -39.173 -13.765  11.730 -0.37 +0.00    +0.101 C  
DOCKED: ENDROOT
DOCKED: BRANCH   2  12
DOCKED: ATOM     12  C   UNL     1     -39.568  -8.420  15.382 -0.04 +0.00    +0.038 C  
DOCKED: BRANCH  12  13
DOCKED: ATOM     13  C   UNL     1     -39.235  -9.611  16.278 -0.03 +0.00    +0.038 C  
DOCKED: BRANCH  13  14
DOCKED: ATOM     14  C   UNL     1     -40.348 -10.657  16.237 -0.01 +0.00    +0.251 C  
DOCKED: BRANCH  14  15
DOCKED: ATOM     15  N   UNL     1     -39.792 -11.980  15.980 -0.04 +0.00    +0.141 N  
DOCKED: ATOM     16  C   UNL     1     -38.640 -12.233  16.846 -0.04 +0.00    +0.285 C  
DOCKED: ATOM     17  C   UNL     1     -40.811 -13.013  16.174 -0.04 +0.00    +0.285 C  
DOCKED: ENDBRANCH  14  15
DOCKED: ENDBRANCH  13  14
DOCKED: ENDBRANCH  12  13
DOCKED: ENDBRANCH   2  12
DOCKED: BRANCH   2  18
DOCKED: ATOM     18  C   UNL     1     -39.304  -7.425  13.117 -0.18 +0.00    +0.006 A  
DOCKED: ATOM     19  C   UNL     1     -38.384  -6.935  12.190 -0.15 +0.00    +0.001 A  
DOCKED: ATOM     20  C   UNL     1     -38.733  -5.868  11.361 -0.12 +0.00    +0.029 A  
DOCKED: ATOM     21  C   UNL     1     -39.999  -5.293  11.459 -0.11 +0.00    +0.140 A  
DOCKED: ATOM     22  C   UNL     1     -40.919  -5.784  12.386 -0.16 +0.00    +0.029 A  
DOCKED: ATOM     23  F   UNL     1     -40.334  -4.270  10.662 -0.03 -0.00    -0.204 F  
DOCKED: ATOM     24  C   UNL     1     -40.571  -6.851  13.216 -0.17 +0.00    +0.001 A  
DOCKED: ENDBRANCH   2  18
DOCKED: TORSDOF 5
DOCKED: TER
DOCKED: ENDMDL
________________________________________________________________________________


    FINAL DOCKED STATE:
    ________________________


Run:   229 / 512
Time taken for this run:   0.002s

DOCKED: MODEL        229
DOCKED: USER    Run = 229
DOCKED: USER
DOCKED: USER    Estimated Free Energy of Binding    =  -5.60 kcal/mol  [=(1)+(2)+(3)-(4)]
DOCKED: USER
DOCKED: USER    (1) Final Intermolecular Energy     =  -7.09 kcal/mol
DOCKED: USER        vdW + Hbond + desolv Energy     =  -7.09 kcal/mol
DOCKED: USER        Electrostatic Energy            =  +0.00 kcal/mol
DOCKED: USER        Moving Ligand-Fixed Receptor    =  -7.09 kcal/mol
DOCKED: USER        Moving Ligand-Moving Receptor   =  +0.00 kcal/mol
DOCKED: USER    (2) Final Total Internal Energy     =  -0.85 kcal/mol
DOCKED: USER    (3) Torsional Free Energy           =  +1.49 kcal/mol
DOCKED: USER    (4) Unbound System's Energy         =  -0.85 kcal/mol
DOCKED: USER
DOCKED: USER
DOCKED: REMARK  5 active torsions:
DOCKED: REMARK  status: ('A' for Active; 'I' for Inactive)
DOCKED: REMARK    1  A    between atoms: C_2  and  C_19 
DOCKED: REMARK    2  A    between atoms: C_2  and  C_11 
DOCKED: REMARK    3  A    between atoms: C_19  and  C_20 
DOCKED: REMARK    4  A    between atoms: C_20  and  C_21 
DOCKED: REMARK    5  A    between atoms: C_21  and  N_22 
DOCKED: USER                              x       y       z     vdW  Elec       q    Type
DOCKED: USER                           _______ _______ _______ _____ _____    ______ ____
DOCKED: ROOT
DOCKED: ATOM      1  O   UNL     1     -41.218 -11.855  14.341 -0.00 -0.00    -0.346 OA 
DOCKED: ATOM      2  C   UNL     1     -39.772 -11.679  14.200 -0.10 +0.00    +0.130 C  
DOCKED: ATOM      3  C   UNL     1     -39.506 -12.029  12.764 -0.23 +0.00    +0.004 A  
DOCKED: ATOM      4  C   UNL     1     -40.707 -12.275  12.113 -0.28 +0.00    +0.006 A  
DOCKED: ATOM      5  C   UNL     1     -41.834 -12.096  13.055 -0.17 +0.00    +0.169 C  
DOCKED: ATOM      6  C   UNL     1     -38.299 -12.112  12.085 -0.35 -0.00    -0.001 A  
DOCKED: ATOM      7  C   UNL     1     -40.743 -12.615  10.772 -0.24 +0.00    +0.008 A  
DOCKED: ATOM      8  C   UNL     1     -38.318 -12.457  10.733 -0.36 +0.00    +0.010 A  
DOCKED: ATOM      9  C   UNL     1     -39.534 -12.707  10.080 -0.33 +0.00    +0.068 A  
DOCKED: ATOM     10  N   UNL     1     -39.535 -13.341   7.568 -2.99 -0.00    -0.191 NA 
DOCKED: ATOM     11  C   UNL     1     -39.535 -13.057   8.695 -0.25 +0.00    +0.101 C  
DOCKED: ENDROOT
DOCKED: BRANCH   2  12
DOCKED: ATOM     12  C   UNL     1     -39.427 -10.232  14.531 -0.10 +0.00    +0.038 C  
DOCKED: BRANCH  12  13
DOCKED: ATOM     13  C   UNL     1     -39.597  -9.326  13.314 -0.22 +0.00    +0.038 C  
DOCKED: BRANCH  13  14
DOCKED: ATOM     14  C   UNL     1     -39.841  -7.878  13.736 -0.10 +0.00    +0.251 C  
DOCKED: BRANCH  14  15
DOCKED: ATOM     15  N   UNL     1     -40.153  -7.056  12.573 -0.20 +0.00    +0.141 N  
DOCKED: ATOM     16  C   UNL     1     -41.586  -6.767  12.515 -0.13 +0.00    +0.285 C  
DOCKED: ATOM     17  C   UNL     1     -39.384  -5.810  12.601 -0.11 +0.00    +0.285 C  
DOCKED: ENDBRANCH  14  15
DOCKED: ENDBRANCH  13  14
DOCKED: ENDBRANCH  12  13
DOCKED: ENDBRANCH   2  12
DOCKED: BRANCH   2  18
DOCKED: ATOM     18  C   UNL     1     -39.122 -12.621  15.158 -0.14 +0.00    +0.006 A  
DOCKED: ATOM     19  C   UNL     1     -39.730 -12.899  16.381 -0.12 +0.00    +0.001 A  
DOCKED: ATOM     20  C   UNL     1     -39.121 -13.779  17.277 -0.15 +0.00    +0.029 A  
DOCKED: ATOM     21  C   UNL     1     -37.907 -14.380  16.947 -0.02 +0.00    +0.140 A  
DOCKED: ATOM     22  C   UNL     1     -37.300 -14.102  15.723 -0.18 +0.00    +0.029 A  
DOCKED: ATOM     23  F   UNL     1     -37.324 -15.227  17.806 -0.10 -0.00    -0.204 F  
DOCKED: ATOM     24  C   UNL     1     -37.908 -13.221  14.827 -0.23 +0.00    +0.001 A  
DOCKED: ENDBRANCH   2  18
DOCKED: TORSDOF 5
DOCKED: TER
DOCKED: ENDMDL
________________________________________________________________________________


    FINAL DOCKED STATE:
    ________________________


Run:   230 / 512
Time taken for this run:   0.002s

DOCKED: MODEL        230
DOCKED: USER    Run = 230
DOCKED: USER
DOCKED: USER    Estimated Free Energy of Binding    =  -4.11 kcal/mol  [=(1)+(2)+(3)-(4)]
DOCKED: USER
DOCKED: USER    (1) Final Intermolecular Energy     =  -5.60 kcal/mol
DOCKED: USER        vdW + Hbond + desolv Energy     =  -5.60 kcal/mol
DOCKED: USER        Electrostatic Energy            =  +0.00 kcal/mol
DOCKED: USER        Moving Ligand-Fixed Receptor    =  -5.60 kcal/mol
DOCKED: USER        Moving Ligand-Moving Receptor   =  +0.00 kcal/mol
DOCKED: USER    (2) Final Total Internal Energy     =  -1.40 kcal/mol
DOCKED: USER    (3) Torsional Free Energy           =  +1.49 kcal/mol
DOCKED: USER    (4) Unbound System's Energy         =  -1.40 kcal/mol
DOCKED: USER
DOCKED: USER
DOCKED: REMARK  5 active torsions:
DOCKED: REMARK  status: ('A' for Active; 'I' for Inactive)
DOCKED: REMARK    1  A    between atoms: C_2  and  C_19 
DOCKED: REMARK    2  A    between atoms: C_2  and  C_11 
DOCKED: REMARK    3  A    between atoms: C_19  and  C_20 
DOCKED: REMARK    4  A    between atoms: C_20  and  C_21 
DOCKED: REMARK    5  A    between atoms: C_21  and  N_22 
DOCKED: USER                              x       y       z     vdW  Elec       q    Type
DOCKED: USER                           _______ _______ _______ _____ _____    ______ ____
DOCKED: ROOT
DOCKED: ATOM      1  O   UNL     1     -36.689  -8.388  13.379 -0.05 -0.00    -0.346 OA 
DOCKED: ATOM      2  C   UNL     1     -35.862  -9.454  13.946 -0.12 +0.00    +0.130 C  
DOCKED: ATOM      3  C   UNL     1     -36.539 -10.715  13.489 -0.21 +0.00    +0.004 A  
DOCKED: ATOM      4  C   UNL     1     -37.593 -10.399  12.645 -0.27 +0.00    +0.006 A  
DOCKED: ATOM      5  C   UNL     1     -37.679  -8.931  12.476 -0.17 +0.00    +0.169 C  
DOCKED: ATOM      6  C   UNL     1     -36.238 -12.035  13.788 -0.26 -0.00    -0.001 A  
DOCKED: ATOM      7  C   UNL     1     -38.382 -11.385  12.076 -0.32 +0.00    +0.008 A  
DOCKED: ATOM      8  C   UNL     1     -37.026 -13.041  13.226 -0.35 +0.00    +0.010 A  
DOCKED: ATOM      9  C   UNL     1     -38.092 -12.717  12.374 -0.31 +0.00    +0.068 A  
DOCKED: ATOM     10  N   UNL     1     -39.533 -14.608  11.344 -2.56 -0.00    -0.191 NA 
DOCKED: ATOM     11  C   UNL     1     -38.887 -13.760  11.807 -0.36 +0.00    +0.101 C  
DOCKED: ENDROOT
DOCKED: BRANCH   2  12
DOCKED: ATOM     12  C   UNL     1     -34.447  -9.310  13.401 -0.11 +0.00    +0.038 C  
DOCKED: BRANCH  12  13
DOCKED: ATOM     13  C   UNL     1     -33.839  -7.960  13.780 -0.07 +0.00    +0.038 C  
DOCKED: BRANCH  13  14
DOCKED: ATOM     14  C   UNL     1     -33.768  -7.031  12.569 -0.04 +0.00    +0.251 C  
DOCKED: BRANCH  14  15
DOCKED: ATOM     15  N   UNL     1     -34.798  -7.382  11.599 -0.11 +0.00    +0.141 N  
DOCKED: ATOM     16  C   UNL     1     -35.729  -6.269  11.409 -0.07 +0.00    +0.285 C  
DOCKED: ATOM     17  C   UNL     1     -34.193  -7.762  10.321 -0.11 +0.00    +0.285 C  
DOCKED: ENDBRANCH  14  15
DOCKED: ENDBRANCH  13  14
DOCKED: ENDBRANCH  12  13
DOCKED: ENDBRANCH   2  12
DOCKED: BRANCH   2  18
DOCKED: ATOM     18  C   UNL     1     -35.888  -9.285  15.429 -0.04 +0.00    +0.006 A  
DOCKED: ATOM     19  C   UNL     1     -35.146 -10.142  16.241 -0.05 +0.00    +0.001 A  
DOCKED: ATOM     20  C   UNL     1     -35.172  -9.983  17.627 -0.01 +0.00    +0.029 A  
DOCKED: ATOM     21  C   UNL     1     -35.937  -8.968  18.198 -0.00 +0.00    +0.140 A  
DOCKED: ATOM     22  C   UNL     1     -36.679  -8.111  17.385 -0.00 +0.00    +0.029 A  
DOCKED: ATOM     23  F   UNL     1     -35.960  -8.814  19.529 +0.00 -0.00    -0.204 F  
DOCKED: ATOM     24  C   UNL     1     -36.655  -8.270  15.999 -0.02 +0.00    +0.001 A  
DOCKED: ENDBRANCH   2  18
DOCKED: TORSDOF 5
DOCKED: TER
DOCKED: ENDMDL
________________________________________________________________________________


    FINAL DOCKED STATE:
    ________________________


Run:   231 / 512
Time taken for this run:   0.002s

DOCKED: MODEL        231
DOCKED: USER    Run = 231
DOCKED: USER
DOCKED: USER    Estimated Free Energy of Binding    =  -3.78 kcal/mol  [=(1)+(2)+(3)-(4)]
DOCKED: USER
DOCKED: USER    (1) Final Intermolecular Energy     =  -5.28 kcal/mol
DOCKED: USER        vdW + Hbond + desolv Energy     =  -5.28 kcal/mol
DOCKED: USER        Electrostatic Energy            =  +0.00 kcal/mol
DOCKED: USER        Moving Ligand-Fixed Receptor    =  -5.28 kcal/mol
DOCKED: USER        Moving Ligand-Moving Receptor   =  +0.00 kcal/mol
DOCKED: USER    (2) Final Total Internal Energy     =  -1.34 kcal/mol
DOCKED: USER    (3) Torsional Free Energy           =  +1.49 kcal/mol
DOCKED: USER    (4) Unbound System's Energy         =  -1.34 kcal/mol
DOCKED: USER
DOCKED: USER
DOCKED: REMARK  5 active torsions:
DOCKED: REMARK  status: ('A' for Active; 'I' for Inactive)
DOCKED: REMARK    1  A    between atoms: C_2  and  C_19 
DOCKED: REMARK    2  A    between atoms: C_2  and  C_11 
DOCKED: REMARK    3  A    between atoms: C_19  and  C_20 
DOCKED: REMARK    4  A    between atoms: C_20  and  C_21 
DOCKED: REMARK    5  A    between atoms: C_21  and  N_22 
DOCKED: USER                              x       y       z     vdW  Elec       q    Type
DOCKED: USER                           _______ _______ _______ _____ _____    ______ ____
DOCKED: ROOT
DOCKED: ATOM      1  O   UNL     1     -31.512  -0.339   4.755 -0.07 -0.00    -0.346 OA 
DOCKED: ATOM      2  C   UNL     1     -31.458  -1.774   4.473 -0.10 +0.00    +0.130 C  
DOCKED: ATOM      3  C   UNL     1     -32.785  -2.066   3.836 -0.17 +0.00    +0.004 A  
DOCKED: ATOM      4  C   UNL     1     -33.493  -0.884   3.668 -0.21 +0.00    +0.006 A  
DOCKED: ATOM      5  C   UNL     1     -32.689   0.257   4.161 -0.22 +0.00    +0.169 C  
DOCKED: ATOM      6  C   UNL     1     -33.320  -3.279   3.428 -0.19 -0.00    -0.001 A  
DOCKED: ATOM      7  C   UNL     1     -34.752  -0.873   3.093 -0.25 +0.00    +0.008 A  
DOCKED: ATOM      8  C   UNL     1     -34.591  -3.286   2.851 -0.14 +0.00    +0.010 A  
DOCKED: ATOM      9  C   UNL     1     -35.303  -2.089   2.685 -0.37 +0.00    +0.068 A  
DOCKED: ATOM     10  N   UNL     1     -37.658  -2.135   1.606 -2.48 -0.00    -0.191 NA 
DOCKED: ATOM     11  C   UNL     1     -36.602  -2.114   2.090 -0.25 +0.00    +0.101 C  
DOCKED: ENDROOT
DOCKED: BRANCH   2  12
DOCKED: ATOM     12  C   UNL     1     -30.281  -2.038   3.540 -0.04 +0.00    +0.038 C  
DOCKED: BRANCH  12  13
DOCKED: ATOM     13  C   UNL     1     -30.538  -1.471   2.145 -0.05 +0.00    +0.038 C  
DOCKED: BRANCH  13  14
DOCKED: ATOM     14  C   UNL     1     -31.047  -2.555   1.197 -0.01 +0.00    +0.251 C  
DOCKED: BRANCH  14  15
DOCKED: ATOM     15  N   UNL     1     -31.468  -1.965  -0.069 -0.05 +0.00    +0.141 N  
DOCKED: ATOM     16  C   UNL     1     -32.845  -2.349  -0.385 -0.12 +0.00    +0.285 C  
DOCKED: ATOM     17  C   UNL     1     -31.345  -0.507  -0.024 -0.06 +0.00    +0.285 C  
DOCKED: ENDBRANCH  14  15
DOCKED: ENDBRANCH  13  14
DOCKED: ENDBRANCH  12  13
DOCKED: ENDBRANCH   2  12
DOCKED: BRANCH   2  18
DOCKED: ATOM     18  C   UNL     1     -31.274  -2.469   5.781 -0.12 +0.00    +0.006 A  
DOCKED: ATOM     19  C   UNL     1     -29.990  -2.715   6.265 -0.05 +0.00    +0.001 A  
DOCKED: ATOM     20  C   UNL     1     -29.820  -3.365   7.487 -0.04 +0.00    +0.029 A  
DOCKED: ATOM     21  C   UNL     1     -30.933  -3.768   8.224 -0.05 +0.00    +0.140 A  
DOCKED: ATOM     22  C   UNL     1     -32.217  -3.521   7.739 -0.12 +0.00    +0.029 A  
DOCKED: ATOM     23  F   UNL     1     -30.770  -4.390   9.399 -0.00 -0.00    -0.204 F  
DOCKED: ATOM     24  C   UNL     1     -32.388  -2.871   6.516 -0.12 +0.00    +0.001 A  
DOCKED: ENDBRANCH   2  18
DOCKED: TORSDOF 5
DOCKED: TER
DOCKED: ENDMDL
________________________________________________________________________________


    FINAL DOCKED STATE:
    ________________________


Run:   232 / 512
Time taken for this run:   0.002s

DOCKED: MODEL        232
DOCKED: USER    Run = 232
DOCKED: USER
DOCKED: USER    Estimated Free Energy of Binding    =  -4.13 kcal/mol  [=(1)+(2)+(3)-(4)]
DOCKED: USER
DOCKED: USER    (1) Final Intermolecular Energy     =  -5.62 kcal/mol
DOCKED: USER        vdW + Hbond + desolv Energy     =  -5.62 kcal/mol
DOCKED: USER        Electrostatic Energy            =  +0.00 kcal/mol
DOCKED: USER        Moving Ligand-Fixed Receptor    =  -5.62 kcal/mol
DOCKED: USER        Moving Ligand-Moving Receptor   =  +0.00 kcal/mol
DOCKED: USER    (2) Final Total Internal Energy     =  -0.72 kcal/mol
DOCKED: USER    (3) Torsional Free Energy           =  +1.49 kcal/mol
DOCKED: USER    (4) Unbound System's Energy         =  -0.72 kcal/mol
DOCKED: USER
DOCKED: USER
DOCKED: REMARK  5 active torsions:
DOCKED: REMARK  status: ('A' for Active; 'I' for Inactive)
DOCKED: REMARK    1  A    between atoms: C_2  and  C_19 
DOCKED: REMARK    2  A    between atoms: C_2  and  C_11 
DOCKED: REMARK    3  A    between atoms: C_19  and  C_20 
DOCKED: REMARK    4  A    between atoms: C_20  and  C_21 
DOCKED: REMARK    5  A    between atoms: C_21  and  N_22 
DOCKED: USER                              x       y       z     vdW  Elec       q    Type
DOCKED: USER                           _______ _______ _______ _____ _____    ______ ____
DOCKED: ROOT
DOCKED: ATOM      1  O   UNL     1     -30.330  -8.367   7.064 +0.01 -0.00    -0.346 OA 
DOCKED: ATOM      2  C   UNL     1     -31.667  -8.855   6.725 -0.09 +0.00    +0.130 C  
DOCKED: ATOM      3  C   UNL     1     -31.783 -10.145   7.484 -0.17 +0.00    +0.004 A  
DOCKED: ATOM      4  C   UNL     1     -30.657 -10.325   8.274 -0.09 +0.00    +0.006 A  
DOCKED: ATOM      5  C   UNL     1     -29.737  -9.177   8.106 -0.02 +0.00    +0.169 C  
DOCKED: ATOM      6  C   UNL     1     -32.808 -11.080   7.483 -0.31 -0.00    -0.001 A  
DOCKED: ATOM      7  C   UNL     1     -30.514 -11.439   9.083 -0.14 +0.00    +0.008 A  
DOCKED: ATOM      8  C   UNL     1     -32.677 -12.211   8.290 -0.26 +0.00    +0.010 A  
DOCKED: ATOM      9  C   UNL     1     -31.536 -12.389   9.087 -0.24 +0.00    +0.068 A  
DOCKED: ATOM     10  N   UNL     1     -31.327 -14.498  10.578 -2.13 -0.00    -0.191 NA 
DOCKED: ATOM     11  C   UNL     1     -31.420 -13.553   9.908 -0.23 +0.00    +0.101 C  
DOCKED: ENDROOT
DOCKED: BRANCH   2  12
DOCKED: ATOM     12  C   UNL     1     -32.688  -7.813   7.167 -0.11 +0.00    +0.038 C  
DOCKED: BRANCH  12  13
DOCKED: ATOM     13  C   UNL     1     -34.072  -8.110   6.593 -0.23 +0.00    +0.038 C  
DOCKED: BRANCH  13  14
DOCKED: ATOM     14  C   UNL     1     -35.137  -7.228   7.242 -0.15 +0.00    +0.251 C  
DOCKED: BRANCH  14  15
DOCKED: ATOM     15  N   UNL     1     -35.284  -5.981   6.500 -0.19 +0.00    +0.141 N  
DOCKED: ATOM     16  C   UNL     1     -36.522  -5.299   6.878 -0.19 +0.00    +0.285 C  
DOCKED: ATOM     17  C   UNL     1     -34.132  -5.107   6.729 -0.10 +0.00    +0.285 C  
DOCKED: ENDBRANCH  14  15
DOCKED: ENDBRANCH  13  14
DOCKED: ENDBRANCH  12  13
DOCKED: ENDBRANCH   2  12
DOCKED: BRANCH   2  18
DOCKED: ATOM     18  C   UNL     1     -31.699  -9.046   5.245 -0.15 +0.00    +0.006 A  
DOCKED: ATOM     19  C   UNL     1     -32.195  -8.035   4.423 -0.16 +0.00    +0.001 A  
DOCKED: ATOM     20  C   UNL     1     -32.225  -8.215   3.039 -0.20 +0.00    +0.029 A  
DOCKED: ATOM     21  C   UNL     1     -31.759  -9.404   2.481 -0.18 +0.00    +0.140 A  
DOCKED: ATOM     22  C   UNL     1     -31.263 -10.415   3.304 -0.11 +0.00    +0.029 A  
DOCKED: ATOM     23  F   UNL     1     -31.786  -9.575   1.153 -0.06 -0.00    -0.204 F  
DOCKED: ATOM     24  C   UNL     1     -31.233 -10.236   4.688 -0.09 +0.00    +0.001 A  
DOCKED: ENDBRANCH   2  18
DOCKED: TORSDOF 5
DOCKED: TER
DOCKED: ENDMDL
________________________________________________________________________________


    FINAL DOCKED STATE:
    ________________________


Run:   233 / 512
Time taken for this run:   0.002s

DOCKED: MODEL        233
DOCKED: USER    Run = 233
DOCKED: USER
DOCKED: USER    Estimated Free Energy of Binding    =  -5.51 kcal/mol  [=(1)+(2)+(3)-(4)]
DOCKED: USER
DOCKED: USER    (1) Final Intermolecular Energy     =  -7.00 kcal/mol
DOCKED: USER        vdW + Hbond + desolv Energy     =  -7.00 kcal/mol
DOCKED: USER        Electrostatic Energy            =  +0.00 kcal/mol
DOCKED: USER        Moving Ligand-Fixed Receptor    =  -7.00 kcal/mol
DOCKED: USER        Moving Ligand-Moving Receptor   =  +0.00 kcal/mol
DOCKED: USER    (2) Final Total Internal Energy     =  -0.03 kcal/mol
DOCKED: USER    (3) Torsional Free Energy           =  +1.49 kcal/mol
DOCKED: USER    (4) Unbound System's Energy         =  -0.03 kcal/mol
DOCKED: USER
DOCKED: USER
DOCKED: REMARK  5 active torsions:
DOCKED: REMARK  status: ('A' for Active; 'I' for Inactive)
DOCKED: REMARK    1  A    between atoms: C_2  and  C_19 
DOCKED: REMARK    2  A    between atoms: C_2  and  C_11 
DOCKED: REMARK    3  A    between atoms: C_19  and  C_20 
DOCKED: REMARK    4  A    between atoms: C_20  and  C_21 
DOCKED: REMARK    5  A    between atoms: C_21  and  N_22 
DOCKED: USER                              x       y       z     vdW  Elec       q    Type
DOCKED: USER                           _______ _______ _______ _____ _____    ______ ____
DOCKED: ROOT
DOCKED: ATOM      1  O   UNL     1     -37.133 -12.813  13.870 -0.11 -0.00    -0.346 OA 
DOCKED: ATOM      2  C   UNL     1     -38.591 -12.899  13.963 -0.19 +0.00    +0.130 C  
DOCKED: ATOM      3  C   UNL     1     -39.038 -12.995  12.532 -0.29 +0.00    +0.004 A  
DOCKED: ATOM      4  C   UNL     1     -37.929 -13.070  11.701 -0.41 +0.00    +0.006 A  
DOCKED: ATOM      5  C   UNL     1     -36.691 -13.042  12.512 -0.16 +0.00    +0.169 C  
DOCKED: ATOM      6  C   UNL     1     -40.322 -13.026  12.010 -0.31 -0.00    -0.001 A  
DOCKED: ATOM      7  C   UNL     1     -38.064 -13.173  10.327 -0.23 +0.00    +0.008 A  
DOCKED: ATOM      8  C   UNL     1     -40.475 -13.125  10.626 -0.32 +0.00    +0.010 A  
DOCKED: ATOM      9  C   UNL     1     -39.351 -13.198   9.789 -0.42 +0.00    +0.068 A  
DOCKED: ATOM     10  N   UNL     1     -39.670 -13.387   7.225 -3.15 -0.00    -0.191 NA 
DOCKED: ATOM     11  C   UNL     1     -39.527 -13.302   8.375 -0.28 +0.00    +0.101 C  
DOCKED: ENDROOT
DOCKED: BRANCH   2  12
DOCKED: ATOM     12  C   UNL     1     -38.951 -14.134  14.781 -0.29 +0.00    +0.038 C  
DOCKED: BRANCH  12  13
DOCKED: ATOM     13  C   UNL     1     -38.256 -14.122  16.141 -0.18 +0.00    +0.038 C  
DOCKED: BRANCH  13  14
DOCKED: ATOM     14  C   UNL     1     -37.273 -12.957  16.246 -0.11 +0.00    +0.251 C  
DOCKED: BRANCH  14  15
DOCKED: ATOM     15  N   UNL     1     -37.012 -12.639  17.645 -0.08 +0.00    +0.141 N  
DOCKED: ATOM     16  C   UNL     1     -37.642 -11.370  18.012 -0.01 +0.00    +0.285 C  
DOCKED: ATOM     17  C   UNL     1     -37.490 -13.714  18.516 -0.09 +0.00    +0.285 C  
DOCKED: ENDBRANCH  14  15
DOCKED: ENDBRANCH  13  14
DOCKED: ENDBRANCH  12  13
DOCKED: ENDBRANCH   2  12
DOCKED: BRANCH   2  18
DOCKED: ATOM     18  C   UNL     1     -39.060 -11.652  14.635 -0.10 +0.00    +0.006 A  
DOCKED: ATOM     19  C   UNL     1     -40.182 -11.686  15.462 -0.07 +0.00    +0.001 A  
DOCKED: ATOM     20  C   UNL     1     -40.619 -10.519  16.090 -0.03 +0.00    +0.029 A  
DOCKED: ATOM     21  C   UNL     1     -39.934  -9.322  15.892 -0.01 +0.00    +0.140 A  
DOCKED: ATOM     22  C   UNL     1     -38.812  -9.289  15.065 -0.05 +0.00    +0.029 A  
DOCKED: ATOM     23  F   UNL     1     -40.353  -8.202  16.496 +0.00 -0.00    -0.204 F  
DOCKED: ATOM     24  C   UNL     1     -38.374 -10.455  14.435 -0.10 +0.00    +0.001 A  
DOCKED: ENDBRANCH   2  18
DOCKED: TORSDOF 5
DOCKED: TER
DOCKED: ENDMDL
________________________________________________________________________________


    FINAL DOCKED STATE:
    ________________________


Run:   234 / 512
Time taken for this run:   0.002s

DOCKED: MODEL        234
DOCKED: USER    Run = 234
DOCKED: USER
DOCKED: USER    Estimated Free Energy of Binding    =  -4.27 kcal/mol  [=(1)+(2)+(3)-(4)]
DOCKED: USER
DOCKED: USER    (1) Final Intermolecular Energy     =  -5.76 kcal/mol
DOCKED: USER        vdW + Hbond + desolv Energy     =  -5.76 kcal/mol
DOCKED: USER        Electrostatic Energy            =  +0.00 kcal/mol
DOCKED: USER        Moving Ligand-Fixed Receptor    =  -5.76 kcal/mol
DOCKED: USER        Moving Ligand-Moving Receptor   =  +0.00 kcal/mol
DOCKED: USER    (2) Final Total Internal Energy     =  -1.38 kcal/mol
DOCKED: USER    (3) Torsional Free Energy           =  +1.49 kcal/mol
DOCKED: USER    (4) Unbound System's Energy         =  -1.38 kcal/mol
DOCKED: USER
DOCKED: USER
DOCKED: REMARK  5 active torsions:
DOCKED: REMARK  status: ('A' for Active; 'I' for Inactive)
DOCKED: REMARK    1  A    between atoms: C_2  and  C_19 
DOCKED: REMARK    2  A    between atoms: C_2  and  C_11 
DOCKED: REMARK    3  A    between atoms: C_19  and  C_20 
DOCKED: REMARK    4  A    between atoms: C_20  and  C_21 
DOCKED: REMARK    5  A    between atoms: C_21  and  N_22 
DOCKED: USER                              x       y       z     vdW  Elec       q    Type
DOCKED: USER                           _______ _______ _______ _____ _____    ______ ____
DOCKED: ROOT
DOCKED: ATOM      1  O   UNL     1     -34.614 -10.446  14.368 -0.08 -0.00    -0.346 OA 
DOCKED: ATOM      2  C   UNL     1     -35.603  -9.574  13.733 -0.14 +0.00    +0.130 C  
DOCKED: ATOM      3  C   UNL     1     -36.580 -10.531  13.113 -0.21 +0.00    +0.004 A  
DOCKED: ATOM      4  C   UNL     1     -36.242 -11.832  13.457 -0.20 +0.00    +0.006 A  
DOCKED: ATOM      5  C   UNL     1     -35.043 -11.826  14.325 -0.17 +0.00    +0.169 C  
DOCKED: ATOM      6  C   UNL     1     -37.687 -10.270  12.318 -0.27 -0.00    -0.001 A  
DOCKED: ATOM      7  C   UNL     1     -36.989 -12.911  13.018 -0.34 +0.00    +0.008 A  
DOCKED: ATOM      8  C   UNL     1     -38.448 -11.348  11.864 -0.32 +0.00    +0.010 A  
DOCKED: ATOM      9  C   UNL     1     -38.101 -12.662  12.212 -0.31 +0.00    +0.068 A  
DOCKED: ATOM     10  N   UNL     1     -39.540 -14.640  11.356 -2.55 -0.00    -0.191 NA 
DOCKED: ATOM     11  C   UNL     1     -38.894 -13.753  11.740 -0.37 +0.00    +0.101 C  
DOCKED: ENDROOT
DOCKED: BRANCH   2  12
DOCKED: ATOM     12  C   UNL     1     -36.233  -8.696  14.807 -0.06 +0.00    +0.038 C  
DOCKED: BRANCH  12  13
DOCKED: ATOM     13  C   UNL     1     -35.781  -9.114  16.205 -0.02 +0.00    +0.038 C  
DOCKED: BRANCH  13  14
DOCKED: ATOM     14  C   UNL     1     -36.912  -9.803  16.965 -0.01 +0.00    +0.251 C  
DOCKED: BRANCH  14  15
DOCKED: ATOM     15  N   UNL     1     -38.147  -9.754  16.191 -0.02 +0.00    +0.141 N  
DOCKED: ATOM     16  C   UNL     1     -38.706 -11.097  16.027 -0.01 +0.00    +0.285 C  
DOCKED: ATOM     17  C   UNL     1     -39.124  -8.873  16.833 -0.00 +0.00    +0.285 C  
DOCKED: ENDBRANCH  14  15
DOCKED: ENDBRANCH  13  14
DOCKED: ENDBRANCH  12  13
DOCKED: ENDBRANCH   2  12
DOCKED: BRANCH   2  18
DOCKED: ATOM     18  C   UNL     1     -34.875  -8.751  12.723 -0.13 +0.00    +0.006 A  
DOCKED: ATOM     19  C   UNL     1     -35.578  -7.858  11.915 -0.15 +0.00    +0.001 A  
DOCKED: ATOM     20  C   UNL     1     -34.896  -7.090  10.970 -0.12 +0.00    +0.029 A  
DOCKED: ATOM     21  C   UNL     1     -33.514  -7.214  10.837 -0.08 +0.00    +0.140 A  
DOCKED: ATOM     22  C   UNL     1     -32.812  -8.107  11.646 -0.10 +0.00    +0.029 A  
DOCKED: ATOM     23  F   UNL     1     -32.859  -6.475   9.932 -0.00 -0.00    -0.204 F  
DOCKED: ATOM     24  C   UNL     1     -33.493  -8.877  12.590 -0.09 +0.00    +0.001 A  
DOCKED: ENDBRANCH   2  18
DOCKED: TORSDOF 5
DOCKED: TER
DOCKED: ENDMDL
________________________________________________________________________________


    FINAL DOCKED STATE:
    ________________________


Run:   235 / 512
Time taken for this run:   0.002s

DOCKED: MODEL        235
DOCKED: USER    Run = 235
DOCKED: USER
DOCKED: USER    Estimated Free Energy of Binding    =  -4.61 kcal/mol  [=(1)+(2)+(3)-(4)]
DOCKED: USER
DOCKED: USER    (1) Final Intermolecular Energy     =  -6.10 kcal/mol
DOCKED: USER        vdW + Hbond + desolv Energy     =  -6.10 kcal/mol
DOCKED: USER        Electrostatic Energy            =  +0.00 kcal/mol
DOCKED: USER        Moving Ligand-Fixed Receptor    =  -6.10 kcal/mol
DOCKED: USER        Moving Ligand-Moving Receptor   =  +0.00 kcal/mol
DOCKED: USER    (2) Final Total Internal Energy     =  -1.27 kcal/mol
DOCKED: USER    (3) Torsional Free Energy           =  +1.49 kcal/mol
DOCKED: USER    (4) Unbound System's Energy         =  -1.27 kcal/mol
DOCKED: USER
DOCKED: USER
DOCKED: REMARK  5 active torsions:
DOCKED: REMARK  status: ('A' for Active; 'I' for Inactive)
DOCKED: REMARK    1  A    between atoms: C_2  and  C_19 
DOCKED: REMARK    2  A    between atoms: C_2  and  C_11 
DOCKED: REMARK    3  A    between atoms: C_19  and  C_20 
DOCKED: REMARK    4  A    between atoms: C_20  and  C_21 
DOCKED: REMARK    5  A    between atoms: C_21  and  N_22 
DOCKED: USER                              x       y       z     vdW  Elec       q    Type
DOCKED: USER                           _______ _______ _______ _____ _____    ______ ____
DOCKED: ROOT
DOCKED: ATOM      1  O   UNL     1     -35.837  -4.390   7.276 -0.11 -0.00    -0.346 OA 
DOCKED: ATOM      2  C   UNL     1     -34.513  -4.368   6.652 -0.19 +0.00    +0.130 C  
DOCKED: ATOM      3  C   UNL     1     -34.760  -3.747   5.308 -0.25 +0.00    +0.004 A  
DOCKED: ATOM      4  C   UNL     1     -36.086  -3.348   5.214 -0.13 +0.00    +0.006 A  
DOCKED: ATOM      5  C   UNL     1     -36.795  -3.661   6.475 -0.14 +0.00    +0.169 C  
DOCKED: ATOM      6  C   UNL     1     -33.879  -3.542   4.256 -0.23 -0.00    -0.001 A  
DOCKED: ATOM      7  C   UNL     1     -36.576  -2.738   4.072 -0.21 +0.00    +0.008 A  
DOCKED: ATOM      8  C   UNL     1     -34.359  -2.932   3.096 -0.28 +0.00    +0.010 A  
DOCKED: ATOM      9  C   UNL     1     -35.700  -2.531   3.005 -0.30 +0.00    +0.068 A  
DOCKED: ATOM     10  N   UNL     1     -36.557  -1.397   0.839 -2.54 -0.00    -0.191 NA 
DOCKED: ATOM     11  C   UNL     1     -36.173  -1.906   1.810 -0.32 +0.00    +0.101 C  
DOCKED: ENDROOT
DOCKED: BRANCH   2  12
DOCKED: ATOM     12  C   UNL     1     -33.581  -3.538   7.527 -0.15 +0.00    +0.038 C  
DOCKED: BRANCH  12  13
DOCKED: ATOM     13  C   UNL     1     -33.605  -4.016   8.977 -0.14 +0.00    +0.038 C  
DOCKED: BRANCH  13  14
DOCKED: ATOM     14  C   UNL     1     -34.662  -3.266   9.785 -0.12 +0.00    +0.251 C  
DOCKED: BRANCH  14  15
DOCKED: ATOM     15  N   UNL     1     -35.084  -4.063  10.931 -0.05 +0.00    +0.141 N  
DOCKED: ATOM     16  C   UNL     1     -34.605  -5.440  10.807 -0.04 +0.00    +0.285 C  
DOCKED: ATOM     17  C   UNL     1     -34.601  -3.468  12.179 -0.02 +0.00    +0.285 C  
DOCKED: ENDBRANCH  14  15
DOCKED: ENDBRANCH  13  14
DOCKED: ENDBRANCH  12  13
DOCKED: ENDBRANCH   2  12
DOCKED: BRANCH   2  18
DOCKED: ATOM     18  C   UNL     1     -34.049  -5.784   6.563 -0.14 +0.00    +0.006 A  
DOCKED: ATOM     19  C   UNL     1     -34.962  -6.827   6.715 -0.22 +0.00    +0.001 A  
DOCKED: ATOM     20  C   UNL     1     -34.526  -8.150   6.632 -0.14 +0.00    +0.029 A  
DOCKED: ATOM     21  C   UNL     1     -33.181  -8.428   6.396 -0.17 +0.00    +0.140 A  
DOCKED: ATOM     22  C   UNL     1     -32.269  -7.384   6.243 -0.08 +0.00    +0.029 A  
DOCKED: ATOM     23  F   UNL     1     -32.763  -9.698   6.314 -0.08 -0.00    -0.204 F  
DOCKED: ATOM     24  C   UNL     1     -32.703  -6.060   6.327 -0.07 +0.00    +0.001 A  
DOCKED: ENDBRANCH   2  18
DOCKED: TORSDOF 5
DOCKED: TER
DOCKED: ENDMDL
________________________________________________________________________________


    FINAL DOCKED STATE:
    ________________________


Run:   236 / 512
Time taken for this run:   0.002s

DOCKED: MODEL        236
DOCKED: USER    Run = 236
DOCKED: USER
DOCKED: USER    Estimated Free Energy of Binding    =  -3.91 kcal/mol  [=(1)+(2)+(3)-(4)]
DOCKED: USER
DOCKED: USER    (1) Final Intermolecular Energy     =  -5.40 kcal/mol
DOCKED: USER        vdW + Hbond + desolv Energy     =  -5.40 kcal/mol
DOCKED: USER        Electrostatic Energy            =  +0.00 kcal/mol
DOCKED: USER        Moving Ligand-Fixed Receptor    =  -5.40 kcal/mol
DOCKED: USER        Moving Ligand-Moving Receptor   =  +0.00 kcal/mol
DOCKED: USER    (2) Final Total Internal Energy     =  -1.32 kcal/mol
DOCKED: USER    (3) Torsional Free Energy           =  +1.49 kcal/mol
DOCKED: USER    (4) Unbound System's Energy         =  -1.32 kcal/mol
DOCKED: USER
DOCKED: USER
DOCKED: REMARK  5 active torsions:
DOCKED: REMARK  status: ('A' for Active; 'I' for Inactive)
DOCKED: REMARK    1  A    between atoms: C_2  and  C_19 
DOCKED: REMARK    2  A    between atoms: C_2  and  C_11 
DOCKED: REMARK    3  A    between atoms: C_19  and  C_20 
DOCKED: REMARK    4  A    between atoms: C_20  and  C_21 
DOCKED: REMARK    5  A    between atoms: C_21  and  N_22 
DOCKED: USER                              x       y       z     vdW  Elec       q    Type
DOCKED: USER                           _______ _______ _______ _____ _____    ______ ____
DOCKED: ROOT
DOCKED: ATOM      1  O   UNL     1     -36.749  -9.188  14.453 -0.02 -0.00    -0.346 OA 
DOCKED: ATOM      2  C   UNL     1     -38.203  -9.047  14.374 -0.08 +0.00    +0.130 C  
DOCKED: ATOM      3  C   UNL     1     -38.642 -10.266  13.615 -0.17 +0.00    +0.004 A  
DOCKED: ATOM      4  C   UNL     1     -37.549 -11.087  13.378 -0.23 +0.00    +0.006 A  
DOCKED: ATOM      5  C   UNL     1     -36.331 -10.484  13.965 -0.15 +0.00    +0.169 C  
DOCKED: ATOM      6  C   UNL     1     -39.909 -10.625  13.180 -0.20 -0.00    -0.001 A  
DOCKED: ATOM      7  C   UNL     1     -37.682 -12.285  12.698 -0.32 +0.00    +0.008 A  
DOCKED: ATOM      8  C   UNL     1     -40.059 -11.829  12.489 -0.24 +0.00    +0.010 A  
DOCKED: ATOM      9  C   UNL     1     -38.951 -12.655  12.250 -0.27 +0.00    +0.068 A  
DOCKED: ATOM     10  N   UNL     1     -39.265 -14.884  10.968 -2.37 -0.00    -0.191 NA 
DOCKED: ATOM     11  C   UNL     1     -39.124 -13.884  11.542 -0.37 +0.00    +0.101 C  
DOCKED: ENDROOT
DOCKED: BRANCH   2  12
DOCKED: ATOM     12  C   UNL     1     -38.761  -8.998  15.792 -0.03 +0.00    +0.038 C  
DOCKED: BRANCH  12  13
DOCKED: ATOM     13  C   UNL     1     -39.115 -10.394  16.299 -0.04 +0.00    +0.038 C  
DOCKED: BRANCH  13  14
DOCKED: ATOM     14  C   UNL     1     -37.962 -10.998  17.098 -0.01 +0.00    +0.251 C  
DOCKED: BRANCH  14  15
DOCKED: ATOM     15  N   UNL     1     -38.299 -12.347  17.536 -0.05 +0.00    +0.141 N  
DOCKED: ATOM     16  C   UNL     1     -39.750 -12.542  17.538 -0.03 +0.00    +0.285 C  
DOCKED: ATOM     17  C   UNL     1     -37.655 -13.343  16.678 -0.12 +0.00    +0.285 C  
DOCKED: ENDBRANCH  14  15
DOCKED: ENDBRANCH  13  14
DOCKED: ENDBRANCH  12  13
DOCKED: ENDBRANCH   2  12
DOCKED: BRANCH   2  18
DOCKED: ATOM     18  C   UNL     1     -38.480  -7.776  13.643 -0.12 +0.00    +0.006 A  
DOCKED: ATOM     19  C   UNL     1     -39.625  -7.037  13.938 -0.09 +0.00    +0.001 A  
DOCKED: ATOM     20  C   UNL     1     -39.882  -5.849  13.253 -0.10 +0.00    +0.029 A  
DOCKED: ATOM     21  C   UNL     1     -38.995  -5.401  12.275 -0.11 +0.00    +0.140 A  
DOCKED: ATOM     22  C   UNL     1     -37.850  -6.141  11.981 -0.13 +0.00    +0.029 A  
DOCKED: ATOM     23  F   UNL     1     -39.241  -4.260  11.619 -0.01 -0.00    -0.204 F  
DOCKED: ATOM     24  C   UNL     1     -37.592  -7.330  12.665 -0.15 +0.00    +0.001 A  
DOCKED: ENDBRANCH   2  18
DOCKED: TORSDOF 5
DOCKED: TER
DOCKED: ENDMDL
________________________________________________________________________________


    FINAL DOCKED STATE:
    ________________________


Run:   237 / 512
Time taken for this run:   0.002s

DOCKED: MODEL        237
DOCKED: USER    Run = 237
DOCKED: USER
DOCKED: USER    Estimated Free Energy of Binding    =  -4.36 kcal/mol  [=(1)+(2)+(3)-(4)]
DOCKED: USER
DOCKED: USER    (1) Final Intermolecular Energy     =  -5.85 kcal/mol
DOCKED: USER        vdW + Hbond + desolv Energy     =  -5.85 kcal/mol
DOCKED: USER        Electrostatic Energy            =  +0.00 kcal/mol
DOCKED: USER        Moving Ligand-Fixed Receptor    =  -5.85 kcal/mol
DOCKED: USER        Moving Ligand-Moving Receptor   =  +0.00 kcal/mol
DOCKED: USER    (2) Final Total Internal Energy     =  -1.44 kcal/mol
DOCKED: USER    (3) Torsional Free Energy           =  +1.49 kcal/mol
DOCKED: USER    (4) Unbound System's Energy         =  -1.44 kcal/mol
DOCKED: USER
DOCKED: USER
DOCKED: REMARK  5 active torsions:
DOCKED: REMARK  status: ('A' for Active; 'I' for Inactive)
DOCKED: REMARK    1  A    between atoms: C_2  and  C_19 
DOCKED: REMARK    2  A    between atoms: C_2  and  C_11 
DOCKED: REMARK    3  A    between atoms: C_19  and  C_20 
DOCKED: REMARK    4  A    between atoms: C_20  and  C_21 
DOCKED: REMARK    5  A    between atoms: C_21  and  N_22 
DOCKED: USER                              x       y       z     vdW  Elec       q    Type
DOCKED: USER                           _______ _______ _______ _____ _____    ______ ____
DOCKED: ROOT
DOCKED: ATOM      1  O   UNL     1     -35.007 -10.074  14.582 -0.06 -0.00    -0.346 OA 
DOCKED: ATOM      2  C   UNL     1     -35.976  -9.337  13.772 -0.13 +0.00    +0.130 C  
DOCKED: ATOM      3  C   UNL     1     -36.786 -10.414  13.111 -0.23 +0.00    +0.004 A  
DOCKED: ATOM      4  C   UNL     1     -36.388 -11.656  13.587 -0.24 +0.00    +0.006 A  
DOCKED: ATOM      5  C   UNL     1     -35.313 -11.488  14.589 -0.16 +0.00    +0.169 C  
DOCKED: ATOM      6  C   UNL     1     -37.802 -10.304  12.173 -0.26 -0.00    -0.001 A  
DOCKED: ATOM      7  C   UNL     1     -36.984 -12.823  13.141 -0.34 +0.00    +0.008 A  
DOCKED: ATOM      8  C   UNL     1     -38.410 -11.473  11.710 -0.34 +0.00    +0.010 A  
DOCKED: ATOM      9  C   UNL     1     -38.003 -12.726  12.193 -0.32 +0.00    +0.068 A  
DOCKED: ATOM     10  N   UNL     1     -39.156 -14.874  11.317 -2.59 -0.00    -0.191 NA 
DOCKED: ATOM     11  C   UNL     1     -38.639 -13.911  11.709 -0.31 +0.00    +0.101 C  
DOCKED: ENDROOT
DOCKED: BRANCH   2  12
DOCKED: ATOM     12  C   UNL     1     -36.806  -8.453  14.696 -0.06 +0.00    +0.038 C  
DOCKED: BRANCH  12  13
DOCKED: ATOM     13  C   UNL     1     -38.118  -9.131  15.084 -0.05 +0.00    +0.038 C  
DOCKED: BRANCH  13  14
DOCKED: ATOM     14  C   UNL     1     -37.929 -10.043  16.295 -0.01 +0.00    +0.251 C  
DOCKED: BRANCH  14  15
DOCKED: ATOM     15  N   UNL     1     -38.397 -11.390  15.994 -0.04 +0.00    +0.141 N  
DOCKED: ATOM     16  C   UNL     1     -37.949 -12.334  17.020 -0.05 +0.00    +0.285 C  
DOCKED: ATOM     17  C   UNL     1     -39.856 -11.417  15.883 -0.01 +0.00    +0.285 C  
DOCKED: ENDBRANCH  14  15
DOCKED: ENDBRANCH  13  14
DOCKED: ENDBRANCH  12  13
DOCKED: ENDBRANCH   2  12
DOCKED: BRANCH   2  18
DOCKED: ATOM     18  C   UNL     1     -35.197  -8.516  12.799 -0.15 +0.00    +0.006 A  
DOCKED: ATOM     19  C   UNL     1     -35.818  -7.471  12.115 -0.14 +0.00    +0.001 A  
DOCKED: ATOM     20  C   UNL     1     -35.088  -6.704  11.206 -0.11 +0.00    +0.029 A  
DOCKED: ATOM     21  C   UNL     1     -33.741  -6.983  10.982 -0.07 +0.00    +0.140 A  
DOCKED: ATOM     22  C   UNL     1     -33.121  -8.028  11.666 -0.10 +0.00    +0.029 A  
DOCKED: ATOM     23  F   UNL     1     -33.040  -6.246  10.110 -0.00 -0.00    -0.204 F  
DOCKED: ATOM     24  C   UNL     1     -33.850  -8.796  12.576 -0.08 +0.00    +0.001 A  
DOCKED: ENDBRANCH   2  18
DOCKED: TORSDOF 5
DOCKED: TER
DOCKED: ENDMDL
________________________________________________________________________________


    FINAL DOCKED STATE:
    ________________________


Run:   238 / 512
Time taken for this run:   0.002s

DOCKED: MODEL        238
DOCKED: USER    Run = 238
DOCKED: USER
DOCKED: USER    Estimated Free Energy of Binding    =  -4.44 kcal/mol  [=(1)+(2)+(3)-(4)]
DOCKED: USER
DOCKED: USER    (1) Final Intermolecular Energy     =  -5.93 kcal/mol
DOCKED: USER        vdW + Hbond + desolv Energy     =  -5.93 kcal/mol
DOCKED: USER        Electrostatic Energy            =  +0.00 kcal/mol
DOCKED: USER        Moving Ligand-Fixed Receptor    =  -5.93 kcal/mol
DOCKED: USER        Moving Ligand-Moving Receptor   =  +0.00 kcal/mol
DOCKED: USER    (2) Final Total Internal Energy     =  -1.27 kcal/mol
DOCKED: USER    (3) Torsional Free Energy           =  +1.49 kcal/mol
DOCKED: USER    (4) Unbound System's Energy         =  -1.27 kcal/mol
DOCKED: USER
DOCKED: USER
DOCKED: REMARK  5 active torsions:
DOCKED: REMARK  status: ('A' for Active; 'I' for Inactive)
DOCKED: REMARK    1  A    between atoms: C_2  and  C_19 
DOCKED: REMARK    2  A    between atoms: C_2  and  C_11 
DOCKED: REMARK    3  A    between atoms: C_19  and  C_20 
DOCKED: REMARK    4  A    between atoms: C_20  and  C_21 
DOCKED: REMARK    5  A    between atoms: C_21  and  N_22 
DOCKED: USER                              x       y       z     vdW  Elec       q    Type
DOCKED: USER                           _______ _______ _______ _____ _____    ______ ____
DOCKED: ROOT
DOCKED: ATOM      1  O   UNL     1     -37.714  -8.192  13.359 -0.05 -0.00    -0.346 OA 
DOCKED: ATOM      2  C   UNL     1     -39.098  -8.470  13.744 -0.13 +0.00    +0.130 C  
DOCKED: ATOM      3  C   UNL     1     -39.327  -9.876  13.267 -0.20 +0.00    +0.004 A  
DOCKED: ATOM      4  C   UNL     1     -38.146 -10.394  12.755 -0.26 +0.00    +0.006 A  
DOCKED: ATOM      5  C   UNL     1     -37.066  -9.388  12.867 -0.19 +0.00    +0.169 C  
DOCKED: ATOM      6  C   UNL     1     -40.486 -10.638  13.295 -0.19 -0.00    -0.001 A  
DOCKED: ATOM      7  C   UNL     1     -38.083 -11.682  12.253 -0.33 +0.00    +0.008 A  
DOCKED: ATOM      8  C   UNL     1     -40.439 -11.938  12.788 -0.22 +0.00    +0.010 A  
DOCKED: ATOM      9  C   UNL     1     -39.244 -12.457  12.270 -0.25 +0.00    +0.068 A  
DOCKED: ATOM     10  N   UNL     1     -39.190 -14.875  11.341 -2.61 -0.00    -0.191 NA 
DOCKED: ATOM     11  C   UNL     1     -39.214 -13.790  11.757 -0.35 +0.00    +0.101 C  
DOCKED: ENDROOT
DOCKED: BRANCH   2  12
DOCKED: ATOM     12  C   UNL     1     -39.216  -8.330  15.257 -0.04 +0.00    +0.038 C  
DOCKED: BRANCH  12  13
DOCKED: ATOM     13  C   UNL     1     -38.574  -7.034  15.747 -0.02 +0.00    +0.038 C  
DOCKED: BRANCH  13  14
DOCKED: ATOM     14  C   UNL     1     -37.409  -7.321  16.693 -0.00 +0.00    +0.251 C  
DOCKED: BRANCH  14  15
DOCKED: ATOM     15  N   UNL     1     -36.178  -7.518  15.937 -0.01 +0.00    +0.141 N  
DOCKED: ATOM     16  C   UNL     1     -35.160  -6.551  16.349 -0.00 +0.00    +0.285 C  
DOCKED: ATOM     17  C   UNL     1     -35.681  -8.884  16.108 -0.01 +0.00    +0.285 C  
DOCKED: ENDBRANCH  14  15
DOCKED: ENDBRANCH  13  14
DOCKED: ENDBRANCH  12  13
DOCKED: ENDBRANCH   2  12
DOCKED: BRANCH   2  18
DOCKED: ATOM     18  C   UNL     1     -39.955  -7.471  13.042 -0.20 +0.00    +0.006 A  
DOCKED: ATOM     19  C   UNL     1     -41.340  -7.631  13.024 -0.21 +0.00    +0.001 A  
DOCKED: ATOM     20  C   UNL     1     -42.141  -6.696  12.367 -0.18 +0.00    +0.029 A  
DOCKED: ATOM     21  C   UNL     1     -41.556  -5.603  11.730 -0.08 +0.00    +0.140 A  
DOCKED: ATOM     22  C   UNL     1     -40.171  -5.443  11.748 -0.16 +0.00    +0.029 A  
DOCKED: ATOM     23  F   UNL     1     -42.325  -4.705  11.101 -0.03 -0.00    -0.204 F  
DOCKED: ATOM     24  C   UNL     1     -39.369  -6.378  12.404 -0.18 +0.00    +0.001 A  
DOCKED: ENDBRANCH   2  18
DOCKED: TORSDOF 5
DOCKED: TER
DOCKED: ENDMDL
________________________________________________________________________________


    FINAL DOCKED STATE:
    ________________________


Run:   239 / 512
Time taken for this run:   0.002s

DOCKED: MODEL        239
DOCKED: USER    Run = 239
DOCKED: USER
DOCKED: USER    Estimated Free Energy of Binding    =  -4.25 kcal/mol  [=(1)+(2)+(3)-(4)]
DOCKED: USER
DOCKED: USER    (1) Final Intermolecular Energy     =  -5.75 kcal/mol
DOCKED: USER        vdW + Hbond + desolv Energy     =  -5.75 kcal/mol
DOCKED: USER        Electrostatic Energy            =  +0.00 kcal/mol
DOCKED: USER        Moving Ligand-Fixed Receptor    =  -5.75 kcal/mol
DOCKED: USER        Moving Ligand-Moving Receptor   =  +0.00 kcal/mol
DOCKED: USER    (2) Final Total Internal Energy     =  -1.25 kcal/mol
DOCKED: USER    (3) Torsional Free Energy           =  +1.49 kcal/mol
DOCKED: USER    (4) Unbound System's Energy         =  -1.25 kcal/mol
DOCKED: USER
DOCKED: USER
DOCKED: REMARK  5 active torsions:
DOCKED: REMARK  status: ('A' for Active; 'I' for Inactive)
DOCKED: REMARK    1  A    between atoms: C_2  and  C_19 
DOCKED: REMARK    2  A    between atoms: C_2  and  C_11 
DOCKED: REMARK    3  A    between atoms: C_19  and  C_20 
DOCKED: REMARK    4  A    between atoms: C_20  and  C_21 
DOCKED: REMARK    5  A    between atoms: C_21  and  N_22 
DOCKED: USER                              x       y       z     vdW  Elec       q    Type
DOCKED: USER                           _______ _______ _______ _____ _____    ______ ____
DOCKED: ROOT
DOCKED: ATOM      1  O   UNL     1     -34.888 -10.719  14.709 -0.07 -0.00    -0.346 OA 
DOCKED: ATOM      2  C   UNL     1     -36.013  -9.888  14.278 -0.12 +0.00    +0.130 C  
DOCKED: ATOM      3  C   UNL     1     -36.875 -10.831  13.489 -0.22 +0.00    +0.004 A  
DOCKED: ATOM      4  C   UNL     1     -36.348 -12.113  13.556 -0.26 +0.00    +0.006 A  
DOCKED: ATOM      5  C   UNL     1     -35.126 -12.110  14.391 -0.14 +0.00    +0.169 C  
DOCKED: ATOM      6  C   UNL     1     -38.039 -10.576  12.779 -0.27 -0.00    -0.001 A  
DOCKED: ATOM      7  C   UNL     1     -36.959 -13.177  12.916 -0.37 +0.00    +0.008 A  
DOCKED: ATOM      8  C   UNL     1     -38.665 -11.639  12.124 -0.32 +0.00    +0.010 A  
DOCKED: ATOM      9  C   UNL     1     -38.127 -12.933  12.193 -0.32 +0.00    +0.068 A  
DOCKED: ATOM     10  N   UNL     1     -39.316 -14.883  10.970 -2.37 -0.00    -0.191 NA 
DOCKED: ATOM     11  C   UNL     1     -38.782 -14.008  11.518 -0.34 +0.00    +0.101 C  
DOCKED: ENDROOT
DOCKED: BRANCH   2  12
DOCKED: ATOM     12  C   UNL     1     -36.712  -9.341  15.518 -0.05 +0.00    +0.038 C  
DOCKED: BRANCH  12  13
DOCKED: ATOM     13  C   UNL     1     -37.358  -7.986  15.240 -0.03 +0.00    +0.038 C  
DOCKED: BRANCH  13  14
DOCKED: ATOM     14  C   UNL     1     -38.776  -8.154  14.696 -0.03 +0.00    +0.251 C  
DOCKED: BRANCH  14  15
DOCKED: ATOM     15  N   UNL     1     -39.117  -7.042  13.817 -0.07 +0.00    +0.141 N  
DOCKED: ATOM     16  C   UNL     1     -37.937  -6.221  13.541 -0.05 +0.00    +0.285 C  
DOCKED: ATOM     17  C   UNL     1     -39.698  -7.532  12.566 -0.15 +0.00    +0.285 C  
DOCKED: ENDBRANCH  14  15
DOCKED: ENDBRANCH  13  14
DOCKED: ENDBRANCH  12  13
DOCKED: ENDBRANCH   2  12
DOCKED: BRANCH   2  18
DOCKED: ATOM     18  C   UNL     1     -35.447  -8.785  13.448 -0.13 +0.00    +0.006 A  
DOCKED: ATOM     19  C   UNL     1     -34.530  -7.894  14.005 -0.06 +0.00    +0.001 A  
DOCKED: ATOM     20  C   UNL     1     -34.002  -6.862  13.227 -0.04 +0.00    +0.029 A  
DOCKED: ATOM     21  C   UNL     1     -34.391  -6.723  11.896 -0.06 +0.00    +0.140 A  
DOCKED: ATOM     22  C   UNL     1     -35.309  -7.614  11.340 -0.11 +0.00    +0.029 A  
DOCKED: ATOM     23  F   UNL     1     -33.883  -5.734  11.150 -0.00 -0.00    -0.204 F  
DOCKED: ATOM     24  C   UNL     1     -35.838  -8.646  12.117 -0.16 +0.00    +0.001 A  
DOCKED: ENDBRANCH   2  18
DOCKED: TORSDOF 5
DOCKED: TER
DOCKED: ENDMDL
________________________________________________________________________________


    FINAL DOCKED STATE:
    ________________________


Run:   240 / 512
Time taken for this run:   0.002s

DOCKED: MODEL        240
DOCKED: USER    Run = 240
DOCKED: USER
DOCKED: USER    Estimated Free Energy of Binding    =  -3.73 kcal/mol  [=(1)+(2)+(3)-(4)]
DOCKED: USER
DOCKED: USER    (1) Final Intermolecular Energy     =  -5.22 kcal/mol
DOCKED: USER        vdW + Hbond + desolv Energy     =  -5.22 kcal/mol
DOCKED: USER        Electrostatic Energy            =  +0.00 kcal/mol
DOCKED: USER        Moving Ligand-Fixed Receptor    =  -5.22 kcal/mol
DOCKED: USER        Moving Ligand-Moving Receptor   =  +0.00 kcal/mol
DOCKED: USER    (2) Final Total Internal Energy     =  -1.11 kcal/mol
DOCKED: USER    (3) Torsional Free Energy           =  +1.49 kcal/mol
DOCKED: USER    (4) Unbound System's Energy         =  -1.11 kcal/mol
DOCKED: USER
DOCKED: USER
DOCKED: REMARK  5 active torsions:
DOCKED: REMARK  status: ('A' for Active; 'I' for Inactive)
DOCKED: REMARK    1  A    between atoms: C_2  and  C_19 
DOCKED: REMARK    2  A    between atoms: C_2  and  C_11 
DOCKED: REMARK    3  A    between atoms: C_19  and  C_20 
DOCKED: REMARK    4  A    between atoms: C_20  and  C_21 
DOCKED: REMARK    5  A    between atoms: C_21  and  N_22 
DOCKED: USER                              x       y       z     vdW  Elec       q    Type
DOCKED: USER                           _______ _______ _______ _____ _____    ______ ____
DOCKED: ROOT
DOCKED: ATOM      1  O   UNL     1     -37.965  -8.524  14.631 -0.01 -0.00    -0.346 OA 
DOCKED: ATOM      2  C   UNL     1     -36.712  -9.257  14.448 -0.08 +0.00    +0.130 C  
DOCKED: ATOM      3  C   UNL     1     -37.136 -10.530  13.775 -0.18 +0.00    +0.004 A  
DOCKED: ATOM      4  C   UNL     1     -38.494 -10.482  13.498 -0.18 +0.00    +0.006 A  
DOCKED: ATOM      5  C   UNL     1     -39.054  -9.189  13.949 -0.11 +0.00    +0.169 C  
DOCKED: ATOM      6  C   UNL     1     -36.377 -11.638  13.425 -0.22 -0.00    -0.001 A  
DOCKED: ATOM      7  C   UNL     1     -39.139 -11.534  12.870 -0.23 +0.00    +0.008 A  
DOCKED: ATOM      8  C   UNL     1     -37.013 -12.709  12.796 -0.33 +0.00    +0.010 A  
DOCKED: ATOM      9  C   UNL     1     -38.388 -12.657  12.519 -0.28 +0.00    +0.068 A  
DOCKED: ATOM     10  N   UNL     1     -39.537 -14.660  11.344 -2.56 -0.00    -0.191 NA 
DOCKED: ATOM     11  C   UNL     1     -39.022 -13.761  11.872 -0.34 +0.00    +0.101 C  
DOCKED: ENDROOT
DOCKED: BRANCH   2  12
DOCKED: ATOM     12  C   UNL     1     -35.781  -8.412  13.587 -0.13 +0.00    +0.038 C  
DOCKED: BRANCH  12  13
DOCKED: ATOM     13  C   UNL     1     -36.155  -8.501  12.109 -0.18 +0.00    +0.038 C  
DOCKED: BRANCH  13  14
DOCKED: ATOM     14  C   UNL     1     -35.035  -7.955  11.224 -0.09 +0.00    +0.251 C  
DOCKED: BRANCH  14  15
DOCKED: ATOM     15  N   UNL     1     -33.806  -7.810  11.994 -0.09 +0.00    +0.141 N  
DOCKED: ATOM     16  C   UNL     1     -32.699  -8.504  11.334 -0.08 +0.00    +0.285 C  
DOCKED: ATOM     17  C   UNL     1     -33.478  -6.396  12.182 -0.02 +0.00    +0.285 C  
DOCKED: ENDBRANCH  14  15
DOCKED: ENDBRANCH  13  14
DOCKED: ENDBRANCH  12  13
DOCKED: ENDBRANCH   2  12
DOCKED: BRANCH   2  18
DOCKED: ATOM     18  C   UNL     1     -36.135  -9.481  15.805 -0.04 +0.00    +0.006 A  
DOCKED: ATOM     19  C   UNL     1     -36.707 -10.423  16.659 -0.04 +0.00    +0.001 A  
DOCKED: ATOM     20  C   UNL     1     -36.166 -10.631  17.928 -0.02 +0.00    +0.029 A  
DOCKED: ATOM     21  C   UNL     1     -35.055  -9.898  18.342 -0.01 +0.00    +0.140 A  
DOCKED: ATOM     22  C   UNL     1     -34.483  -8.956  17.488 -0.01 +0.00    +0.029 A  
DOCKED: ATOM     23  F   UNL     1     -34.535 -10.099  19.560 +0.00 -0.00    -0.204 F  
DOCKED: ATOM     24  C   UNL     1     -35.023  -8.746  16.218 -0.02 +0.00    +0.001 A  
DOCKED: ENDBRANCH   2  18
DOCKED: TORSDOF 5
DOCKED: TER
DOCKED: ENDMDL
________________________________________________________________________________


    FINAL DOCKED STATE:
    ________________________


Run:   241 / 512
Time taken for this run:   0.002s

DOCKED: MODEL        241
DOCKED: USER    Run = 241
DOCKED: USER
DOCKED: USER    Estimated Free Energy of Binding    =  -3.98 kcal/mol  [=(1)+(2)+(3)-(4)]
DOCKED: USER
DOCKED: USER    (1) Final Intermolecular Energy     =  -5.47 kcal/mol
DOCKED: USER        vdW + Hbond + desolv Energy     =  -5.47 kcal/mol
DOCKED: USER        Electrostatic Energy            =  +0.00 kcal/mol
DOCKED: USER        Moving Ligand-Fixed Receptor    =  -5.47 kcal/mol
DOCKED: USER        Moving Ligand-Moving Receptor   =  +0.00 kcal/mol
DOCKED: USER    (2) Final Total Internal Energy     =  -0.87 kcal/mol
DOCKED: USER    (3) Torsional Free Energy           =  +1.49 kcal/mol
DOCKED: USER    (4) Unbound System's Energy         =  -0.87 kcal/mol
DOCKED: USER
DOCKED: USER
DOCKED: REMARK  5 active torsions:
DOCKED: REMARK  status: ('A' for Active; 'I' for Inactive)
DOCKED: REMARK    1  A    between atoms: C_2  and  C_19 
DOCKED: REMARK    2  A    between atoms: C_2  and  C_11 
DOCKED: REMARK    3  A    between atoms: C_19  and  C_20 
DOCKED: REMARK    4  A    between atoms: C_20  and  C_21 
DOCKED: REMARK    5  A    between atoms: C_21  and  N_22 
DOCKED: USER                              x       y       z     vdW  Elec       q    Type
DOCKED: USER                           _______ _______ _______ _____ _____    ______ ____
DOCKED: ROOT
DOCKED: ATOM      1  O   UNL     1     -29.327  -9.481   6.657 +0.01 -0.00    -0.346 OA 
DOCKED: ATOM      2  C   UNL     1     -30.782  -9.425   6.508 -0.07 +0.00    +0.130 C  
DOCKED: ATOM      3  C   UNL     1     -31.262 -10.678   7.182 -0.15 +0.00    +0.004 A  
DOCKED: ATOM      4  C   UNL     1     -30.187 -11.337   7.762 -0.09 +0.00    +0.006 A  
DOCKED: ATOM      5  C   UNL     1     -28.942 -10.571   7.527 -0.02 +0.00    +0.169 C  
DOCKED: ATOM      6  C   UNL     1     -32.548 -11.188   7.284 -0.28 -0.00    -0.001 A  
DOCKED: ATOM      7  C   UNL     1     -30.358 -12.523   8.456 -0.16 +0.00    +0.008 A  
DOCKED: ATOM      8  C   UNL     1     -32.736 -12.385   7.976 -0.29 +0.00    +0.010 A  
DOCKED: ATOM      9  C   UNL     1     -31.646 -13.049   8.560 -0.30 +0.00    +0.068 A  
DOCKED: ATOM     10  N   UNL     1     -32.031 -15.267   9.842 -2.55 -0.00    -0.191 NA 
DOCKED: ATOM     11  C   UNL     1     -31.858 -14.272   9.267 -0.35 +0.00    +0.101 C  
DOCKED: ENDROOT
DOCKED: BRANCH   2  12
DOCKED: ATOM     12  C   UNL     1     -31.288  -8.156   7.185 -0.05 +0.00    +0.038 C  
DOCKED: BRANCH  12  13
DOCKED: ATOM     13  C   UNL     1     -32.784  -7.957   6.949 -0.14 +0.00    +0.038 C  
DOCKED: BRANCH  13  14
DOCKED: ATOM     14  C   UNL     1     -33.525  -7.744   8.267 -0.10 +0.00    +0.251 C  
DOCKED: BRANCH  14  15
DOCKED: ATOM     15  N   UNL     1     -34.814  -7.107   8.027 -0.13 +0.00    +0.141 N  
DOCKED: ATOM     16  C   UNL     1     -34.639  -5.685   7.724 -0.09 +0.00    +0.285 C  
DOCKED: ATOM     17  C   UNL     1     -35.524  -7.775   6.935 +0.02 +0.00    +0.285 C  
DOCKED: ENDBRANCH  14  15
DOCKED: ENDBRANCH  13  14
DOCKED: ENDBRANCH  12  13
DOCKED: ENDBRANCH   2  12
DOCKED: BRANCH   2  18
DOCKED: ATOM     18  C   UNL     1     -31.070  -9.406   5.044 -0.12 +0.00    +0.006 A  
DOCKED: ATOM     19  C   UNL     1     -31.410  -8.208   4.417 -0.10 +0.00    +0.001 A  
DOCKED: ATOM     20  C   UNL     1     -31.680  -8.191   3.048 -0.14 +0.00    +0.029 A  
DOCKED: ATOM     21  C   UNL     1     -31.608  -9.371   2.309 -0.17 +0.00    +0.140 A  
DOCKED: ATOM     22  C   UNL     1     -31.268 -10.569   2.937 -0.12 +0.00    +0.029 A  
DOCKED: ATOM     23  F   UNL     1     -31.865  -9.354   0.994 -0.05 -0.00    -0.204 F  
DOCKED: ATOM     24  C   UNL     1     -30.999 -10.587   4.306 -0.04 +0.00    +0.001 A  
DOCKED: ENDBRANCH   2  18
DOCKED: TORSDOF 5
DOCKED: TER
DOCKED: ENDMDL
________________________________________________________________________________


    FINAL DOCKED STATE:
    ________________________


Run:   242 / 512
Time taken for this run:   0.002s

DOCKED: MODEL        242
DOCKED: USER    Run = 242
DOCKED: USER
DOCKED: USER    Estimated Free Energy of Binding    =  -3.43 kcal/mol  [=(1)+(2)+(3)-(4)]
DOCKED: USER
DOCKED: USER    (1) Final Intermolecular Energy     =  -4.92 kcal/mol
DOCKED: USER        vdW + Hbond + desolv Energy     =  -4.92 kcal/mol
DOCKED: USER        Electrostatic Energy            =  +0.00 kcal/mol
DOCKED: USER        Moving Ligand-Fixed Receptor    =  -4.92 kcal/mol
DOCKED: USER        Moving Ligand-Moving Receptor   =  +0.00 kcal/mol
DOCKED: USER    (2) Final Total Internal Energy     =  -1.48 kcal/mol
DOCKED: USER    (3) Torsional Free Energy           =  +1.49 kcal/mol
DOCKED: USER    (4) Unbound System's Energy         =  -1.48 kcal/mol
DOCKED: USER
DOCKED: USER
DOCKED: REMARK  5 active torsions:
DOCKED: REMARK  status: ('A' for Active; 'I' for Inactive)
DOCKED: REMARK    1  A    between atoms: C_2  and  C_19 
DOCKED: REMARK    2  A    between atoms: C_2  and  C_11 
DOCKED: REMARK    3  A    between atoms: C_19  and  C_20 
DOCKED: REMARK    4  A    between atoms: C_20  and  C_21 
DOCKED: REMARK    5  A    between atoms: C_21  and  N_22 
DOCKED: USER                              x       y       z     vdW  Elec       q    Type
DOCKED: USER                           _______ _______ _______ _____ _____    ______ ____
DOCKED: ROOT
DOCKED: ATOM      1  O   UNL     1     -31.577  -2.907   5.689 -0.05 -0.00    -0.346 OA 
DOCKED: ATOM      2  C   UNL     1     -31.240  -1.711   4.916 -0.11 +0.00    +0.130 C  
DOCKED: ATOM      3  C   UNL     1     -32.397  -1.554   3.973 -0.17 +0.00    +0.004 A  
DOCKED: ATOM      4  C   UNL     1     -33.363  -2.510   4.256 -0.16 +0.00    +0.006 A  
DOCKED: ATOM      5  C   UNL     1     -32.924  -3.345   5.396 -0.13 +0.00    +0.169 C  
DOCKED: ATOM      6  C   UNL     1     -32.586  -0.632   2.954 -0.20 -0.00    -0.001 A  
DOCKED: ATOM      7  C   UNL     1     -34.541  -2.580   3.532 -0.30 +0.00    +0.008 A  
DOCKED: ATOM      8  C   UNL     1     -33.767  -0.693   2.212 -0.26 +0.00    +0.010 A  
DOCKED: ATOM      9  C   UNL     1     -34.740  -1.662   2.501 -0.34 +0.00    +0.068 A  
DOCKED: ATOM     10  N   UNL     1     -36.923  -1.743   1.108 -2.45 -0.00    -0.191 NA 
DOCKED: ATOM     11  C   UNL     1     -35.944  -1.707   1.732 -0.41 +0.00    +0.101 C  
DOCKED: ENDROOT
DOCKED: BRANCH   2  12
DOCKED: ATOM     12  C   UNL     1     -31.096  -0.539   5.879 -0.11 +0.00    +0.038 C  
DOCKED: BRANCH  12  13
DOCKED: ATOM     13  C   UNL     1     -29.982  -0.786   6.894 -0.09 +0.00    +0.038 C  
DOCKED: BRANCH  13  14
DOCKED: ATOM     14  C   UNL     1     -30.485  -1.623   8.069 +0.01 +0.00    +0.251 C  
DOCKED: BRANCH  14  15
DOCKED: ATOM     15  N   UNL     1     -29.610  -2.768   8.288 -0.04 +0.00    +0.141 N  
DOCKED: ATOM     16  C   UNL     1     -30.395  -3.989   8.476 -0.03 +0.00    +0.285 C  
DOCKED: ATOM     17  C   UNL     1     -28.682  -2.929   7.167 -0.01 +0.00    +0.285 C  
DOCKED: ENDBRANCH  14  15
DOCKED: ENDBRANCH  13  14
DOCKED: ENDBRANCH  12  13
DOCKED: ENDBRANCH   2  12
DOCKED: BRANCH   2  18
DOCKED: ATOM     18  C   UNL     1     -29.953  -1.993   4.214 -0.03 +0.00    +0.006 A  
DOCKED: ATOM     19  C   UNL     1     -29.135  -0.939   3.809 -0.02 +0.00    +0.001 A  
DOCKED: ATOM     20  C   UNL     1     -27.932  -1.204   3.154 -0.00 +0.00    +0.029 A  
DOCKED: ATOM     21  C   UNL     1     -27.549  -2.521   2.905 -0.00 +0.00    +0.140 A  
DOCKED: ATOM     22  C   UNL     1     -28.367  -3.575   3.310 -0.00 +0.00    +0.029 A  
DOCKED: ATOM     23  F   UNL     1     -26.393  -2.775   2.277 +0.00 -0.00    -0.204 F  
DOCKED: ATOM     24  C   UNL     1     -29.571  -3.311   3.966 -0.01 +0.00    +0.001 A  
DOCKED: ENDBRANCH   2  18
DOCKED: TORSDOF 5
DOCKED: TER
DOCKED: ENDMDL
________________________________________________________________________________


    FINAL DOCKED STATE:
    ________________________


Run:   243 / 512
Time taken for this run:   0.002s

DOCKED: MODEL        243
DOCKED: USER    Run = 243
DOCKED: USER
DOCKED: USER    Estimated Free Energy of Binding    =  -3.89 kcal/mol  [=(1)+(2)+(3)-(4)]
DOCKED: USER
DOCKED: USER    (1) Final Intermolecular Energy     =  -5.38 kcal/mol
DOCKED: USER        vdW + Hbond + desolv Energy     =  -5.38 kcal/mol
DOCKED: USER        Electrostatic Energy            =  +0.00 kcal/mol
DOCKED: USER        Moving Ligand-Fixed Receptor    =  -5.38 kcal/mol
DOCKED: USER        Moving Ligand-Moving Receptor   =  +0.00 kcal/mol
DOCKED: USER    (2) Final Total Internal Energy     =  -1.35 kcal/mol
DOCKED: USER    (3) Torsional Free Energy           =  +1.49 kcal/mol
DOCKED: USER    (4) Unbound System's Energy         =  -1.35 kcal/mol
DOCKED: USER
DOCKED: USER
DOCKED: REMARK  5 active torsions:
DOCKED: REMARK  status: ('A' for Active; 'I' for Inactive)
DOCKED: REMARK    1  A    between atoms: C_2  and  C_19 
DOCKED: REMARK    2  A    between atoms: C_2  and  C_11 
DOCKED: REMARK    3  A    between atoms: C_19  and  C_20 
DOCKED: REMARK    4  A    between atoms: C_20  and  C_21 
DOCKED: REMARK    5  A    between atoms: C_21  and  N_22 
DOCKED: USER                              x       y       z     vdW  Elec       q    Type
DOCKED: USER                           _______ _______ _______ _____ _____    ______ ____
DOCKED: ROOT
DOCKED: ATOM      1  O   UNL     1     -28.808 -11.066   5.057 +0.01 -0.00    -0.346 OA 
DOCKED: ATOM      2  C   UNL     1     -30.021 -10.376   5.498 -0.07 +0.00    +0.130 C  
DOCKED: ATOM      3  C   UNL     1     -30.641 -11.329   6.478 -0.12 +0.00    +0.004 A  
DOCKED: ATOM      4  C   UNL     1     -29.802 -12.418   6.665 -0.10 +0.00    +0.006 A  
DOCKED: ATOM      5  C   UNL     1     -28.580 -12.258   5.844 -0.03 +0.00    +0.169 C  
DOCKED: ATOM      6  C   UNL     1     -31.846 -11.235   7.158 -0.23 -0.00    -0.001 A  
DOCKED: ATOM      7  C   UNL     1     -30.137 -13.446   7.529 -0.17 +0.00    +0.008 A  
DOCKED: ATOM      8  C   UNL     1     -32.201 -12.265   8.030 -0.32 +0.00    +0.010 A  
DOCKED: ATOM      9  C   UNL     1     -31.350 -13.365   8.215 -0.29 +0.00    +0.068 A  
DOCKED: ATOM     10  N   UNL     1     -32.036 -15.259   9.844 -2.55 -0.00    -0.191 NA 
DOCKED: ATOM     11  C   UNL     1     -31.729 -14.410   9.113 -0.42 +0.00    +0.101 C  
DOCKED: ENDROOT
DOCKED: BRANCH   2  12
DOCKED: ATOM     12  C   UNL     1     -29.618  -9.050   6.133 -0.03 +0.00    +0.038 C  
DOCKED: BRANCH  12  13
DOCKED: ATOM     13  C   UNL     1     -29.102  -8.065   5.086 -0.01 +0.00    +0.038 C  
DOCKED: BRANCH  13  14
DOCKED: ATOM     14  C   UNL     1     -27.789  -8.550   4.476 +0.00 +0.00    +0.251 C  
DOCKED: BRANCH  14  15
DOCKED: ATOM     15  N   UNL     1     -27.584  -7.943   3.166 -0.00 +0.00    +0.141 N  
DOCKED: ATOM     16  C   UNL     1     -26.919  -8.882   2.261 +0.00 +0.00    +0.285 C  
DOCKED: ATOM     17  C   UNL     1     -28.859  -7.506   2.595 +0.00 +0.00    +0.285 C  
DOCKED: ENDBRANCH  14  15
DOCKED: ENDBRANCH  13  14
DOCKED: ENDBRANCH  12  13
DOCKED: ENDBRANCH   2  12
DOCKED: BRANCH   2  18
DOCKED: ATOM     18  C   UNL     1     -30.864 -10.158   4.286 -0.13 +0.00    +0.006 A  
DOCKED: ATOM     19  C   UNL     1     -30.626 -10.900   3.130 -0.14 +0.00    +0.001 A  
DOCKED: ATOM     20  C   UNL     1     -31.415 -10.695   1.997 -0.16 +0.00    +0.029 A  
DOCKED: ATOM     21  C   UNL     1     -32.439  -9.749   2.022 -0.17 +0.00    +0.140 A  
DOCKED: ATOM     22  C   UNL     1     -32.676  -9.007   3.179 -0.15 +0.00    +0.029 A  
DOCKED: ATOM     23  F   UNL     1     -33.197  -9.554   0.935 -0.13 -0.00    -0.204 F  
DOCKED: ATOM     24  C   UNL     1     -31.887  -9.211   4.312 -0.18 +0.00    +0.001 A  
DOCKED: ENDBRANCH   2  18
DOCKED: TORSDOF 5
DOCKED: TER
DOCKED: ENDMDL
________________________________________________________________________________


    FINAL DOCKED STATE:
    ________________________


Run:   244 / 512
Time taken for this run:   0.002s

DOCKED: MODEL        244
DOCKED: USER    Run = 244
DOCKED: USER
DOCKED: USER    Estimated Free Energy of Binding    =  -4.78 kcal/mol  [=(1)+(2)+(3)-(4)]
DOCKED: USER
DOCKED: USER    (1) Final Intermolecular Energy     =  -6.27 kcal/mol
DOCKED: USER        vdW + Hbond + desolv Energy     =  -6.27 kcal/mol
DOCKED: USER        Electrostatic Energy            =  +0.00 kcal/mol
DOCKED: USER        Moving Ligand-Fixed Receptor    =  -6.27 kcal/mol
DOCKED: USER        Moving Ligand-Moving Receptor   =  +0.00 kcal/mol
DOCKED: USER    (2) Final Total Internal Energy     =  -0.93 kcal/mol
DOCKED: USER    (3) Torsional Free Energy           =  +1.49 kcal/mol
DOCKED: USER    (4) Unbound System's Energy         =  -0.93 kcal/mol
DOCKED: USER
DOCKED: USER
DOCKED: REMARK  5 active torsions:
DOCKED: REMARK  status: ('A' for Active; 'I' for Inactive)
DOCKED: REMARK    1  A    between atoms: C_2  and  C_19 
DOCKED: REMARK    2  A    between atoms: C_2  and  C_11 
DOCKED: REMARK    3  A    between atoms: C_19  and  C_20 
DOCKED: REMARK    4  A    between atoms: C_20  and  C_21 
DOCKED: REMARK    5  A    between atoms: C_21  and  N_22 
DOCKED: USER                              x       y       z     vdW  Elec       q    Type
DOCKED: USER                           _______ _______ _______ _____ _____    ______ ____
DOCKED: ROOT
DOCKED: ATOM      1  O   UNL     1     -38.974 -12.922  14.680 -0.04 -0.00    -0.346 OA 
DOCKED: ATOM      2  C   UNL     1     -38.414 -11.724  14.053 -0.13 +0.00    +0.130 C  
DOCKED: ATOM      3  C   UNL     1     -38.564 -11.984  12.582 -0.29 +0.00    +0.004 A  
DOCKED: ATOM      4  C   UNL     1     -39.250 -13.174  12.386 -0.30 +0.00    +0.006 A  
DOCKED: ATOM      5  C   UNL     1     -39.607 -13.770  13.693 -0.19 +0.00    +0.169 C  
DOCKED: ATOM      6  C   UNL     1     -38.138 -11.222  11.504 -0.29 -0.00    -0.001 A  
DOCKED: ATOM      7  C   UNL     1     -39.528 -13.645  11.114 -0.42 +0.00    +0.008 A  
DOCKED: ATOM      8  C   UNL     1     -38.408 -11.685  10.215 +0.07 +0.00    +0.010 A  
DOCKED: ATOM      9  C   UNL     1     -39.099 -12.890  10.021 -0.41 +0.00    +0.068 A  
DOCKED: ATOM     10  N   UNL     1     -39.587 -13.717   7.615 -2.66 -0.00    -0.191 NA 
DOCKED: ATOM     11  C   UNL     1     -39.368 -13.347   8.694 -0.34 +0.00    +0.101 C  
DOCKED: ENDROOT
DOCKED: BRANCH   2  12
DOCKED: ATOM     12  C   UNL     1     -39.211 -10.514  14.526 -0.10 +0.00    +0.038 C  
DOCKED: BRANCH  12  13
DOCKED: ATOM     13  C   UNL     1     -38.896  -9.277  13.687 -0.17 +0.00    +0.038 C  
DOCKED: BRANCH  13  14
DOCKED: ATOM     14  C   UNL     1     -39.031  -8.002  14.517 -0.04 +0.00    +0.251 C  
DOCKED: BRANCH  14  15
DOCKED: ATOM     15  N   UNL     1     -40.379  -7.459  14.397 -0.05 +0.00    +0.141 N  
DOCKED: ATOM     16  C   UNL     1     -40.470  -6.154  15.054 -0.01 +0.00    +0.285 C  
DOCKED: ATOM     17  C   UNL     1     -40.767  -7.347  12.990 -0.14 +0.00    +0.285 C  
DOCKED: ENDBRANCH  14  15
DOCKED: ENDBRANCH  13  14
DOCKED: ENDBRANCH  12  13
DOCKED: ENDBRANCH   2  12
DOCKED: BRANCH   2  18
DOCKED: ATOM     18  C   UNL     1     -36.988 -11.632  14.485 -0.17 +0.00    +0.006 A  
DOCKED: ATOM     19  C   UNL     1     -36.003 -12.330  13.788 -0.25 +0.00    +0.001 A  
DOCKED: ATOM     20  C   UNL     1     -34.670 -12.244  14.193 -0.04 +0.00    +0.029 A  
DOCKED: ATOM     21  C   UNL     1     -34.325 -11.459  15.292 -0.12 +0.00    +0.140 A  
DOCKED: ATOM     22  C   UNL     1     -35.311 -10.760  15.988 -0.08 +0.00    +0.029 A  
DOCKED: ATOM     23  F   UNL     1     -33.046 -11.374  15.679 -0.02 -0.00    -0.204 F  
DOCKED: ATOM     24  C   UNL     1     -36.644 -10.847  15.584 -0.08 +0.00    +0.001 A  
DOCKED: ENDBRANCH   2  18
DOCKED: TORSDOF 5
DOCKED: TER
DOCKED: ENDMDL
________________________________________________________________________________


    FINAL DOCKED STATE:
    ________________________


Run:   245 / 512
Time taken for this run:   0.002s

DOCKED: MODEL        245
DOCKED: USER    Run = 245
DOCKED: USER
DOCKED: USER    Estimated Free Energy of Binding    =  -4.12 kcal/mol  [=(1)+(2)+(3)-(4)]
DOCKED: USER
DOCKED: USER    (1) Final Intermolecular Energy     =  -5.61 kcal/mol
DOCKED: USER        vdW + Hbond + desolv Energy     =  -5.61 kcal/mol
DOCKED: USER        Electrostatic Energy            =  +0.00 kcal/mol
DOCKED: USER        Moving Ligand-Fixed Receptor    =  -5.61 kcal/mol
DOCKED: USER        Moving Ligand-Moving Receptor   =  +0.00 kcal/mol
DOCKED: USER    (2) Final Total Internal Energy     =  -1.31 kcal/mol
DOCKED: USER    (3) Torsional Free Energy           =  +1.49 kcal/mol
DOCKED: USER    (4) Unbound System's Energy         =  -1.31 kcal/mol
DOCKED: USER
DOCKED: USER
DOCKED: REMARK  5 active torsions:
DOCKED: REMARK  status: ('A' for Active; 'I' for Inactive)
DOCKED: REMARK    1  A    between atoms: C_2  and  C_19 
DOCKED: REMARK    2  A    between atoms: C_2  and  C_11 
DOCKED: REMARK    3  A    between atoms: C_19  and  C_20 
DOCKED: REMARK    4  A    between atoms: C_20  and  C_21 
DOCKED: REMARK    5  A    between atoms: C_21  and  N_22 
DOCKED: USER                              x       y       z     vdW  Elec       q    Type
DOCKED: USER                           _______ _______ _______ _____ _____    ______ ____
DOCKED: ROOT
DOCKED: ATOM      1  O   UNL     1     -30.284 -12.518   4.266 -0.03 -0.00    -0.346 OA 
DOCKED: ATOM      2  C   UNL     1     -30.204 -11.431   5.242 -0.10 +0.00    +0.130 C  
DOCKED: ATOM      3  C   UNL     1     -30.605 -12.079   6.535 -0.14 +0.00    +0.004 A  
DOCKED: ATOM      4  C   UNL     1     -30.790 -13.440   6.338 -0.19 +0.00    +0.006 A  
DOCKED: ATOM      5  C   UNL     1     -30.516 -13.785   4.925 -0.02 +0.00    +0.169 C  
DOCKED: ATOM      6  C   UNL     1     -30.780 -11.512   7.789 -0.15 -0.00    -0.001 A  
DOCKED: ATOM      7  C   UNL     1     -31.159 -14.275   7.378 -0.32 +0.00    +0.008 A  
DOCKED: ATOM      8  C   UNL     1     -31.157 -12.340   8.848 -0.25 +0.00    +0.010 A  
DOCKED: ATOM      9  C   UNL     1     -31.345 -13.715   8.643 -0.33 +0.00    +0.068 A  
DOCKED: ATOM     10  N   UNL     1     -32.039 -15.225  10.631 -2.65 -0.00    -0.191 NA 
DOCKED: ATOM     11  C   UNL     1     -31.728 -14.548   9.739 -0.31 +0.00    +0.101 C  
DOCKED: ENDROOT
DOCKED: BRANCH   2  12
DOCKED: ATOM     12  C   UNL     1     -28.774 -10.904   5.261 -0.03 +0.00    +0.038 C  
DOCKED: BRANCH  12  13
DOCKED: ATOM     13  C   UNL     1     -27.759 -12.044   5.204 -0.02 +0.00    +0.038 C  
DOCKED: BRANCH  13  14
DOCKED: ATOM     14  C   UNL     1     -26.851 -12.033   6.432 -0.00 +0.00    +0.251 C  
DOCKED: BRANCH  14  15
DOCKED: ATOM     15  N   UNL     1     -27.507 -12.694   7.554 -0.02 +0.00    +0.141 N  
DOCKED: ATOM     16  C   UNL     1     -26.842 -13.960   7.867 -0.04 +0.00    +0.285 C  
DOCKED: ATOM     17  C   UNL     1     -27.519 -11.823   8.730 -0.00 +0.00    +0.285 C  
DOCKED: ENDBRANCH  14  15
DOCKED: ENDBRANCH  13  14
DOCKED: ENDBRANCH  12  13
DOCKED: ENDBRANCH   2  12
DOCKED: BRANCH   2  18
DOCKED: ATOM     18  C   UNL     1     -31.161 -10.375   4.799 -0.08 +0.00    +0.006 A  
DOCKED: ATOM     19  C   UNL     1     -31.318 -10.103   3.441 -0.15 +0.00    +0.001 A  
DOCKED: ATOM     20  C   UNL     1     -32.213  -9.115   3.028 -0.21 +0.00    +0.029 A  
DOCKED: ATOM     21  C   UNL     1     -32.950  -8.403   3.973 -0.14 +0.00    +0.140 A  
DOCKED: ATOM     22  C   UNL     1     -32.793  -8.677   5.331 -0.19 +0.00    +0.029 A  
DOCKED: ATOM     23  F   UNL     1     -33.811  -7.457   3.576 -0.09 -0.00    -0.204 F  
DOCKED: ATOM     24  C   UNL     1     -31.897  -9.664   5.745 -0.16 +0.00    +0.001 A  
DOCKED: ENDBRANCH   2  18
DOCKED: TORSDOF 5
DOCKED: TER
DOCKED: ENDMDL
________________________________________________________________________________


    FINAL DOCKED STATE:
    ________________________


Run:   246 / 512
Time taken for this run:   0.002s

DOCKED: MODEL        246
DOCKED: USER    Run = 246
DOCKED: USER
DOCKED: USER    Estimated Free Energy of Binding    =  -4.94 kcal/mol  [=(1)+(2)+(3)-(4)]
DOCKED: USER
DOCKED: USER    (1) Final Intermolecular Energy     =  -6.43 kcal/mol
DOCKED: USER        vdW + Hbond + desolv Energy     =  -6.43 kcal/mol
DOCKED: USER        Electrostatic Energy            =  +0.00 kcal/mol
DOCKED: USER        Moving Ligand-Fixed Receptor    =  -6.43 kcal/mol
DOCKED: USER        Moving Ligand-Moving Receptor   =  +0.00 kcal/mol
DOCKED: USER    (2) Final Total Internal Energy     =  -1.27 kcal/mol
DOCKED: USER    (3) Torsional Free Energy           =  +1.49 kcal/mol
DOCKED: USER    (4) Unbound System's Energy         =  -1.27 kcal/mol
DOCKED: USER
DOCKED: USER
DOCKED: REMARK  5 active torsions:
DOCKED: REMARK  status: ('A' for Active; 'I' for Inactive)
DOCKED: REMARK    1  A    between atoms: C_2  and  C_19 
DOCKED: REMARK    2  A    between atoms: C_2  and  C_11 
DOCKED: REMARK    3  A    between atoms: C_19  and  C_20 
DOCKED: REMARK    4  A    between atoms: C_20  and  C_21 
DOCKED: REMARK    5  A    between atoms: C_21  and  N_22 
DOCKED: USER                              x       y       z     vdW  Elec       q    Type
DOCKED: USER                           _______ _______ _______ _____ _____    ______ ____
DOCKED: ROOT
DOCKED: ATOM      1  O   UNL     1     -37.371 -10.712  13.682 -0.06 -0.00    -0.346 OA 
DOCKED: ATOM      2  C   UNL     1     -38.407 -11.699  13.987 -0.14 +0.00    +0.130 C  
DOCKED: ATOM      3  C   UNL     1     -38.855 -12.179  12.637 -0.27 +0.00    +0.004 A  
DOCKED: ATOM      4  C   UNL     1     -38.070 -11.600  11.651 -0.35 +0.00    +0.006 A  
DOCKED: ATOM      5  C   UNL     1     -37.054 -10.720  12.271 -0.07 +0.00    +0.169 C  
DOCKED: ATOM      6  C   UNL     1     -39.870 -13.066  12.309 -0.29 -0.00    -0.001 A  
DOCKED: ATOM      7  C   UNL     1     -38.272 -11.881  10.311 -0.07 +0.00    +0.008 A  
DOCKED: ATOM      8  C   UNL     1     -40.089 -13.357  10.962 -0.39 +0.00    +0.010 A  
DOCKED: ATOM      9  C   UNL     1     -39.294 -12.768   9.968 -0.37 +0.00    +0.068 A  
DOCKED: ATOM     10  N   UNL     1     -39.724 -13.333   7.476 -3.09 -0.00    -0.191 NA 
DOCKED: ATOM     11  C   UNL     1     -39.532 -13.079   8.594 -0.26 +0.00    +0.101 C  
DOCKED: ENDROOT
DOCKED: BRANCH   2  12
DOCKED: ATOM     12  C   UNL     1     -37.786 -12.804  14.834 -0.22 +0.00    +0.038 C  
DOCKED: BRANCH  12  13
DOCKED: ATOM     13  C   UNL     1     -38.628 -14.078  14.792 -0.30 +0.00    +0.038 C  
DOCKED: BRANCH  13  14
DOCKED: ATOM     14  C   UNL     1     -39.637 -14.107  15.938 +0.02 +0.00    +0.251 C  
DOCKED: BRANCH  14  15
DOCKED: ATOM     15  N   UNL     1     -40.926 -13.591  15.492 -0.12 +0.00    +0.141 N  
DOCKED: ATOM     16  C   UNL     1     -41.677 -14.625  14.778 -0.09 +0.00    +0.285 C  
DOCKED: ATOM     17  C   UNL     1     -41.703 -13.093  16.628 -0.03 +0.00    +0.285 C  
DOCKED: ENDBRANCH  14  15
DOCKED: ENDBRANCH  13  14
DOCKED: ENDBRANCH  12  13
DOCKED: ENDBRANCH   2  12
DOCKED: BRANCH   2  18
DOCKED: ATOM     18  C   UNL     1     -39.482 -10.986  14.738 -0.08 +0.00    +0.006 A  
DOCKED: ATOM     19  C   UNL     1     -39.258 -10.573  16.051 -0.04 +0.00    +0.001 A  
DOCKED: ATOM     20  C   UNL     1     -40.265  -9.907  16.751 -0.02 +0.00    +0.029 A  
DOCKED: ATOM     21  C   UNL     1     -41.491  -9.654  16.139 -0.01 +0.00    +0.140 A  
DOCKED: ATOM     22  C   UNL     1     -41.714 -10.068  14.825 -0.08 +0.00    +0.029 A  
DOCKED: ATOM     23  F   UNL     1     -42.456  -9.013  16.811 +0.01 -0.00    -0.204 F  
DOCKED: ATOM     24  C   UNL     1     -40.708 -10.735  14.124 -0.13 +0.00    +0.001 A  
DOCKED: ENDBRANCH   2  18
DOCKED: TORSDOF 5
DOCKED: TER
DOCKED: ENDMDL
________________________________________________________________________________


    FINAL DOCKED STATE:
    ________________________


Run:   247 / 512
Time taken for this run:   0.002s

DOCKED: MODEL        247
DOCKED: USER    Run = 247
DOCKED: USER
DOCKED: USER    Estimated Free Energy of Binding    =  -3.22 kcal/mol  [=(1)+(2)+(3)-(4)]
DOCKED: USER
DOCKED: USER    (1) Final Intermolecular Energy     =  -4.71 kcal/mol
DOCKED: USER        vdW + Hbond + desolv Energy     =  -4.71 kcal/mol
DOCKED: USER        Electrostatic Energy            =  +0.00 kcal/mol
DOCKED: USER        Moving Ligand-Fixed Receptor    =  -4.71 kcal/mol
DOCKED: USER        Moving Ligand-Moving Receptor   =  +0.00 kcal/mol
DOCKED: USER    (2) Final Total Internal Energy     =  -1.45 kcal/mol
DOCKED: USER    (3) Torsional Free Energy           =  +1.49 kcal/mol
DOCKED: USER    (4) Unbound System's Energy         =  -1.45 kcal/mol
DOCKED: USER
DOCKED: USER
DOCKED: REMARK  5 active torsions:
DOCKED: REMARK  status: ('A' for Active; 'I' for Inactive)
DOCKED: REMARK    1  A    between atoms: C_2  and  C_19 
DOCKED: REMARK    2  A    between atoms: C_2  and  C_11 
DOCKED: REMARK    3  A    between atoms: C_19  and  C_20 
DOCKED: REMARK    4  A    between atoms: C_20  and  C_21 
DOCKED: REMARK    5  A    between atoms: C_21  and  N_22 
DOCKED: USER                              x       y       z     vdW  Elec       q    Type
DOCKED: USER                           _______ _______ _______ _____ _____    ______ ____
DOCKED: ROOT
DOCKED: ATOM      1  O   UNL     1     -30.872   0.324   4.227 -0.03 -0.00    -0.346 OA 
DOCKED: ATOM      2  C   UNL     1     -30.746  -1.100   3.913 -0.06 +0.00    +0.130 C  
DOCKED: ATOM      3  C   UNL     1     -32.075  -1.455   3.312 -0.13 +0.00    +0.004 A  
DOCKED: ATOM      4  C   UNL     1     -32.853  -0.312   3.190 -0.20 +0.00    +0.006 A  
DOCKED: ATOM      5  C   UNL     1     -32.100   0.863   3.682 -0.14 +0.00    +0.169 C  
DOCKED: ATOM      6  C   UNL     1     -32.553  -2.689   2.896 -0.12 -0.00    -0.001 A  
DOCKED: ATOM      7  C   UNL     1     -34.129  -0.363   2.656 -0.10 +0.00    +0.008 A  
DOCKED: ATOM      8  C   UNL     1     -33.840  -2.757   2.359 -0.24 +0.00    +0.010 A  
DOCKED: ATOM      9  C   UNL     1     -34.623  -1.600   2.239 -0.34 +0.00    +0.068 A  
DOCKED: ATOM     10  N   UNL     1     -37.005  -1.760   1.233 -2.49 -0.00    -0.191 NA 
DOCKED: ATOM     11  C   UNL     1     -35.937  -1.688   1.685 -0.41 +0.00    +0.101 C  
DOCKED: ENDROOT
DOCKED: BRANCH   2  12
DOCKED: ATOM     12  C   UNL     1     -29.587  -1.279   2.939 -0.03 +0.00    +0.038 C  
DOCKED: BRANCH  12  13
DOCKED: ATOM     13  C   UNL     1     -29.091   0.066   2.411 -0.04 +0.00    +0.038 C  
DOCKED: BRANCH  13  14
DOCKED: ATOM     14  C   UNL     1     -27.809   0.496   3.120 +0.00 +0.00    +0.251 C  
DOCKED: BRANCH  14  15
DOCKED: ATOM     15  N   UNL     1     -28.011   1.765   3.809 -0.01 +0.00    +0.141 N  
DOCKED: ATOM     16  C   UNL     1     -29.100   2.521   3.188 -0.01 +0.00    +0.285 C  
DOCKED: ATOM     17  C   UNL     1     -28.292   1.543   5.228 -0.00 +0.00    +0.285 C  
DOCKED: ENDBRANCH  14  15
DOCKED: ENDBRANCH  13  14
DOCKED: ENDBRANCH  12  13
DOCKED: ENDBRANCH   2  12
DOCKED: BRANCH   2  18
DOCKED: ATOM     18  C   UNL     1     -30.482  -1.808   5.200 -0.08 +0.00    +0.006 A  
DOCKED: ATOM     19  C   UNL     1     -30.609  -1.126   6.409 -0.10 +0.00    +0.001 A  
DOCKED: ATOM     20  C   UNL     1     -30.361  -1.789   7.612 -0.08 +0.00    +0.029 A  
DOCKED: ATOM     21  C   UNL     1     -29.988  -3.132   7.604 -0.04 +0.00    +0.140 A  
DOCKED: ATOM     22  C   UNL     1     -29.861  -3.814   6.393 -0.02 +0.00    +0.029 A  
DOCKED: ATOM     23  F   UNL     1     -29.752  -3.769   8.758 -0.00 -0.00    -0.204 F  
DOCKED: ATOM     24  C   UNL     1     -30.108  -3.151   5.190 -0.03 +0.00    +0.001 A  
DOCKED: ENDBRANCH   2  18
DOCKED: TORSDOF 5
DOCKED: TER
DOCKED: ENDMDL
________________________________________________________________________________


    FINAL DOCKED STATE:
    ________________________


Run:   248 / 512
Time taken for this run:   0.002s

DOCKED: MODEL        248
DOCKED: USER    Run = 248
DOCKED: USER
DOCKED: USER    Estimated Free Energy of Binding    =  -4.19 kcal/mol  [=(1)+(2)+(3)-(4)]
DOCKED: USER
DOCKED: USER    (1) Final Intermolecular Energy     =  -5.68 kcal/mol
DOCKED: USER        vdW + Hbond + desolv Energy     =  -5.68 kcal/mol
DOCKED: USER        Electrostatic Energy            =  +0.00 kcal/mol
DOCKED: USER        Moving Ligand-Fixed Receptor    =  -5.68 kcal/mol
DOCKED: USER        Moving Ligand-Moving Receptor   =  +0.00 kcal/mol
DOCKED: USER    (2) Final Total Internal Energy     =  -1.02 kcal/mol
DOCKED: USER    (3) Torsional Free Energy           =  +1.49 kcal/mol
DOCKED: USER    (4) Unbound System's Energy         =  -1.02 kcal/mol
DOCKED: USER
DOCKED: USER
DOCKED: REMARK  5 active torsions:
DOCKED: REMARK  status: ('A' for Active; 'I' for Inactive)
DOCKED: REMARK    1  A    between atoms: C_2  and  C_19 
DOCKED: REMARK    2  A    between atoms: C_2  and  C_11 
DOCKED: REMARK    3  A    between atoms: C_19  and  C_20 
DOCKED: REMARK    4  A    between atoms: C_20  and  C_21 
DOCKED: REMARK    5  A    between atoms: C_21  and  N_22 
DOCKED: USER                              x       y       z     vdW  Elec       q    Type
DOCKED: USER                           _______ _______ _______ _____ _____    ______ ____
DOCKED: ROOT
DOCKED: ATOM      1  O   UNL     1     -38.624 -10.661  14.821 -0.01 -0.00    -0.346 OA 
DOCKED: ATOM      2  C   UNL     1     -37.388 -11.392  14.539 -0.13 +0.00    +0.130 C  
DOCKED: ATOM      3  C   UNL     1     -37.678 -12.103  13.249 -0.27 +0.00    +0.004 A  
DOCKED: ATOM      4  C   UNL     1     -38.927 -11.725  12.777 -0.25 +0.00    +0.006 A  
DOCKED: ATOM      5  C   UNL     1     -39.537 -10.743  13.701 -0.12 +0.00    +0.169 C  
DOCKED: ATOM      6  C   UNL     1     -36.893 -13.003  12.543 -0.34 -0.00    -0.001 A  
DOCKED: ATOM      7  C   UNL     1     -39.434 -12.233  11.594 -0.32 +0.00    +0.008 A  
DOCKED: ATOM      8  C   UNL     1     -37.393 -13.529  11.350 -0.08 +0.00    +0.010 A  
DOCKED: ATOM      9  C   UNL     1     -38.657 -13.145  10.878 -0.40 +0.00    +0.068 A  
DOCKED: ATOM     10  N   UNL     1     -39.552 -14.135   8.657 -1.61 -0.00    -0.191 NA 
DOCKED: ATOM     11  C   UNL     1     -39.151 -13.691   9.654 -0.52 +0.00    +0.101 C  
DOCKED: ENDROOT
DOCKED: BRANCH   2  12
DOCKED: ATOM     12  C   UNL     1     -36.249 -10.386  14.420 -0.15 +0.00    +0.038 C  
DOCKED: BRANCH  12  13
DOCKED: ATOM     13  C   UNL     1     -34.947 -11.067  14.002 -0.12 +0.00    +0.038 C  
DOCKED: BRANCH  13  14
DOCKED: ATOM     14  C   UNL     1     -33.838 -10.804  15.019 -0.09 +0.00    +0.251 C  
DOCKED: BRANCH  14  15
DOCKED: ATOM     15  N   UNL     1     -32.539 -11.149  14.453 -0.11 +0.00    +0.141 N  
DOCKED: ATOM     16  C   UNL     1     -31.460 -10.738  15.353 -0.03 +0.00    +0.285 C  
DOCKED: ATOM     17  C   UNL     1     -32.458 -12.586  14.186 -0.11 +0.00    +0.285 C  
DOCKED: ENDBRANCH  14  15
DOCKED: ENDBRANCH  13  14
DOCKED: ENDBRANCH  12  13
DOCKED: ENDBRANCH   2  12
DOCKED: BRANCH   2  18
DOCKED: ATOM     18  C   UNL     1     -37.165 -12.326  15.681 -0.14 +0.00    +0.006 A  
DOCKED: ATOM     19  C   UNL     1     -36.508 -11.881  16.827 -0.09 +0.00    +0.001 A  
DOCKED: ATOM     20  C   UNL     1     -36.299 -12.756  17.894 -0.11 +0.00    +0.029 A  
DOCKED: ATOM     21  C   UNL     1     -36.747 -14.074  17.813 -0.18 +0.00    +0.140 A  
DOCKED: ATOM     22  C   UNL     1     -37.404 -14.519  16.666 -0.17 +0.00    +0.029 A  
DOCKED: ATOM     23  F   UNL     1     -36.548 -14.913  18.837 -0.07 -0.00    -0.204 F  
DOCKED: ATOM     24  C   UNL     1     -37.613 -13.644  15.598 -0.24 +0.00    +0.001 A  
DOCKED: ENDBRANCH   2  18
DOCKED: TORSDOF 5
DOCKED: TER
DOCKED: ENDMDL
________________________________________________________________________________


    FINAL DOCKED STATE:
    ________________________


Run:   249 / 512
Time taken for this run:   0.002s

DOCKED: MODEL        249
DOCKED: USER    Run = 249
DOCKED: USER
DOCKED: USER    Estimated Free Energy of Binding    =  -3.99 kcal/mol  [=(1)+(2)+(3)-(4)]
DOCKED: USER
DOCKED: USER    (1) Final Intermolecular Energy     =  -5.48 kcal/mol
DOCKED: USER        vdW + Hbond + desolv Energy     =  -5.48 kcal/mol
DOCKED: USER        Electrostatic Energy            =  +0.00 kcal/mol
DOCKED: USER        Moving Ligand-Fixed Receptor    =  -5.48 kcal/mol
DOCKED: USER        Moving Ligand-Moving Receptor   =  +0.00 kcal/mol
DOCKED: USER    (2) Final Total Internal Energy     =  -1.01 kcal/mol
DOCKED: USER    (3) Torsional Free Energy           =  +1.49 kcal/mol
DOCKED: USER    (4) Unbound System's Energy         =  -1.01 kcal/mol
DOCKED: USER
DOCKED: USER
DOCKED: REMARK  5 active torsions:
DOCKED: REMARK  status: ('A' for Active; 'I' for Inactive)
DOCKED: REMARK    1  A    between atoms: C_2  and  C_19 
DOCKED: REMARK    2  A    between atoms: C_2  and  C_11 
DOCKED: REMARK    3  A    between atoms: C_19  and  C_20 
DOCKED: REMARK    4  A    between atoms: C_20  and  C_21 
DOCKED: REMARK    5  A    between atoms: C_21  and  N_22 
DOCKED: USER                              x       y       z     vdW  Elec       q    Type
DOCKED: USER                           _______ _______ _______ _____ _____    ______ ____
DOCKED: ROOT
DOCKED: ATOM      1  O   UNL     1     -35.169  -2.397   3.472 -0.13 -0.00    -0.346 OA 
DOCKED: ATOM      2  C   UNL     1     -33.772  -2.755   3.226 -0.21 +0.00    +0.130 C  
DOCKED: ATOM      3  C   UNL     1     -33.524  -2.292   1.820 -0.23 +0.00    +0.004 A  
DOCKED: ATOM      4  C   UNL     1     -34.645  -1.627   1.342 -0.40 +0.00    +0.006 A  
DOCKED: ATOM      5  C   UNL     1     -35.692  -1.594   2.387 -0.38 +0.00    +0.169 C  
DOCKED: ATOM      6  C   UNL     1     -32.392  -2.436   1.030 -0.13 -0.00    -0.001 A  
DOCKED: ATOM      7  C   UNL     1     -34.676  -1.092   0.066 -0.31 +0.00    +0.008 A  
DOCKED: ATOM      8  C   UNL     1     -32.409  -1.905  -0.261 -0.16 +0.00    +0.010 A  
DOCKED: ATOM      9  C   UNL     1     -33.545  -1.236  -0.740 -0.22 +0.00    +0.068 A  
DOCKED: ATOM     10  N   UNL     1     -33.542  -0.258  -3.139 -1.18 -0.00    -0.191 NA 
DOCKED: ATOM     11  C   UNL     1     -33.544  -0.697  -2.063 -0.13 +0.00    +0.101 C  
DOCKED: ENDROOT
DOCKED: BRANCH   2  12
DOCKED: ATOM     12  C   UNL     1     -32.902  -2.036   4.250 -0.17 +0.00    +0.038 C  
DOCKED: BRANCH  12  13
DOCKED: ATOM     13  C   UNL     1     -32.742  -0.557   3.905 -0.25 +0.00    +0.038 C  
DOCKED: BRANCH  13  14
DOCKED: ATOM     14  C   UNL     1     -31.285  -0.220   3.595 -0.07 +0.00    +0.251 C  
DOCKED: BRANCH  14  15
DOCKED: ATOM     15  N   UNL     1     -31.048   1.209   3.766 -0.09 +0.00    +0.141 N  
DOCKED: ATOM     16  C   UNL     1     -31.129   1.903   2.480 -0.06 +0.00    +0.285 C  
DOCKED: ATOM     17  C   UNL     1     -32.006   1.781   4.713 -0.15 +0.00    +0.285 C  
DOCKED: ENDBRANCH  14  15
DOCKED: ENDBRANCH  13  14
DOCKED: ENDBRANCH  12  13
DOCKED: ENDBRANCH   2  12
DOCKED: BRANCH   2  18
DOCKED: ATOM     18  C   UNL     1     -33.669  -4.236   3.377 -0.20 +0.00    +0.006 A  
DOCKED: ATOM     19  C   UNL     1     -32.956  -4.984   2.441 -0.15 +0.00    +0.001 A  
DOCKED: ATOM     20  C   UNL     1     -32.860  -6.369   2.583 -0.16 +0.00    +0.029 A  
DOCKED: ATOM     21  C   UNL     1     -33.477  -7.003   3.660 -0.19 +0.00    +0.140 A  
DOCKED: ATOM     22  C   UNL     1     -34.190  -6.255   4.596 -0.19 +0.00    +0.029 A  
DOCKED: ATOM     23  F   UNL     1     -33.384  -8.333   3.797 -0.10 -0.00    -0.204 F  
DOCKED: ATOM     24  C   UNL     1     -34.287  -4.870   4.454 -0.23 +0.00    +0.001 A  
DOCKED: ENDBRANCH   2  18
DOCKED: TORSDOF 5
DOCKED: TER
DOCKED: ENDMDL
________________________________________________________________________________


    FINAL DOCKED STATE:
    ________________________


Run:   250 / 512
Time taken for this run:   0.002s

DOCKED: MODEL        250
DOCKED: USER    Run = 250
DOCKED: USER
DOCKED: USER    Estimated Free Energy of Binding    =  -3.86 kcal/mol  [=(1)+(2)+(3)-(4)]
DOCKED: USER
DOCKED: USER    (1) Final Intermolecular Energy     =  -5.36 kcal/mol
DOCKED: USER        vdW + Hbond + desolv Energy     =  -5.36 kcal/mol
DOCKED: USER        Electrostatic Energy            =  +0.00 kcal/mol
DOCKED: USER        Moving Ligand-Fixed Receptor    =  -5.36 kcal/mol
DOCKED: USER        Moving Ligand-Moving Receptor   =  +0.00 kcal/mol
DOCKED: USER    (2) Final Total Internal Energy     =  -1.35 kcal/mol
DOCKED: USER    (3) Torsional Free Energy           =  +1.49 kcal/mol
DOCKED: USER    (4) Unbound System's Energy         =  -1.35 kcal/mol
DOCKED: USER
DOCKED: USER
DOCKED: REMARK  5 active torsions:
DOCKED: REMARK  status: ('A' for Active; 'I' for Inactive)
DOCKED: REMARK    1  A    between atoms: C_2  and  C_19 
DOCKED: REMARK    2  A    between atoms: C_2  and  C_11 
DOCKED: REMARK    3  A    between atoms: C_19  and  C_20 
DOCKED: REMARK    4  A    between atoms: C_20  and  C_21 
DOCKED: REMARK    5  A    between atoms: C_21  and  N_22 
DOCKED: USER                              x       y       z     vdW  Elec       q    Type
DOCKED: USER                           _______ _______ _______ _____ _____    ______ ____
DOCKED: ROOT
DOCKED: ATOM      1  O   UNL     1     -37.275  -8.788  14.011 -0.03 -0.00    -0.346 OA 
DOCKED: ATOM      2  C   UNL     1     -36.169  -9.745  14.075 -0.13 +0.00    +0.130 C  
DOCKED: ATOM      3  C   UNL     1     -36.734 -10.990  13.455 -0.22 +0.00    +0.004 A  
DOCKED: ATOM      4  C   UNL     1     -38.012 -10.734  12.977 -0.25 +0.00    +0.006 A  
DOCKED: ATOM      5  C   UNL     1     -38.371  -9.321  13.232 -0.17 +0.00    +0.169 C  
DOCKED: ATOM      6  C   UNL     1     -36.159 -12.244  13.314 -0.18 -0.00    -0.001 A  
DOCKED: ATOM      7  C   UNL     1     -38.756 -11.719  12.349 -0.30 +0.00    +0.008 A  
DOCKED: ATOM      8  C   UNL     1     -36.899 -13.249  12.687 -0.37 +0.00    +0.010 A  
DOCKED: ATOM      9  C   UNL     1     -38.191 -12.987  12.207 -0.32 +0.00    +0.068 A  
DOCKED: ATOM     10  N   UNL     1     -39.535 -14.872  11.045 -2.39 -0.00    -0.191 NA 
DOCKED: ATOM     11  C   UNL     1     -38.932 -14.027  11.567 -0.32 +0.00    +0.101 C  
DOCKED: ENDROOT
DOCKED: BRANCH   2  12
DOCKED: ATOM     12  C   UNL     1     -34.991  -9.175  13.295 -0.14 +0.00    +0.038 C  
DOCKED: BRANCH  12  13
DOCKED: ATOM     13  C   UNL     1     -34.447  -7.908  13.953 -0.07 +0.00    +0.038 C  
DOCKED: BRANCH  13  14
DOCKED: ATOM     14  C   UNL     1     -35.266  -6.684  13.550 -0.03 +0.00    +0.251 C  
DOCKED: BRANCH  14  15
DOCKED: ATOM     15  N   UNL     1     -35.750  -6.826  12.181 -0.08 +0.00    +0.141 N  
DOCKED: ATOM     16  C   UNL     1     -37.137  -6.371  12.075 -0.09 +0.00    +0.285 C  
DOCKED: ATOM     17  C   UNL     1     -34.898  -6.079  11.254 -0.05 +0.00    +0.285 C  
DOCKED: ENDBRANCH  14  15
DOCKED: ENDBRANCH  13  14
DOCKED: ENDBRANCH  12  13
DOCKED: ENDBRANCH   2  12
DOCKED: BRANCH   2  18
DOCKED: ATOM     18  C   UNL     1     -35.826  -9.918  15.517 -0.06 +0.00    +0.006 A  
DOCKED: ATOM     19  C   UNL     1     -36.557  -9.242  16.493 -0.02 +0.00    +0.001 A  
DOCKED: ATOM     20  C   UNL     1     -36.235  -9.405  17.841 -0.01 +0.00    +0.029 A  
DOCKED: ATOM     21  C   UNL     1     -35.184 -10.243  18.211 -0.01 +0.00    +0.140 A  
DOCKED: ATOM     22  C   UNL     1     -34.454 -10.920  17.234 -0.05 +0.00    +0.029 A  
DOCKED: ATOM     23  F   UNL     1     -34.877 -10.401  19.505 +0.00 -0.00    -0.204 F  
DOCKED: ATOM     24  C   UNL     1     -34.775 -10.757  15.886 -0.09 +0.00    +0.001 A  
DOCKED: ENDBRANCH   2  18
DOCKED: TORSDOF 5
DOCKED: TER
DOCKED: ENDMDL
________________________________________________________________________________


    FINAL DOCKED STATE:
    ________________________


Run:   251 / 512
Time taken for this run:   0.002s

DOCKED: MODEL        251
DOCKED: USER    Run = 251
DOCKED: USER
DOCKED: USER    Estimated Free Energy of Binding    =  -4.98 kcal/mol  [=(1)+(2)+(3)-(4)]
DOCKED: USER
DOCKED: USER    (1) Final Intermolecular Energy     =  -6.47 kcal/mol
DOCKED: USER        vdW + Hbond + desolv Energy     =  -6.47 kcal/mol
DOCKED: USER        Electrostatic Energy            =  +0.00 kcal/mol
DOCKED: USER        Moving Ligand-Fixed Receptor    =  -6.47 kcal/mol
DOCKED: USER        Moving Ligand-Moving Receptor   =  +0.00 kcal/mol
DOCKED: USER    (2) Final Total Internal Energy     =  -0.90 kcal/mol
DOCKED: USER    (3) Torsional Free Energy           =  +1.49 kcal/mol
DOCKED: USER    (4) Unbound System's Energy         =  -0.90 kcal/mol
DOCKED: USER
DOCKED: USER
DOCKED: REMARK  5 active torsions:
DOCKED: REMARK  status: ('A' for Active; 'I' for Inactive)
DOCKED: REMARK    1  A    between atoms: C_2  and  C_19 
DOCKED: REMARK    2  A    between atoms: C_2  and  C_11 
DOCKED: REMARK    3  A    between atoms: C_19  and  C_20 
DOCKED: REMARK    4  A    between atoms: C_20  and  C_21 
DOCKED: REMARK    5  A    between atoms: C_21  and  N_22 
DOCKED: USER                              x       y       z     vdW  Elec       q    Type
DOCKED: USER                           _______ _______ _______ _____ _____    ______ ____
DOCKED: ROOT
DOCKED: ATOM      1  O   UNL     1     -40.190 -11.679  14.363 -0.00 -0.00    -0.346 OA 
DOCKED: ATOM      2  C   UNL     1     -39.016 -11.019  13.789 -0.13 +0.00    +0.130 C  
DOCKED: ATOM      3  C   UNL     1     -38.974 -11.524  12.376 -0.28 +0.00    +0.004 A  
DOCKED: ATOM      4  C   UNL     1     -40.087 -12.315  12.130 -0.28 +0.00    +0.006 A  
DOCKED: ATOM      5  C   UNL     1     -40.937 -12.377  13.340 -0.15 +0.00    +0.169 C  
DOCKED: ATOM      6  C   UNL     1     -38.032 -11.292  11.384 -0.28 -0.00    -0.001 A  
DOCKED: ATOM      7  C   UNL     1     -40.295 -12.902  10.893 -0.35 +0.00    +0.008 A  
DOCKED: ATOM      8  C   UNL     1     -38.225 -11.881  10.133 +0.10 +0.00    +0.010 A  
DOCKED: ATOM      9  C   UNL     1     -39.351 -12.681   9.889 -0.35 +0.00    +0.068 A  
DOCKED: ATOM     10  N   UNL     1     -39.681 -13.755   7.554 -2.72 -0.00    -0.191 NA 
DOCKED: ATOM     11  C   UNL     1     -39.533 -13.274   8.602 -0.28 +0.00    +0.101 C  
DOCKED: ENDROOT
DOCKED: BRANCH   2  12
DOCKED: ATOM     12  C   UNL     1     -39.220  -9.511  13.875 -0.15 +0.00    +0.038 C  
DOCKED: BRANCH  12  13
DOCKED: ATOM     13  C   UNL     1     -40.055  -8.995  12.705 -0.22 +0.00    +0.038 C  
DOCKED: BRANCH  13  14
DOCKED: ATOM     14  C   UNL     1     -40.991  -7.873  13.150 -0.15 +0.00    +0.251 C  
DOCKED: BRANCH  14  15
DOCKED: ATOM     15  N   UNL     1     -40.896  -6.741  12.236 -0.19 +0.00    +0.141 N  
DOCKED: ATOM     16  C   UNL     1     -41.834  -5.685  12.623 -0.08 +0.00    +0.285 C  
DOCKED: ATOM     17  C   UNL     1     -39.529  -6.218  12.203 -0.13 +0.00    +0.285 C  
DOCKED: ENDBRANCH  14  15
DOCKED: ENDBRANCH  13  14
DOCKED: ENDBRANCH  12  13
DOCKED: ENDBRANCH   2  12
DOCKED: BRANCH   2  18
DOCKED: ATOM     18  C   UNL     1     -37.836 -11.449  14.596 -0.12 +0.00    +0.006 A  
DOCKED: ATOM     19  C   UNL     1     -38.014 -11.911  15.899 -0.09 +0.00    +0.001 A  
DOCKED: ATOM     20  C   UNL     1     -36.910 -12.312  16.652 -0.11 +0.00    +0.029 A  
DOCKED: ATOM     21  C   UNL     1     -35.631 -12.253  16.101 -0.07 +0.00    +0.140 A  
DOCKED: ATOM     22  C   UNL     1     -35.454 -11.792  14.797 -0.18 +0.00    +0.029 A  
DOCKED: ATOM     23  F   UNL     1     -34.572 -12.640  16.823 -0.02 -0.00    -0.204 F  
DOCKED: ATOM     24  C   UNL     1     -36.557 -11.389  14.043 -0.21 +0.00    +0.001 A  
DOCKED: ENDBRANCH   2  18
DOCKED: TORSDOF 5
DOCKED: TER
DOCKED: ENDMDL
________________________________________________________________________________


    FINAL DOCKED STATE:
    ________________________


Run:   252 / 512
Time taken for this run:   0.002s

DOCKED: MODEL        252
DOCKED: USER    Run = 252
DOCKED: USER
DOCKED: USER    Estimated Free Energy of Binding    =  -3.68 kcal/mol  [=(1)+(2)+(3)-(4)]
DOCKED: USER
DOCKED: USER    (1) Final Intermolecular Energy     =  -5.17 kcal/mol
DOCKED: USER        vdW + Hbond + desolv Energy     =  -5.17 kcal/mol
DOCKED: USER        Electrostatic Energy            =  +0.00 kcal/mol
DOCKED: USER        Moving Ligand-Fixed Receptor    =  -5.17 kcal/mol
DOCKED: USER        Moving Ligand-Moving Receptor   =  +0.00 kcal/mol
DOCKED: USER    (2) Final Total Internal Energy     =  -0.93 kcal/mol
DOCKED: USER    (3) Torsional Free Energy           =  +1.49 kcal/mol
DOCKED: USER    (4) Unbound System's Energy         =  -0.93 kcal/mol
DOCKED: USER
DOCKED: USER
DOCKED: REMARK  5 active torsions:
DOCKED: REMARK  status: ('A' for Active; 'I' for Inactive)
DOCKED: REMARK    1  A    between atoms: C_2  and  C_19 
DOCKED: REMARK    2  A    between atoms: C_2  and  C_11 
DOCKED: REMARK    3  A    between atoms: C_19  and  C_20 
DOCKED: REMARK    4  A    between atoms: C_20  and  C_21 
DOCKED: REMARK    5  A    between atoms: C_21  and  N_22 
DOCKED: USER                              x       y       z     vdW  Elec       q    Type
DOCKED: USER                           _______ _______ _______ _____ _____    ______ ____
DOCKED: ROOT
DOCKED: ATOM      1  O   UNL     1     -29.303 -11.759   4.673 -0.00 -0.00    -0.346 OA 
DOCKED: ATOM      2  C   UNL     1     -29.607 -10.769   5.707 -0.06 +0.00    +0.130 C  
DOCKED: ATOM      3  C   UNL     1     -30.197 -11.584   6.822 -0.10 +0.00    +0.004 A  
DOCKED: ATOM      4  C   UNL     1     -30.134 -12.932   6.499 -0.13 +0.00    +0.006 A  
DOCKED: ATOM      5  C   UNL     1     -29.496 -13.102   5.175 -0.08 +0.00    +0.169 C  
DOCKED: ATOM      6  C   UNL     1     -30.737 -11.166   8.030 -0.13 -0.00    -0.001 A  
DOCKED: ATOM      7  C   UNL     1     -30.608 -13.903   7.364 -0.24 +0.00    +0.008 A  
DOCKED: ATOM      8  C   UNL     1     -31.223 -12.133   8.911 -0.24 +0.00    +0.010 A  
DOCKED: ATOM      9  C   UNL     1     -31.158 -13.494   8.580 -0.29 +0.00    +0.068 A  
DOCKED: ATOM     10  N   UNL     1     -32.066 -15.264  10.241 -2.65 -0.00    -0.191 NA 
DOCKED: ATOM     11  C   UNL     1     -31.659 -14.470   9.496 -0.40 +0.00    +0.101 C  
DOCKED: ENDROOT
DOCKED: BRANCH   2  12
DOCKED: ATOM     12  C   UNL     1     -28.312 -10.071   6.104 -0.01 +0.00    +0.038 C  
DOCKED: BRANCH  12  13
DOCKED: ATOM     13  C   UNL     1     -27.125 -11.031   6.056 -0.01 +0.00    +0.038 C  
DOCKED: BRANCH  13  14
DOCKED: ATOM     14  C   UNL     1     -26.151 -10.759   7.201 -0.00 +0.00    +0.251 C  
DOCKED: BRANCH  14  15
DOCKED: ATOM     15  N   UNL     1     -26.280  -9.381   7.660 -0.00 +0.00    +0.141 N  
DOCKED: ATOM     16  C   UNL     1     -25.900  -9.268   9.069 -0.00 +0.00    +0.285 C  
DOCKED: ATOM     17  C   UNL     1     -25.462  -8.486   6.840 +0.00 +0.00    +0.285 C  
DOCKED: ENDBRANCH  14  15
DOCKED: ENDBRANCH  13  14
DOCKED: ENDBRANCH  12  13
DOCKED: ENDBRANCH   2  12
DOCKED: BRANCH   2  18
DOCKED: ATOM     18  C   UNL     1     -30.579  -9.804   5.115 -0.10 +0.00    +0.006 A  
DOCKED: ATOM     19  C   UNL     1     -30.229  -9.068   3.983 -0.06 +0.00    +0.001 A  
DOCKED: ATOM     20  C   UNL     1     -31.138  -8.166   3.431 -0.08 +0.00    +0.029 A  
DOCKED: ATOM     21  C   UNL     1     -32.396  -8.001   4.009 -0.16 +0.00    +0.140 A  
DOCKED: ATOM     22  C   UNL     1     -32.746  -8.737   5.140 -0.18 +0.00    +0.029 A  
DOCKED: ATOM     23  F   UNL     1     -33.269  -7.136   3.477 -0.09 -0.00    -0.204 F  
DOCKED: ATOM     24  C   UNL     1     -31.836  -9.640   5.695 -0.16 +0.00    +0.001 A  
DOCKED: ENDBRANCH   2  18
DOCKED: TORSDOF 5
DOCKED: TER
DOCKED: ENDMDL
________________________________________________________________________________


    FINAL DOCKED STATE:
    ________________________


Run:   253 / 512
Time taken for this run:   0.002s

DOCKED: MODEL        253
DOCKED: USER    Run = 253
DOCKED: USER
DOCKED: USER    Estimated Free Energy of Binding    =  -5.70 kcal/mol  [=(1)+(2)+(3)-(4)]
DOCKED: USER
DOCKED: USER    (1) Final Intermolecular Energy     =  -7.19 kcal/mol
DOCKED: USER        vdW + Hbond + desolv Energy     =  -7.19 kcal/mol
DOCKED: USER        Electrostatic Energy            =  +0.00 kcal/mol
DOCKED: USER        Moving Ligand-Fixed Receptor    =  -7.19 kcal/mol
DOCKED: USER        Moving Ligand-Moving Receptor   =  +0.00 kcal/mol
DOCKED: USER    (2) Final Total Internal Energy     =  -1.26 kcal/mol
DOCKED: USER    (3) Torsional Free Energy           =  +1.49 kcal/mol
DOCKED: USER    (4) Unbound System's Energy         =  -1.26 kcal/mol
DOCKED: USER
DOCKED: USER
DOCKED: REMARK  5 active torsions:
DOCKED: REMARK  status: ('A' for Active; 'I' for Inactive)
DOCKED: REMARK    1  A    between atoms: C_2  and  C_19 
DOCKED: REMARK    2  A    between atoms: C_2  and  C_11 
DOCKED: REMARK    3  A    between atoms: C_19  and  C_20 
DOCKED: REMARK    4  A    between atoms: C_20  and  C_21 
DOCKED: REMARK    5  A    between atoms: C_21  and  N_22 
DOCKED: USER                              x       y       z     vdW  Elec       q    Type
DOCKED: USER                           _______ _______ _______ _____ _____    ______ ____
DOCKED: ROOT
DOCKED: ATOM      1  O   UNL     1     -36.954 -13.086  13.989 -0.13 -0.00    -0.346 OA 
DOCKED: ATOM      2  C   UNL     1     -38.407 -12.960  14.117 -0.19 +0.00    +0.130 C  
DOCKED: ATOM      3  C   UNL     1     -38.899 -13.017  12.700 -0.29 +0.00    +0.004 A  
DOCKED: ATOM      4  C   UNL     1     -37.834 -13.265  11.845 -0.41 +0.00    +0.006 A  
DOCKED: ATOM      5  C   UNL     1     -36.584 -13.400  12.626 -0.19 +0.00    +0.169 C  
DOCKED: ATOM      6  C   UNL     1     -40.188 -12.872  12.207 -0.29 -0.00    -0.001 A  
DOCKED: ATOM      7  C   UNL     1     -38.018 -13.371  10.477 -0.28 +0.00    +0.008 A  
DOCKED: ATOM      8  C   UNL     1     -40.389 -12.973  10.830 -0.34 +0.00    +0.010 A  
DOCKED: ATOM      9  C   UNL     1     -39.309 -13.222   9.969 -0.42 +0.00    +0.068 A  
DOCKED: ATOM     10  N   UNL     1     -39.718 -13.408   7.417 -3.08 -0.00    -0.191 NA 
DOCKED: ATOM     11  C   UNL     1     -39.534 -13.324   8.562 -0.28 +0.00    +0.101 C  
DOCKED: ENDROOT
DOCKED: BRANCH   2  12
DOCKED: ATOM     12  C   UNL     1     -38.918 -14.116  14.969 -0.27 +0.00    +0.038 C  
DOCKED: BRANCH  12  13
DOCKED: ATOM     13  C   UNL     1     -38.647 -13.875  16.453 -0.17 +0.00    +0.038 C  
DOCKED: BRANCH  13  14
DOCKED: ATOM     14  C   UNL     1     -37.284 -14.432  16.860 -0.15 +0.00    +0.251 C  
DOCKED: BRANCH  14  15
DOCKED: ATOM     15  N   UNL     1     -36.726 -13.654  17.960 -0.15 +0.00    +0.141 N  
DOCKED: ATOM     16  C   UNL     1     -36.293 -14.534  19.047 -0.14 +0.00    +0.285 C  
DOCKED: ATOM     17  C   UNL     1     -35.607 -12.834  17.494 -0.07 +0.00    +0.285 C  
DOCKED: ENDBRANCH  14  15
DOCKED: ENDBRANCH  13  14
DOCKED: ENDBRANCH  12  13
DOCKED: ENDBRANCH   2  12
DOCKED: BRANCH   2  18
DOCKED: ATOM     18  C   UNL     1     -38.674 -11.647  14.774 -0.10 +0.00    +0.006 A  
DOCKED: ATOM     19  C   UNL     1     -39.970 -11.134  14.802 -0.08 +0.00    +0.001 A  
DOCKED: ATOM     20  C   UNL     1     -40.219  -9.906  15.416 -0.04 +0.00    +0.029 A  
DOCKED: ATOM     21  C   UNL     1     -39.173  -9.194  16.001 -0.01 +0.00    +0.140 A  
DOCKED: ATOM     22  C   UNL     1     -37.877  -9.708  15.972 -0.03 +0.00    +0.029 A  
DOCKED: ATOM     23  F   UNL     1     -39.412  -8.016  16.591 +0.00 -0.00    -0.204 F  
DOCKED: ATOM     24  C   UNL     1     -37.627 -10.936  15.358 -0.07 +0.00    +0.001 A  
DOCKED: ENDBRANCH   2  18
DOCKED: TORSDOF 5
DOCKED: TER
DOCKED: ENDMDL
________________________________________________________________________________


    FINAL DOCKED STATE:
    ________________________


Run:   254 / 512
Time taken for this run:   0.002s

DOCKED: MODEL        254
DOCKED: USER    Run = 254
DOCKED: USER
DOCKED: USER    Estimated Free Energy of Binding    =  -5.50 kcal/mol  [=(1)+(2)+(3)-(4)]
DOCKED: USER
DOCKED: USER    (1) Final Intermolecular Energy     =  -6.99 kcal/mol
DOCKED: USER        vdW + Hbond + desolv Energy     =  -6.99 kcal/mol
DOCKED: USER        Electrostatic Energy            =  +0.00 kcal/mol
DOCKED: USER        Moving Ligand-Fixed Receptor    =  -6.99 kcal/mol
DOCKED: USER        Moving Ligand-Moving Receptor   =  +0.00 kcal/mol
DOCKED: USER    (2) Final Total Internal Energy     =  -1.29 kcal/mol
DOCKED: USER    (3) Torsional Free Energy           =  +1.49 kcal/mol
DOCKED: USER    (4) Unbound System's Energy         =  -1.29 kcal/mol
DOCKED: USER
DOCKED: USER
DOCKED: REMARK  5 active torsions:
DOCKED: REMARK  status: ('A' for Active; 'I' for Inactive)
DOCKED: REMARK    1  A    between atoms: C_2  and  C_19 
DOCKED: REMARK    2  A    between atoms: C_2  and  C_11 
DOCKED: REMARK    3  A    between atoms: C_19  and  C_20 
DOCKED: REMARK    4  A    between atoms: C_20  and  C_21 
DOCKED: REMARK    5  A    between atoms: C_21  and  N_22 
DOCKED: USER                              x       y       z     vdW  Elec       q    Type
DOCKED: USER                           _______ _______ _______ _____ _____    ______ ____
DOCKED: ROOT
DOCKED: ATOM      1  O   UNL     1     -37.476 -10.647  13.975 -0.04 -0.00    -0.346 OA 
DOCKED: ATOM      2  C   UNL     1     -37.649 -12.097  14.077 -0.18 +0.00    +0.130 C  
DOCKED: ATOM      3  C   UNL     1     -38.098 -12.502  12.703 -0.32 +0.00    +0.004 A  
DOCKED: ATOM      4  C   UNL     1     -38.076 -11.400  11.860 -0.34 +0.00    +0.006 A  
DOCKED: ATOM      5  C   UNL     1     -37.607 -10.209  12.603 -0.23 +0.00    +0.169 C  
DOCKED: ATOM      6  C   UNL     1     -38.483 -13.750  12.233 -0.28 -0.00    -0.001 A  
DOCKED: ATOM      7  C   UNL     1     -38.441 -11.504  10.528 +0.10 +0.00    +0.008 A  
DOCKED: ATOM      8  C   UNL     1     -38.858 -13.869  10.894 -0.49 +0.00    +0.010 A  
DOCKED: ATOM      9  C   UNL     1     -38.836 -12.752  10.046 -0.42 +0.00    +0.068 A  
DOCKED: ATOM     10  N   UNL     1     -39.533 -13.010   7.564 -3.18 -0.00    -0.191 NA 
DOCKED: ATOM     11  C   UNL     1     -39.221 -12.894   8.677 -0.41 +0.00    +0.101 C  
DOCKED: ENDROOT
DOCKED: BRANCH   2  12
DOCKED: ATOM     12  C   UNL     1     -36.314 -12.716  14.472 -0.21 +0.00    +0.038 C  
DOCKED: BRANCH  12  13
DOCKED: ATOM     13  C   UNL     1     -35.141 -11.870  13.981 -0.16 +0.00    +0.038 C  
DOCKED: BRANCH  13  14
DOCKED: ATOM     14  C   UNL     1     -34.496 -11.104  15.135 -0.10 +0.00    +0.251 C  
DOCKED: BRANCH  14  15
DOCKED: ATOM     15  N   UNL     1     -35.209 -11.364  16.379 -0.07 +0.00    +0.141 N  
DOCKED: ATOM     16  C   UNL     1     -34.332 -12.019  17.350 -0.06 +0.00    +0.285 C  
DOCKED: ATOM     17  C   UNL     1     -35.745 -10.121  16.936 -0.01 +0.00    +0.285 C  
DOCKED: ENDBRANCH  14  15
DOCKED: ENDBRANCH  13  14
DOCKED: ENDBRANCH  12  13
DOCKED: ENDBRANCH   2  12
DOCKED: BRANCH   2  18
DOCKED: ATOM     18  C   UNL     1     -38.686 -12.340  15.122 -0.13 +0.00    +0.006 A  
DOCKED: ATOM     19  C   UNL     1     -39.379 -13.549  15.148 -0.20 +0.00    +0.001 A  
DOCKED: ATOM     20  C   UNL     1     -40.349 -13.775  16.126 -0.15 +0.00    +0.029 A  
DOCKED: ATOM     21  C   UNL     1     -40.622 -12.793  17.076 -0.05 +0.00    +0.140 A  
DOCKED: ATOM     22  C   UNL     1     -39.928 -11.584  17.051 -0.04 +0.00    +0.029 A  
DOCKED: ATOM     23  F   UNL     1     -41.551 -13.011  18.016 +0.01 -0.00    -0.204 F  
DOCKED: ATOM     24  C   UNL     1     -38.958 -11.357  16.072 -0.05 +0.00    +0.001 A  
DOCKED: ENDBRANCH   2  18
DOCKED: TORSDOF 5
DOCKED: TER
DOCKED: ENDMDL
________________________________________________________________________________


    FINAL DOCKED STATE:
    ________________________


Run:   255 / 512
Time taken for this run:   0.002s

DOCKED: MODEL        255
DOCKED: USER    Run = 255
DOCKED: USER
DOCKED: USER    Estimated Free Energy of Binding    =  -4.42 kcal/mol  [=(1)+(2)+(3)-(4)]
DOCKED: USER
DOCKED: USER    (1) Final Intermolecular Energy     =  -5.91 kcal/mol
DOCKED: USER        vdW + Hbond + desolv Energy     =  -5.91 kcal/mol
DOCKED: USER        Electrostatic Energy            =  +0.00 kcal/mol
DOCKED: USER        Moving Ligand-Fixed Receptor    =  -5.91 kcal/mol
DOCKED: USER        Moving Ligand-Moving Receptor   =  +0.00 kcal/mol
DOCKED: USER    (2) Final Total Internal Energy     =  -1.40 kcal/mol
DOCKED: USER    (3) Torsional Free Energy           =  +1.49 kcal/mol
DOCKED: USER    (4) Unbound System's Energy         =  -1.40 kcal/mol
DOCKED: USER
DOCKED: USER
DOCKED: REMARK  5 active torsions:
DOCKED: REMARK  status: ('A' for Active; 'I' for Inactive)
DOCKED: REMARK    1  A    between atoms: C_2  and  C_19 
DOCKED: REMARK    2  A    between atoms: C_2  and  C_11 
DOCKED: REMARK    3  A    between atoms: C_19  and  C_20 
DOCKED: REMARK    4  A    between atoms: C_20  and  C_21 
DOCKED: REMARK    5  A    between atoms: C_21  and  N_22 
DOCKED: USER                              x       y       z     vdW  Elec       q    Type
DOCKED: USER                           _______ _______ _______ _____ _____    ______ ____
DOCKED: ROOT
DOCKED: ATOM      1  O   UNL     1     -37.243  -8.099  12.972 -0.07 -0.00    -0.346 OA 
DOCKED: ATOM      2  C   UNL     1     -38.588  -8.257  13.529 -0.14 +0.00    +0.130 C  
DOCKED: ATOM      3  C   UNL     1     -38.981  -9.649  13.128 -0.21 +0.00    +0.004 A  
DOCKED: ATOM      4  C   UNL     1     -37.915 -10.272  12.495 -0.28 +0.00    +0.006 A  
DOCKED: ATOM      5  C   UNL     1     -36.755  -9.354  12.445 -0.19 +0.00    +0.169 C  
DOCKED: ATOM      6  C   UNL     1     -40.183 -10.316  13.318 -0.20 -0.00    -0.001 A  
DOCKED: ATOM      7  C   UNL     1     -38.012 -11.572  12.029 -0.34 +0.00    +0.008 A  
DOCKED: ATOM      8  C   UNL     1     -40.299 -11.626  12.850 -0.22 +0.00    +0.010 A  
DOCKED: ATOM      9  C   UNL     1     -39.218 -12.250  12.209 -0.25 +0.00    +0.068 A  
DOCKED: ATOM     10  N   UNL     1     -39.465 -14.685  11.357 -2.54 -0.00    -0.191 NA 
DOCKED: ATOM     11  C   UNL     1     -39.355 -13.593  11.739 -0.36 +0.00    +0.101 C  
DOCKED: ENDROOT
DOCKED: BRANCH   2  12
DOCKED: ATOM     12  C   UNL     1     -38.509  -8.075  15.040 -0.04 +0.00    +0.038 C  
DOCKED: BRANCH  12  13
DOCKED: ATOM     13  C   UNL     1     -37.065  -8.136  15.534 -0.03 +0.00    +0.038 C  
DOCKED: BRANCH  13  14
DOCKED: ATOM     14  C   UNL     1     -36.610  -9.581  15.725 -0.02 +0.00    +0.251 C  
DOCKED: BRANCH  14  15
DOCKED: ATOM     15  N   UNL     1     -37.752 -10.436  16.029 -0.03 +0.00    +0.141 N  
DOCKED: ATOM     16  C   UNL     1     -37.435 -11.838  15.750 -0.05 +0.00    +0.285 C  
DOCKED: ATOM     17  C   UNL     1     -38.159 -10.275  17.426 -0.00 +0.00    +0.285 C  
DOCKED: ENDBRANCH  14  15
DOCKED: ENDBRANCH  13  14
DOCKED: ENDBRANCH  12  13
DOCKED: ENDBRANCH   2  12
DOCKED: BRANCH   2  18
DOCKED: ATOM     18  C   UNL     1     -39.445  -7.208  12.903 -0.19 +0.00    +0.006 A  
DOCKED: ATOM     19  C   UNL     1     -40.778  -7.076  13.290 -0.17 +0.00    +0.001 A  
DOCKED: ATOM     20  C   UNL     1     -41.579  -6.094  12.704 -0.16 +0.00    +0.029 A  
DOCKED: ATOM     21  C   UNL     1     -41.045  -5.247  11.734 -0.12 +0.00    +0.140 A  
DOCKED: ATOM     22  C   UNL     1     -39.712  -5.379  11.349 -0.13 +0.00    +0.029 A  
DOCKED: ATOM     23  F   UNL     1     -41.813  -4.303  11.174 -0.02 -0.00    -0.204 F  
DOCKED: ATOM     24  C   UNL     1     -38.910  -6.361  11.933 -0.16 +0.00    +0.001 A  
DOCKED: ENDBRANCH   2  18
DOCKED: TORSDOF 5
DOCKED: TER
DOCKED: ENDMDL
________________________________________________________________________________


    FINAL DOCKED STATE:
    ________________________


Run:   256 / 512
Time taken for this run:   0.002s

DOCKED: MODEL        256
DOCKED: USER    Run = 256
DOCKED: USER
DOCKED: USER    Estimated Free Energy of Binding    =  -4.01 kcal/mol  [=(1)+(2)+(3)-(4)]
DOCKED: USER
DOCKED: USER    (1) Final Intermolecular Energy     =  -5.50 kcal/mol
DOCKED: USER        vdW + Hbond + desolv Energy     =  -5.50 kcal/mol
DOCKED: USER        Electrostatic Energy            =  +0.00 kcal/mol
DOCKED: USER        Moving Ligand-Fixed Receptor    =  -5.50 kcal/mol
DOCKED: USER        Moving Ligand-Moving Receptor   =  +0.00 kcal/mol
DOCKED: USER    (2) Final Total Internal Energy     =  -1.13 kcal/mol
DOCKED: USER    (3) Torsional Free Energy           =  +1.49 kcal/mol
DOCKED: USER    (4) Unbound System's Energy         =  -1.13 kcal/mol
DOCKED: USER
DOCKED: USER
DOCKED: REMARK  5 active torsions:
DOCKED: REMARK  status: ('A' for Active; 'I' for Inactive)
DOCKED: REMARK    1  A    between atoms: C_2  and  C_19 
DOCKED: REMARK    2  A    between atoms: C_2  and  C_11 
DOCKED: REMARK    3  A    between atoms: C_19  and  C_20 
DOCKED: REMARK    4  A    between atoms: C_20  and  C_21 
DOCKED: REMARK    5  A    between atoms: C_21  and  N_22 
DOCKED: USER                              x       y       z     vdW  Elec       q    Type
DOCKED: USER                           _______ _______ _______ _____ _____    ______ ____
DOCKED: ROOT
DOCKED: ATOM      1  O   UNL     1     -31.310  -1.073   5.624 -0.08 -0.00    -0.346 OA 
DOCKED: ATOM      2  C   UNL     1     -31.665  -2.483   5.455 -0.12 +0.00    +0.130 C  
DOCKED: ATOM      3  C   UNL     1     -32.790  -2.453   4.461 -0.16 +0.00    +0.004 A  
DOCKED: ATOM      4  C   UNL     1     -32.987  -1.153   4.017 -0.15 +0.00    +0.006 A  
DOCKED: ATOM      5  C   UNL     1     -32.013  -0.248   4.666 -0.16 +0.00    +0.169 C  
DOCKED: ATOM      6  C   UNL     1     -33.570  -3.495   3.980 -0.20 -0.00    -0.001 A  
DOCKED: ATOM      7  C   UNL     1     -33.966  -0.850   3.087 -0.32 +0.00    +0.008 A  
DOCKED: ATOM      8  C   UNL     1     -34.564  -3.205   3.045 -0.23 +0.00    +0.010 A  
DOCKED: ATOM      9  C   UNL     1     -34.761  -1.889   2.600 -0.33 +0.00    +0.068 A  
DOCKED: ATOM     10  N   UNL     1     -36.612  -1.386   0.858 -2.54 -0.00    -0.191 NA 
DOCKED: ATOM     11  C   UNL     1     -35.782  -1.611   1.640 -0.44 +0.00    +0.101 C  
DOCKED: ENDROOT
DOCKED: BRANCH   2  12
DOCKED: ATOM     12  C   UNL     1     -30.441  -3.231   4.942 -0.04 +0.00    +0.038 C  
DOCKED: BRANCH  12  13
DOCKED: ATOM     13  C   UNL     1     -30.232  -3.000   3.447 -0.02 +0.00    +0.038 C  
DOCKED: BRANCH  13  14
DOCKED: ATOM     14  C   UNL     1     -29.721  -4.266   2.761 +0.00 +0.00    +0.251 C  
DOCKED: BRANCH  14  15
DOCKED: ATOM     15  N   UNL     1     -30.840  -5.102   2.342 -0.02 +0.00    +0.141 N  
DOCKED: ATOM     16  C   UNL     1     -30.683  -5.512   0.946 -0.02 +0.00    +0.285 C  
DOCKED: ATOM     17  C   UNL     1     -30.957  -6.278   3.207 -0.01 +0.00    +0.285 C  
DOCKED: ENDBRANCH  14  15
DOCKED: ENDBRANCH  13  14
DOCKED: ENDBRANCH  12  13
DOCKED: ENDBRANCH   2  12
DOCKED: BRANCH   2  18
DOCKED: ATOM     18  C   UNL     1     -32.085  -2.990   6.794 -0.13 +0.00    +0.006 A  
DOCKED: ATOM     19  C   UNL     1     -31.169  -3.026   7.844 -0.10 +0.00    +0.001 A  
DOCKED: ATOM     20  C   UNL     1     -31.562  -3.501   9.096 -0.08 +0.00    +0.029 A  
DOCKED: ATOM     21  C   UNL     1     -32.871  -3.939   9.295 -0.08 +0.00    +0.140 A  
DOCKED: ATOM     22  C   UNL     1     -33.787  -3.902   8.245 -0.15 +0.00    +0.029 A  
DOCKED: ATOM     23  F   UNL     1     -33.249  -4.393  10.497 -0.01 -0.00    -0.204 F  
DOCKED: ATOM     24  C   UNL     1     -33.394  -3.428   6.992 -0.10 +0.00    +0.001 A  
DOCKED: ENDBRANCH   2  18
DOCKED: TORSDOF 5
DOCKED: TER
DOCKED: ENDMDL
________________________________________________________________________________


    FINAL DOCKED STATE:
    ________________________


Run:   257 / 512
Time taken for this run:   0.002s

DOCKED: MODEL        257
DOCKED: USER    Run = 257
DOCKED: USER
DOCKED: USER    Estimated Free Energy of Binding    =  -4.75 kcal/mol  [=(1)+(2)+(3)-(4)]
DOCKED: USER
DOCKED: USER    (1) Final Intermolecular Energy     =  -6.24 kcal/mol
DOCKED: USER        vdW + Hbond + desolv Energy     =  -6.24 kcal/mol
DOCKED: USER        Electrostatic Energy            =  +0.00 kcal/mol
DOCKED: USER        Moving Ligand-Fixed Receptor    =  -6.24 kcal/mol
DOCKED: USER        Moving Ligand-Moving Receptor   =  +0.00 kcal/mol
DOCKED: USER    (2) Final Total Internal Energy     =  -1.14 kcal/mol
DOCKED: USER    (3) Torsional Free Energy           =  +1.49 kcal/mol
DOCKED: USER    (4) Unbound System's Energy         =  -1.14 kcal/mol
DOCKED: USER
DOCKED: USER
DOCKED: REMARK  5 active torsions:
DOCKED: REMARK  status: ('A' for Active; 'I' for Inactive)
DOCKED: REMARK    1  A    between atoms: C_2  and  C_19 
DOCKED: REMARK    2  A    between atoms: C_2  and  C_11 
DOCKED: REMARK    3  A    between atoms: C_19  and  C_20 
DOCKED: REMARK    4  A    between atoms: C_20  and  C_21 
DOCKED: REMARK    5  A    between atoms: C_21  and  N_22 
DOCKED: USER                              x       y       z     vdW  Elec       q    Type
DOCKED: USER                           _______ _______ _______ _____ _____    ______ ____
DOCKED: ROOT
DOCKED: ATOM      1  O   UNL     1     -35.411  -4.670   7.133 -0.09 -0.00    -0.346 OA 
DOCKED: ATOM      2  C   UNL     1     -34.153  -4.701   6.385 -0.16 +0.00    +0.130 C  
DOCKED: ATOM      3  C   UNL     1     -34.485  -4.011   5.094 -0.25 +0.00    +0.004 A  
DOCKED: ATOM      4  C   UNL     1     -35.785  -3.530   5.143 -0.24 +0.00    +0.006 A  
DOCKED: ATOM      5  C   UNL     1     -36.391  -3.852   6.454 -0.25 +0.00    +0.169 C  
DOCKED: ATOM      6  C   UNL     1     -33.695  -3.814   3.971 -0.21 -0.00    -0.001 A  
DOCKED: ATOM      7  C   UNL     1     -36.340  -2.844   4.076 -0.27 +0.00    +0.008 A  
DOCKED: ATOM      8  C   UNL     1     -34.241  -3.128   2.885 -0.25 +0.00    +0.010 A  
DOCKED: ATOM      9  C   UNL     1     -35.557  -2.645   2.938 -0.20 +0.00    +0.068 A  
DOCKED: ATOM     10  N   UNL     1     -36.540  -1.371   0.907 -2.47 -0.00    -0.191 NA 
DOCKED: ATOM     11  C   UNL     1     -36.099  -1.943   1.817 -0.32 +0.00    +0.101 C  
DOCKED: ENDROOT
DOCKED: BRANCH   2  12
DOCKED: ATOM     12  C   UNL     1     -33.092  -3.966   7.196 -0.15 +0.00    +0.038 C  
DOCKED: BRANCH  12  13
DOCKED: ATOM     13  C   UNL     1     -31.687  -4.450   6.843 -0.06 +0.00    +0.038 C  
DOCKED: BRANCH  13  14
DOCKED: ATOM     14  C   UNL     1     -30.971  -3.448   5.938 -0.05 +0.00    +0.251 C  
DOCKED: BRANCH  14  15
DOCKED: ATOM     15  N   UNL     1     -31.410  -2.090   6.238 -0.12 +0.00    +0.141 N  
DOCKED: ATOM     16  C   UNL     1     -30.467  -1.432   7.144 -0.05 +0.00    +0.285 C  
DOCKED: ATOM     17  C   UNL     1     -31.558  -1.313   5.007 -0.10 +0.00    +0.285 C  
DOCKED: ENDBRANCH  14  15
DOCKED: ENDBRANCH  13  14
DOCKED: ENDBRANCH  12  13
DOCKED: ENDBRANCH   2  12
DOCKED: BRANCH   2  18
DOCKED: ATOM     18  C   UNL     1     -33.790  -6.137   6.201 -0.14 +0.00    +0.006 A  
DOCKED: ATOM     19  C   UNL     1     -33.869  -7.019   7.277 -0.14 +0.00    +0.001 A  
DOCKED: ATOM     20  C   UNL     1     -33.529  -8.361   7.103 -0.21 +0.00    +0.029 A  
DOCKED: ATOM     21  C   UNL     1     -33.111  -8.819   5.854 -0.17 +0.00    +0.140 A  
DOCKED: ATOM     22  C   UNL     1     -33.033  -7.935   4.778 -0.18 +0.00    +0.029 A  
DOCKED: ATOM     23  F   UNL     1     -32.787 -10.107   5.687 +0.01 -0.00    -0.204 F  
DOCKED: ATOM     24  C   UNL     1     -33.372  -6.593   4.951 -0.17 +0.00    +0.001 A  
DOCKED: ENDBRANCH   2  18
DOCKED: TORSDOF 5
DOCKED: TER
DOCKED: ENDMDL
________________________________________________________________________________


    FINAL DOCKED STATE:
    ________________________


Run:   258 / 512
Time taken for this run:   0.002s

DOCKED: MODEL        258
DOCKED: USER    Run = 258
DOCKED: USER
DOCKED: USER    Estimated Free Energy of Binding    =  -3.84 kcal/mol  [=(1)+(2)+(3)-(4)]
DOCKED: USER
DOCKED: USER    (1) Final Intermolecular Energy     =  -5.33 kcal/mol
DOCKED: USER        vdW + Hbond + desolv Energy     =  -5.33 kcal/mol
DOCKED: USER        Electrostatic Energy            =  +0.00 kcal/mol
DOCKED: USER        Moving Ligand-Fixed Receptor    =  -5.33 kcal/mol
DOCKED: USER        Moving Ligand-Moving Receptor   =  +0.00 kcal/mol
DOCKED: USER    (2) Final Total Internal Energy     =  -1.07 kcal/mol
DOCKED: USER    (3) Torsional Free Energy           =  +1.49 kcal/mol
DOCKED: USER    (4) Unbound System's Energy         =  -1.07 kcal/mol
DOCKED: USER
DOCKED: USER
DOCKED: REMARK  5 active torsions:
DOCKED: REMARK  status: ('A' for Active; 'I' for Inactive)
DOCKED: REMARK    1  A    between atoms: C_2  and  C_19 
DOCKED: REMARK    2  A    between atoms: C_2  and  C_11 
DOCKED: REMARK    3  A    between atoms: C_19  and  C_20 
DOCKED: REMARK    4  A    between atoms: C_20  and  C_21 
DOCKED: REMARK    5  A    between atoms: C_21  and  N_22 
DOCKED: USER                              x       y       z     vdW  Elec       q    Type
DOCKED: USER                           _______ _______ _______ _____ _____    ______ ____
DOCKED: ROOT
DOCKED: ATOM      1  O   UNL     1     -37.470 -10.005  13.974 -0.04 -0.00    -0.346 OA 
DOCKED: ATOM      2  C   UNL     1     -38.925 -10.142  14.053 -0.11 +0.00    +0.130 C  
DOCKED: ATOM      3  C   UNL     1     -39.270 -11.000  12.870 -0.23 +0.00    +0.004 A  
DOCKED: ATOM      4  C   UNL     1     -38.106 -11.409  12.234 -0.32 +0.00    +0.006 A  
DOCKED: ATOM      5  C   UNL     1     -36.927 -10.869  12.949 -0.21 +0.00    +0.169 C  
DOCKED: ATOM      6  C   UNL     1     -40.514 -11.396  12.400 -0.22 -0.00    -0.001 A  
DOCKED: ATOM      7  C   UNL     1     -38.144 -12.219  11.112 -0.34 +0.00    +0.008 A  
DOCKED: ATOM      8  C   UNL     1     -40.569 -12.209  11.267 -0.15 +0.00    +0.010 A  
DOCKED: ATOM      9  C   UNL     1     -39.390 -12.618  10.627 -0.33 +0.00    +0.068 A  
DOCKED: ATOM     10  N   UNL     1     -39.528 -14.132   8.529 -1.67 -0.00    -0.191 NA 
DOCKED: ATOM     11  C   UNL     1     -39.466 -13.453   9.469 -0.45 +0.00    +0.101 C  
DOCKED: ENDROOT
DOCKED: BRANCH   2  12
DOCKED: ATOM     12  C   UNL     1     -39.276 -10.797  15.383 -0.07 +0.00    +0.038 C  
DOCKED: BRANCH  12  13
DOCKED: ATOM     13  C   UNL     1     -38.906 -12.279  15.389 -0.13 +0.00    +0.038 C  
DOCKED: BRANCH  13  14
DOCKED: ATOM     14  C   UNL     1     -39.020 -12.868  16.794 -0.07 +0.00    +0.251 C  
DOCKED: BRANCH  14  15
DOCKED: ATOM     15  N   UNL     1     -37.809 -13.607  17.134 -0.15 +0.00    +0.141 N  
DOCKED: ATOM     16  C   UNL     1     -38.072 -14.559  18.214 -0.11 +0.00    +0.285 C  
DOCKED: ATOM     17  C   UNL     1     -37.285 -14.305  15.959 -0.06 +0.00    +0.285 C  
DOCKED: ENDBRANCH  14  15
DOCKED: ENDBRANCH  13  14
DOCKED: ENDBRANCH  12  13
DOCKED: ENDBRANCH   2  12
DOCKED: BRANCH   2  18
DOCKED: ATOM     18  C   UNL     1     -39.498  -8.767  13.962 -0.13 +0.00    +0.006 A  
DOCKED: ATOM     19  C   UNL     1     -40.240  -8.250  15.023 -0.05 +0.00    +0.001 A  
DOCKED: ATOM     20  C   UNL     1     -40.776  -6.964  14.936 -0.04 +0.00    +0.029 A  
DOCKED: ATOM     21  C   UNL     1     -40.569  -6.199  13.790 -0.06 +0.00    +0.140 A  
DOCKED: ATOM     22  C   UNL     1     -39.827  -6.717  12.729 -0.19 +0.00    +0.029 A  
DOCKED: ATOM     23  F   UNL     1     -41.082  -4.964  13.707 +0.00 -0.00    -0.204 F  
DOCKED: ATOM     24  C   UNL     1     -39.291  -8.003  12.814 -0.22 +0.00    +0.001 A  
DOCKED: ENDBRANCH   2  18
DOCKED: TORSDOF 5
DOCKED: TER
DOCKED: ENDMDL
________________________________________________________________________________


    FINAL DOCKED STATE:
    ________________________


Run:   259 / 512
Time taken for this run:   0.002s

DOCKED: MODEL        259
DOCKED: USER    Run = 259
DOCKED: USER
DOCKED: USER    Estimated Free Energy of Binding    =  -4.28 kcal/mol  [=(1)+(2)+(3)-(4)]
DOCKED: USER
DOCKED: USER    (1) Final Intermolecular Energy     =  -5.77 kcal/mol
DOCKED: USER        vdW + Hbond + desolv Energy     =  -5.77 kcal/mol
DOCKED: USER        Electrostatic Energy            =  +0.00 kcal/mol
DOCKED: USER        Moving Ligand-Fixed Receptor    =  -5.77 kcal/mol
DOCKED: USER        Moving Ligand-Moving Receptor   =  +0.00 kcal/mol
DOCKED: USER    (2) Final Total Internal Energy     =  -0.91 kcal/mol
DOCKED: USER    (3) Torsional Free Energy           =  +1.49 kcal/mol
DOCKED: USER    (4) Unbound System's Energy         =  -0.91 kcal/mol
DOCKED: USER
DOCKED: USER
DOCKED: REMARK  5 active torsions:
DOCKED: REMARK  status: ('A' for Active; 'I' for Inactive)
DOCKED: REMARK    1  A    between atoms: C_2  and  C_19 
DOCKED: REMARK    2  A    between atoms: C_2  and  C_11 
DOCKED: REMARK    3  A    between atoms: C_19  and  C_20 
DOCKED: REMARK    4  A    between atoms: C_20  and  C_21 
DOCKED: REMARK    5  A    between atoms: C_21  and  N_22 
DOCKED: USER                              x       y       z     vdW  Elec       q    Type
DOCKED: USER                           _______ _______ _______ _____ _____    ______ ____
DOCKED: ROOT
DOCKED: ATOM      1  O   UNL     1     -34.821 -10.681  14.970 -0.06 -0.00    -0.346 OA 
DOCKED: ATOM      2  C   UNL     1     -35.568  -9.773  14.098 -0.12 +0.00    +0.130 C  
DOCKED: ATOM      3  C   UNL     1     -36.516 -10.677  13.365 -0.21 +0.00    +0.004 A  
DOCKED: ATOM      4  C   UNL     1     -36.400 -11.971  13.854 -0.25 +0.00    +0.006 A  
DOCKED: ATOM      5  C   UNL     1     -35.391 -12.010  14.937 -0.13 +0.00    +0.169 C  
DOCKED: ATOM      6  C   UNL     1     -37.418 -10.377  12.355 -0.27 -0.00    -0.001 A  
DOCKED: ATOM      7  C   UNL     1     -37.172 -13.004  13.351 -0.33 +0.00    +0.008 A  
DOCKED: ATOM      8  C   UNL     1     -38.201 -11.408  11.833 -0.33 +0.00    +0.010 A  
DOCKED: ATOM      9  C   UNL     1     -38.078 -12.715  12.329 -0.31 +0.00    +0.068 A  
DOCKED: ATOM     10  N   UNL     1     -39.551 -14.605  11.343 -2.55 -0.00    -0.191 NA 
DOCKED: ATOM     11  C   UNL     1     -38.890 -13.757  11.785 -0.36 +0.00    +0.101 C  
DOCKED: ENDROOT
DOCKED: BRANCH   2  12
DOCKED: ATOM     12  C   UNL     1     -36.281  -8.746  14.969 -0.06 +0.00    +0.038 C  
DOCKED: BRANCH  12  13
DOCKED: ATOM     13  C   UNL     1     -37.399  -8.044  14.200 -0.08 +0.00    +0.038 C  
DOCKED: BRANCH  13  14
DOCKED: ATOM     14  C   UNL     1     -37.136  -6.543  14.096 -0.03 +0.00    +0.251 C  
DOCKED: BRANCH  14  15
DOCKED: ATOM     15  N   UNL     1     -36.615  -6.030  15.357 -0.01 +0.00    +0.141 N  
DOCKED: ATOM     16  C   UNL     1     -36.023  -4.705  15.171 -0.00 +0.00    +0.285 C  
DOCKED: ATOM     17  C   UNL     1     -37.672  -5.977  16.368 -0.00 +0.00    +0.285 C  
DOCKED: ENDBRANCH  14  15
DOCKED: ENDBRANCH  13  14
DOCKED: ENDBRANCH  12  13
DOCKED: ENDBRANCH   2  12
DOCKED: BRANCH   2  18
DOCKED: ATOM     18  C   UNL     1     -34.574  -9.119  13.197 -0.11 +0.00    +0.006 A  
DOCKED: ATOM     19  C   UNL     1     -35.012  -8.344  12.124 -0.15 +0.00    +0.001 A  
DOCKED: ATOM     20  C   UNL     1     -34.082  -7.733  11.281 -0.13 +0.00    +0.029 A  
DOCKED: ATOM     21  C   UNL     1     -32.718  -7.897  11.514 -0.07 +0.00    +0.140 A  
DOCKED: ATOM     22  C   UNL     1     -32.281  -8.671  12.588 -0.09 +0.00    +0.029 A  
DOCKED: ATOM     23  F   UNL     1     -31.825  -7.308  10.707 -0.00 -0.00    -0.204 F  
DOCKED: ATOM     24  C   UNL     1     -33.210  -9.283  13.431 -0.10 +0.00    +0.001 A  
DOCKED: ENDBRANCH   2  18
DOCKED: TORSDOF 5
DOCKED: TER
DOCKED: ENDMDL
________________________________________________________________________________


    FINAL DOCKED STATE:
    ________________________


Run:   260 / 512
Time taken for this run:   0.002s

DOCKED: MODEL        260
DOCKED: USER    Run = 260
DOCKED: USER
DOCKED: USER    Estimated Free Energy of Binding    =  -5.53 kcal/mol  [=(1)+(2)+(3)-(4)]
DOCKED: USER
DOCKED: USER    (1) Final Intermolecular Energy     =  -7.02 kcal/mol
DOCKED: USER        vdW + Hbond + desolv Energy     =  -7.02 kcal/mol
DOCKED: USER        Electrostatic Energy            =  +0.00 kcal/mol
DOCKED: USER        Moving Ligand-Fixed Receptor    =  -7.02 kcal/mol
DOCKED: USER        Moving Ligand-Moving Receptor   =  +0.00 kcal/mol
DOCKED: USER    (2) Final Total Internal Energy     =  -0.97 kcal/mol
DOCKED: USER    (3) Torsional Free Energy           =  +1.49 kcal/mol
DOCKED: USER    (4) Unbound System's Energy         =  -0.97 kcal/mol
DOCKED: USER
DOCKED: USER
DOCKED: REMARK  5 active torsions:
DOCKED: REMARK  status: ('A' for Active; 'I' for Inactive)
DOCKED: REMARK    1  A    between atoms: C_2  and  C_19 
DOCKED: REMARK    2  A    between atoms: C_2  and  C_11 
DOCKED: REMARK    3  A    between atoms: C_19  and  C_20 
DOCKED: REMARK    4  A    between atoms: C_20  and  C_21 
DOCKED: REMARK    5  A    between atoms: C_21  and  N_22 
DOCKED: USER                              x       y       z     vdW  Elec       q    Type
DOCKED: USER                           _______ _______ _______ _____ _____    ______ ____
DOCKED: ROOT
DOCKED: ATOM      1  O   UNL     1     -41.292 -12.294  14.382 -0.01 -0.00    -0.346 OA 
DOCKED: ATOM      2  C   UNL     1     -39.911 -11.835  14.228 -0.10 +0.00    +0.130 C  
DOCKED: ATOM      3  C   UNL     1     -39.614 -12.069  12.776 -0.23 +0.00    +0.004 A  
DOCKED: ATOM      4  C   UNL     1     -40.758 -12.518  12.131 -0.28 +0.00    +0.006 A  
DOCKED: ATOM      5  C   UNL     1     -41.878 -12.599  13.095 -0.16 +0.00    +0.169 C  
DOCKED: ATOM      6  C   UNL     1     -38.428 -11.889  12.077 -0.34 -0.00    -0.001 A  
DOCKED: ATOM      7  C   UNL     1     -40.757 -12.805  10.777 -0.27 +0.00    +0.008 A  
DOCKED: ATOM      8  C   UNL     1     -38.410 -12.178  10.712 -0.37 +0.00    +0.010 A  
DOCKED: ATOM      9  C   UNL     1     -39.569 -12.633  10.065 -0.30 +0.00    +0.068 A  
DOCKED: ATOM     10  N   UNL     1     -39.502 -13.155   7.528 -3.04 -0.00    -0.191 NA 
DOCKED: ATOM     11  C   UNL     1     -39.532 -12.921   8.666 -0.26 +0.00    +0.101 C  
DOCKED: ENDROOT
DOCKED: BRANCH   2  12
DOCKED: ATOM     12  C   UNL     1     -39.845 -10.363  14.618 -0.10 +0.00    +0.038 C  
DOCKED: BRANCH  12  13
DOCKED: ATOM     13  C   UNL     1     -40.922  -9.549  13.903 -0.17 +0.00    +0.038 C  
DOCKED: BRANCH  13  14
DOCKED: ATOM     14  C   UNL     1     -40.346  -8.820  12.690 -0.14 +0.00    +0.251 C  
DOCKED: BRANCH  14  15
DOCKED: ATOM     15  N   UNL     1     -40.761  -7.422  12.694 -0.20 +0.00    +0.141 N  
DOCKED: ATOM     16  C   UNL     1     -42.205  -7.313  12.483 -0.12 +0.00    +0.285 C  
DOCKED: ATOM     17  C   UNL     1     -40.382  -6.775  13.951 -0.05 +0.00    +0.285 C  
DOCKED: ENDBRANCH  14  15
DOCKED: ENDBRANCH  13  14
DOCKED: ENDBRANCH  12  13
DOCKED: ENDBRANCH   2  12
DOCKED: BRANCH   2  18
DOCKED: ATOM     18  C   UNL     1     -39.070 -12.670  15.136 -0.14 +0.00    +0.006 A  
DOCKED: ATOM     19  C   UNL     1     -37.732 -12.907  14.824 -0.21 +0.00    +0.001 A  
DOCKED: ATOM     20  C   UNL     1     -36.947 -13.688  15.674 -0.02 +0.00    +0.029 A  
DOCKED: ATOM     21  C   UNL     1     -37.501 -14.230  16.832 -0.16 +0.00    +0.140 A  
DOCKED: ATOM     22  C   UNL     1     -38.840 -13.992  17.144 -0.11 +0.00    +0.029 A  
DOCKED: ATOM     23  F   UNL     1     -36.747 -14.978  17.648 -0.10 -0.00    -0.204 F  
DOCKED: ATOM     24  C   UNL     1     -39.626 -13.211  16.295 -0.14 +0.00    +0.001 A  
DOCKED: ENDBRANCH   2  18
DOCKED: TORSDOF 5
DOCKED: TER
DOCKED: ENDMDL
________________________________________________________________________________


    FINAL DOCKED STATE:
    ________________________


Run:   261 / 512
Time taken for this run:   0.002s

DOCKED: MODEL        261
DOCKED: USER    Run = 261
DOCKED: USER
DOCKED: USER    Estimated Free Energy of Binding    =  -4.49 kcal/mol  [=(1)+(2)+(3)-(4)]
DOCKED: USER
DOCKED: USER    (1) Final Intermolecular Energy     =  -5.98 kcal/mol
DOCKED: USER        vdW + Hbond + desolv Energy     =  -5.98 kcal/mol
DOCKED: USER        Electrostatic Energy            =  +0.00 kcal/mol
DOCKED: USER        Moving Ligand-Fixed Receptor    =  -5.98 kcal/mol
DOCKED: USER        Moving Ligand-Moving Receptor   =  +0.00 kcal/mol
DOCKED: USER    (2) Final Total Internal Energy     =  -1.34 kcal/mol
DOCKED: USER    (3) Torsional Free Energy           =  +1.49 kcal/mol
DOCKED: USER    (4) Unbound System's Energy         =  -1.34 kcal/mol
DOCKED: USER
DOCKED: USER
DOCKED: REMARK  5 active torsions:
DOCKED: REMARK  status: ('A' for Active; 'I' for Inactive)
DOCKED: REMARK    1  A    between atoms: C_2  and  C_19 
DOCKED: REMARK    2  A    between atoms: C_2  and  C_11 
DOCKED: REMARK    3  A    between atoms: C_19  and  C_20 
DOCKED: REMARK    4  A    between atoms: C_20  and  C_21 
DOCKED: REMARK    5  A    between atoms: C_21  and  N_22 
DOCKED: USER                              x       y       z     vdW  Elec       q    Type
DOCKED: USER                           _______ _______ _______ _____ _____    ______ ____
DOCKED: ROOT
DOCKED: ATOM      1  O   UNL     1     -35.024 -10.313  14.721 -0.06 -0.00    -0.346 OA 
DOCKED: ATOM      2  C   UNL     1     -35.820  -9.500  13.800 -0.13 +0.00    +0.130 C  
DOCKED: ATOM      3  C   UNL     1     -36.717 -10.496  13.124 -0.22 +0.00    +0.004 A  
DOCKED: ATOM      4  C   UNL     1     -36.530 -11.750  13.687 -0.25 +0.00    +0.006 A  
DOCKED: ATOM      5  C   UNL     1     -35.520 -11.671  14.767 -0.16 +0.00    +0.169 C  
DOCKED: ATOM      6  C   UNL     1     -37.634 -10.305  12.101 -0.26 -0.00    -0.001 A  
DOCKED: ATOM      7  C   UNL     1     -37.244 -12.852  13.247 -0.33 +0.00    +0.008 A  
DOCKED: ATOM      8  C   UNL     1     -38.359 -11.406  11.643 -0.32 +0.00    +0.010 A  
DOCKED: ATOM      9  C   UNL     1     -38.165 -12.673  12.214 -0.31 +0.00    +0.068 A  
DOCKED: ATOM     10  N   UNL     1     -39.532 -14.696  11.345 -2.56 -0.00    -0.191 NA 
DOCKED: ATOM     11  C   UNL     1     -38.918 -13.789  11.734 -0.36 +0.00    +0.101 C  
DOCKED: ENDROOT
DOCKED: BRANCH   2  12
DOCKED: ATOM     12  C   UNL     1     -36.588  -8.464  14.611 -0.06 +0.00    +0.038 C  
DOCKED: BRANCH  12  13
DOCKED: ATOM     13  C   UNL     1     -37.655  -9.120  15.485 -0.04 +0.00    +0.038 C  
DOCKED: BRANCH  13  14
DOCKED: ATOM     14  C   UNL     1     -38.950  -8.310  15.472 -0.01 +0.00    +0.251 C  
DOCKED: BRANCH  14  15
DOCKED: ATOM     15  N   UNL     1     -40.007  -9.053  14.794 -0.04 +0.00    +0.141 N  
DOCKED: ATOM     16  C   UNL     1     -40.145  -8.605  13.407 -0.13 +0.00    +0.285 C  
DOCKED: ATOM     17  C   UNL     1     -39.735 -10.491  14.838 -0.02 +0.00    +0.285 C  
DOCKED: ENDBRANCH  14  15
DOCKED: ENDBRANCH  13  14
DOCKED: ENDBRANCH  12  13
DOCKED: ENDBRANCH   2  12
DOCKED: BRANCH   2  18
DOCKED: ATOM     18  C   UNL     1     -34.864  -8.846  12.858 -0.14 +0.00    +0.006 A  
DOCKED: ATOM     19  C   UNL     1     -35.346  -8.108  11.778 -0.16 +0.00    +0.001 A  
DOCKED: ATOM     20  C   UNL     1     -34.451  -7.497  10.898 -0.14 +0.00    +0.029 A  
DOCKED: ATOM     21  C   UNL     1     -33.078  -7.624  11.100 -0.08 +0.00    +0.140 A  
DOCKED: ATOM     22  C   UNL     1     -32.597  -8.362  12.182 -0.09 +0.00    +0.029 A  
DOCKED: ATOM     23  F   UNL     1     -32.219  -7.036  10.257 -0.00 -0.00    -0.204 F  
DOCKED: ATOM     24  C   UNL     1     -33.491  -8.974  13.062 -0.10 +0.00    +0.001 A  
DOCKED: ENDBRANCH   2  18
DOCKED: TORSDOF 5
DOCKED: TER
DOCKED: ENDMDL
________________________________________________________________________________


    FINAL DOCKED STATE:
    ________________________


Run:   262 / 512
Time taken for this run:   0.002s

DOCKED: MODEL        262
DOCKED: USER    Run = 262
DOCKED: USER
DOCKED: USER    Estimated Free Energy of Binding    =  -4.44 kcal/mol  [=(1)+(2)+(3)-(4)]
DOCKED: USER
DOCKED: USER    (1) Final Intermolecular Energy     =  -5.93 kcal/mol
DOCKED: USER        vdW + Hbond + desolv Energy     =  -5.93 kcal/mol
DOCKED: USER        Electrostatic Energy            =  +0.00 kcal/mol
DOCKED: USER        Moving Ligand-Fixed Receptor    =  -5.93 kcal/mol
DOCKED: USER        Moving Ligand-Moving Receptor   =  +0.00 kcal/mol
DOCKED: USER    (2) Final Total Internal Energy     =  -1.33 kcal/mol
DOCKED: USER    (3) Torsional Free Energy           =  +1.49 kcal/mol
DOCKED: USER    (4) Unbound System's Energy         =  -1.33 kcal/mol
DOCKED: USER
DOCKED: USER
DOCKED: REMARK  5 active torsions:
DOCKED: REMARK  status: ('A' for Active; 'I' for Inactive)
DOCKED: REMARK    1  A    between atoms: C_2  and  C_19 
DOCKED: REMARK    2  A    between atoms: C_2  and  C_11 
DOCKED: REMARK    3  A    between atoms: C_19  and  C_20 
DOCKED: REMARK    4  A    between atoms: C_20  and  C_21 
DOCKED: REMARK    5  A    between atoms: C_21  and  N_22 
DOCKED: USER                              x       y       z     vdW  Elec       q    Type
DOCKED: USER                           _______ _______ _______ _____ _____    ______ ____
DOCKED: ROOT
DOCKED: ATOM      1  O   UNL     1     -37.137  -7.988  12.841 -0.07 -0.00    -0.346 OA 
DOCKED: ATOM      2  C   UNL     1     -38.510  -8.082  13.339 -0.15 +0.00    +0.130 C  
DOCKED: ATOM      3  C   UNL     1     -38.933  -9.474  12.967 -0.22 +0.00    +0.004 A  
DOCKED: ATOM      4  C   UNL     1     -37.861 -10.153  12.405 -0.26 +0.00    +0.006 A  
DOCKED: ATOM      5  C   UNL     1     -36.669  -9.277  12.378 -0.17 +0.00    +0.169 C  
DOCKED: ATOM      6  C   UNL     1     -40.165 -10.092  13.123 -0.21 -0.00    -0.001 A  
DOCKED: ATOM      7  C   UNL     1     -37.983 -11.465  11.979 -0.34 +0.00    +0.008 A  
DOCKED: ATOM      8  C   UNL     1     -40.305 -11.413  12.694 -0.22 +0.00    +0.010 A  
DOCKED: ATOM      9  C   UNL     1     -39.219 -12.096  12.125 -0.26 +0.00    +0.068 A  
DOCKED: ATOM     10  N   UNL     1     -39.512 -14.549  11.345 -2.56 -0.00    -0.191 NA 
DOCKED: ATOM     11  C   UNL     1     -39.381 -13.449  11.694 -0.36 +0.00    +0.101 C  
DOCKED: ENDROOT
DOCKED: BRANCH   2  12
DOCKED: ATOM     12  C   UNL     1     -38.494  -7.850  14.845 -0.05 +0.00    +0.038 C  
DOCKED: BRANCH  12  13
DOCKED: ATOM     13  C   UNL     1     -38.443  -6.360  15.178 -0.02 +0.00    +0.038 C  
DOCKED: BRANCH  13  14
DOCKED: ATOM     14  C   UNL     1     -37.043  -5.945  15.627 -0.00 +0.00    +0.251 C  
DOCKED: BRANCH  14  15
DOCKED: ATOM     15  N   UNL     1     -36.350  -5.248  14.549 -0.01 +0.00    +0.141 N  
DOCKED: ATOM     16  C   UNL     1     -37.105  -4.066  14.130 -0.00 +0.00    +0.285 C  
DOCKED: ATOM     17  C   UNL     1     -35.000  -4.867  14.965 -0.00 +0.00    +0.285 C  
DOCKED: ENDBRANCH  14  15
DOCKED: ENDBRANCH  13  14
DOCKED: ENDBRANCH  12  13
DOCKED: ENDBRANCH   2  12
DOCKED: BRANCH   2  18
DOCKED: ATOM     18  C   UNL     1     -39.300  -7.027  12.640 -0.20 +0.00    +0.006 A  
DOCKED: ATOM     19  C   UNL     1     -38.649  -6.062  11.873 -0.16 +0.00    +0.001 A  
DOCKED: ATOM     20  C   UNL     1     -39.390  -5.076  11.220 -0.16 +0.00    +0.029 A  
DOCKED: ATOM     21  C   UNL     1     -40.779  -5.057  11.334 -0.10 +0.00    +0.140 A  
DOCKED: ATOM     22  C   UNL     1     -41.430  -6.023  12.101 -0.17 +0.00    +0.029 A  
DOCKED: ATOM     23  F   UNL     1     -41.490  -4.111  10.705 -0.02 -0.00    -0.204 F  
DOCKED: ATOM     24  C   UNL     1     -40.690  -7.009  12.755 -0.21 +0.00    +0.001 A  
DOCKED: ENDBRANCH   2  18
DOCKED: TORSDOF 5
DOCKED: TER
DOCKED: ENDMDL
________________________________________________________________________________


    FINAL DOCKED STATE:
    ________________________


Run:   263 / 512
Time taken for this run:   0.002s

DOCKED: MODEL        263
DOCKED: USER    Run = 263
DOCKED: USER
DOCKED: USER    Estimated Free Energy of Binding    =  -3.97 kcal/mol  [=(1)+(2)+(3)-(4)]
DOCKED: USER
DOCKED: USER    (1) Final Intermolecular Energy     =  -5.46 kcal/mol
DOCKED: USER        vdW + Hbond + desolv Energy     =  -5.46 kcal/mol
DOCKED: USER        Electrostatic Energy            =  +0.00 kcal/mol
DOCKED: USER        Moving Ligand-Fixed Receptor    =  -5.46 kcal/mol
DOCKED: USER        Moving Ligand-Moving Receptor   =  +0.00 kcal/mol
DOCKED: USER    (2) Final Total Internal Energy     =  -1.33 kcal/mol
DOCKED: USER    (3) Torsional Free Energy           =  +1.49 kcal/mol
DOCKED: USER    (4) Unbound System's Energy         =  -1.33 kcal/mol
DOCKED: USER
DOCKED: USER
DOCKED: REMARK  5 active torsions:
DOCKED: REMARK  status: ('A' for Active; 'I' for Inactive)
DOCKED: REMARK    1  A    between atoms: C_2  and  C_19 
DOCKED: REMARK    2  A    between atoms: C_2  and  C_11 
DOCKED: REMARK    3  A    between atoms: C_19  and  C_20 
DOCKED: REMARK    4  A    between atoms: C_20  and  C_21 
DOCKED: REMARK    5  A    between atoms: C_21  and  N_22 
DOCKED: USER                              x       y       z     vdW  Elec       q    Type
DOCKED: USER                           _______ _______ _______ _____ _____    ______ ____
DOCKED: ROOT
DOCKED: ATOM      1  O   UNL     1     -39.421  -8.012  13.263 -0.09 -0.00    -0.346 OA 
DOCKED: ATOM      2  C   UNL     1     -38.098  -8.522  13.625 -0.13 +0.00    +0.130 C  
DOCKED: ATOM      3  C   UNL     1     -38.142  -9.963  13.209 -0.21 +0.00    +0.004 A  
DOCKED: ATOM      4  C   UNL     1     -39.342 -10.227  12.564 -0.22 +0.00    +0.006 A  
DOCKED: ATOM      5  C   UNL     1     -40.159  -8.995  12.499 -0.11 +0.00    +0.169 C  
DOCKED: ATOM      6  C   UNL     1     -37.190 -10.959  13.376 -0.23 -0.00    -0.001 A  
DOCKED: ATOM      7  C   UNL     1     -39.634 -11.488  12.072 -0.23 +0.00    +0.008 A  
DOCKED: ATOM      8  C   UNL     1     -37.471 -12.237  12.889 -0.31 +0.00    +0.010 A  
DOCKED: ATOM      9  C   UNL     1     -38.687 -12.499  12.240 -0.28 +0.00    +0.068 A  
DOCKED: ATOM     10  N   UNL     1     -39.175 -14.881  11.343 -2.61 -0.00    -0.191 NA 
DOCKED: ATOM     11  C   UNL     1     -38.956 -13.813  11.746 -0.34 +0.00    +0.101 C  
DOCKED: ENDROOT
DOCKED: BRANCH   2  12
DOCKED: ATOM     12  C   UNL     1     -37.047  -7.717  12.870 -0.16 +0.00    +0.038 C  
DOCKED: BRANCH  12  13
DOCKED: ATOM     13  C   UNL     1     -36.938  -6.294  13.413 -0.07 +0.00    +0.038 C  
DOCKED: BRANCH  13  14
DOCKED: ATOM     14  C   UNL     1     -38.143  -5.453  12.997 -0.05 +0.00    +0.251 C  
DOCKED: BRANCH  14  15
DOCKED: ATOM     15  N   UNL     1     -38.463  -5.685  11.594 -0.14 +0.00    +0.141 N  
DOCKED: ATOM     16  C   UNL     1     -39.767  -5.108  11.260 -0.10 +0.00    +0.285 C  
DOCKED: ATOM     17  C   UNL     1     -37.424  -5.125  10.728 -0.09 +0.00    +0.285 C  
DOCKED: ENDBRANCH  14  15
DOCKED: ENDBRANCH  13  14
DOCKED: ENDBRANCH  12  13
DOCKED: ENDBRANCH   2  12
DOCKED: BRANCH   2  18
DOCKED: ATOM     18  C   UNL     1     -37.952  -8.347  15.100 -0.04 +0.00    +0.006 A  
DOCKED: ATOM     19  C   UNL     1     -36.741  -8.648  15.721 -0.03 +0.00    +0.001 A  
DOCKED: ATOM     20  C   UNL     1     -36.606  -8.485  17.100 -0.00 +0.00    +0.029 A  
DOCKED: ATOM     21  C   UNL     1     -37.681  -8.019  17.856 +0.00 +0.00    +0.140 A  
DOCKED: ATOM     22  C   UNL     1     -38.893  -7.717  17.234 -0.00 +0.00    +0.029 A  
DOCKED: ATOM     23  F   UNL     1     -37.551  -7.860  19.179 +0.00 -0.00    -0.204 F  
DOCKED: ATOM     24  C   UNL     1     -39.029  -7.881  15.854 -0.02 +0.00    +0.001 A  
DOCKED: ENDBRANCH   2  18
DOCKED: TORSDOF 5
DOCKED: TER
DOCKED: ENDMDL
________________________________________________________________________________


    FINAL DOCKED STATE:
    ________________________


Run:   264 / 512
Time taken for this run:   0.002s

DOCKED: MODEL        264
DOCKED: USER    Run = 264
DOCKED: USER
DOCKED: USER    Estimated Free Energy of Binding    =  -3.48 kcal/mol  [=(1)+(2)+(3)-(4)]
DOCKED: USER
DOCKED: USER    (1) Final Intermolecular Energy     =  -4.97 kcal/mol
DOCKED: USER        vdW + Hbond + desolv Energy     =  -4.97 kcal/mol
DOCKED: USER        Electrostatic Energy            =  +0.00 kcal/mol
DOCKED: USER        Moving Ligand-Fixed Receptor    =  -4.97 kcal/mol
DOCKED: USER        Moving Ligand-Moving Receptor   =  +0.00 kcal/mol
DOCKED: USER    (2) Final Total Internal Energy     =  -1.30 kcal/mol
DOCKED: USER    (3) Torsional Free Energy           =  +1.49 kcal/mol
DOCKED: USER    (4) Unbound System's Energy         =  -1.30 kcal/mol
DOCKED: USER
DOCKED: USER
DOCKED: REMARK  5 active torsions:
DOCKED: REMARK  status: ('A' for Active; 'I' for Inactive)
DOCKED: REMARK    1  A    between atoms: C_2  and  C_19 
DOCKED: REMARK    2  A    between atoms: C_2  and  C_11 
DOCKED: REMARK    3  A    between atoms: C_19  and  C_20 
DOCKED: REMARK    4  A    between atoms: C_20  and  C_21 
DOCKED: REMARK    5  A    between atoms: C_21  and  N_22 
DOCKED: USER                              x       y       z     vdW  Elec       q    Type
DOCKED: USER                           _______ _______ _______ _____ _____    ______ ____
DOCKED: ROOT
DOCKED: ATOM      1  O   UNL     1     -31.128   0.824   4.621 -0.04 -0.00    -0.346 OA 
DOCKED: ATOM      2  C   UNL     1     -30.750   0.618   3.223 -0.09 +0.00    +0.130 C  
DOCKED: ATOM      3  C   UNL     1     -31.992   0.058   2.593 -0.08 +0.00    +0.004 A  
DOCKED: ATOM      4  C   UNL     1     -33.023   0.048   3.522 -0.19 +0.00    +0.006 A  
DOCKED: ATOM      5  C   UNL     1     -32.545   0.604   4.808 -0.17 +0.00    +0.169 C  
DOCKED: ATOM      6  C   UNL     1     -32.198  -0.395   1.298 -0.16 -0.00    -0.001 A  
DOCKED: ATOM      7  C   UNL     1     -34.285  -0.416   3.194 -0.21 +0.00    +0.008 A  
DOCKED: ATOM      8  C   UNL     1     -33.464  -0.871   0.953 -0.28 +0.00    +0.010 A  
DOCKED: ATOM      9  C   UNL     1     -34.502  -0.881   1.896 -0.34 +0.00    +0.068 A  
DOCKED: ATOM     10  N   UNL     1     -36.842  -1.766   1.220 -2.44 -0.00    -0.191 NA 
DOCKED: ATOM     11  C   UNL     1     -35.792  -1.370   1.523 -0.43 +0.00    +0.101 C  
DOCKED: ENDROOT
DOCKED: BRANCH   2  12
DOCKED: ATOM     12  C   UNL     1     -30.339   1.961   2.631 -0.13 +0.00    +0.038 C  
DOCKED: BRANCH  12  13
DOCKED: ATOM     13  C   UNL     1     -29.548   2.795   3.638 -0.05 +0.00    +0.038 C  
DOCKED: BRANCH  13  14
DOCKED: ATOM     14  C   UNL     1     -30.481   3.631   4.512 -0.02 +0.00    +0.251 C  
DOCKED: BRANCH  14  15
DOCKED: ATOM     15  N   UNL     1     -31.583   4.160   3.716 -0.11 +0.00    +0.141 N  
DOCKED: ATOM     16  C   UNL     1     -32.853   4.008   4.428 -0.11 +0.00    +0.285 C  
DOCKED: ATOM     17  C   UNL     1     -31.351   5.567   3.386 -0.04 +0.00    +0.285 C  
DOCKED: ENDBRANCH  14  15
DOCKED: ENDBRANCH  13  14
DOCKED: ENDBRANCH  12  13
DOCKED: ENDBRANCH   2  12
DOCKED: BRANCH   2  18
DOCKED: ATOM     18  C   UNL     1     -29.610  -0.345   3.216 -0.03 +0.00    +0.006 A  
DOCKED: ATOM     19  C   UNL     1     -28.907  -0.585   2.036 -0.02 +0.00    +0.001 A  
DOCKED: ATOM     20  C   UNL     1     -27.842  -1.486   2.031 -0.00 +0.00    +0.029 A  
DOCKED: ATOM     21  C   UNL     1     -27.480  -2.144   3.205 -0.00 +0.00    +0.140 A  
DOCKED: ATOM     22  C   UNL     1     -28.183  -1.904   4.385 -0.01 +0.00    +0.029 A  
DOCKED: ATOM     23  F   UNL     1     -26.456  -3.008   3.200 +0.00 -0.00    -0.204 F  
DOCKED: ATOM     24  C   UNL     1     -29.249  -1.003   4.391 -0.03 +0.00    +0.001 A  
DOCKED: ENDBRANCH   2  18
DOCKED: TORSDOF 5
DOCKED: TER
DOCKED: ENDMDL
________________________________________________________________________________


    FINAL DOCKED STATE:
    ________________________


Run:   265 / 512
Time taken for this run:   0.002s

DOCKED: MODEL        265
DOCKED: USER    Run = 265
DOCKED: USER
DOCKED: USER    Estimated Free Energy of Binding    =  -3.38 kcal/mol  [=(1)+(2)+(3)-(4)]
DOCKED: USER
DOCKED: USER    (1) Final Intermolecular Energy     =  -4.87 kcal/mol
DOCKED: USER        vdW + Hbond + desolv Energy     =  -4.87 kcal/mol
DOCKED: USER        Electrostatic Energy            =  +0.00 kcal/mol
DOCKED: USER        Moving Ligand-Fixed Receptor    =  -4.87 kcal/mol
DOCKED: USER        Moving Ligand-Moving Receptor   =  +0.00 kcal/mol
DOCKED: USER    (2) Final Total Internal Energy     =  -1.23 kcal/mol
DOCKED: USER    (3) Torsional Free Energy           =  +1.49 kcal/mol
DOCKED: USER    (4) Unbound System's Energy         =  -1.23 kcal/mol
DOCKED: USER
DOCKED: USER
DOCKED: REMARK  5 active torsions:
DOCKED: REMARK  status: ('A' for Active; 'I' for Inactive)
DOCKED: REMARK    1  A    between atoms: C_2  and  C_19 
DOCKED: REMARK    2  A    between atoms: C_2  and  C_11 
DOCKED: REMARK    3  A    between atoms: C_19  and  C_20 
DOCKED: REMARK    4  A    between atoms: C_20  and  C_21 
DOCKED: REMARK    5  A    between atoms: C_21  and  N_22 
DOCKED: USER                              x       y       z     vdW  Elec       q    Type
DOCKED: USER                           _______ _______ _______ _____ _____    ______ ____
DOCKED: ROOT
DOCKED: ATOM      1  O   UNL     1     -30.862   0.475   4.265 -0.03 -0.00    -0.346 OA 
DOCKED: ATOM      2  C   UNL     1     -30.539   0.060   2.899 -0.07 +0.00    +0.130 C  
DOCKED: ATOM      3  C   UNL     1     -31.854  -0.410   2.346 -0.14 +0.00    +0.004 A  
DOCKED: ATOM      4  C   UNL     1     -32.859  -0.182   3.275 -0.15 +0.00    +0.006 A  
DOCKED: ATOM      5  C   UNL     1     -32.292   0.457   4.483 -0.20 +0.00    +0.169 C  
DOCKED: ATOM      6  C   UNL     1     -32.138  -0.984   1.116 -0.17 -0.00    -0.001 A  
DOCKED: ATOM      7  C   UNL     1     -34.175  -0.521   3.010 -0.27 +0.00    +0.008 A  
DOCKED: ATOM      8  C   UNL     1     -33.460  -1.336   0.835 -0.28 +0.00    +0.010 A  
DOCKED: ATOM      9  C   UNL     1     -34.473  -1.105   1.777 -0.35 +0.00    +0.068 A  
DOCKED: ATOM     10  N   UNL     1     -36.916  -1.765   1.223 -2.52 -0.00    -0.191 NA 
DOCKED: ATOM     11  C   UNL     1     -35.820  -1.469   1.472 -0.42 +0.00    +0.101 C  
DOCKED: ENDROOT
DOCKED: BRANCH   2  12
DOCKED: ATOM     12  C   UNL     1     -29.977   1.263   2.149 -0.10 +0.00    +0.038 C  
DOCKED: BRANCH  12  13
DOCKED: ATOM     13  C   UNL     1     -29.605   0.900   0.713 -0.08 +0.00    +0.038 C  
DOCKED: BRANCH  13  14
DOCKED: ATOM     14  C   UNL     1     -28.089   0.853   0.534 -0.01 +0.00    +0.251 C  
DOCKED: BRANCH  14  15
DOCKED: ATOM     15  N   UNL     1     -27.746   0.172  -0.709 -0.02 +0.00    +0.141 N  
DOCKED: ATOM     16  C   UNL     1     -26.551  -0.655  -0.532 +0.00 +0.00    +0.285 C  
DOCKED: ATOM     17  C   UNL     1     -28.866  -0.647  -1.174 -0.01 +0.00    +0.285 C  
DOCKED: ENDBRANCH  14  15
DOCKED: ENDBRANCH  13  14
DOCKED: ENDBRANCH  12  13
DOCKED: ENDBRANCH   2  12
DOCKED: BRANCH   2  18
DOCKED: ATOM     18  C   UNL     1     -29.527  -1.031   3.002 -0.02 +0.00    +0.006 A  
DOCKED: ATOM     19  C   UNL     1     -28.215  -0.732   3.365 -0.01 +0.00    +0.001 A  
DOCKED: ATOM     20  C   UNL     1     -27.269  -1.754   3.460 -0.00 +0.00    +0.029 A  
DOCKED: ATOM     21  C   UNL     1     -27.637  -3.072   3.193 -0.00 +0.00    +0.140 A  
DOCKED: ATOM     22  C   UNL     1     -28.950  -3.370   2.830 -0.00 +0.00    +0.029 A  
DOCKED: ATOM     23  F   UNL     1     -26.729  -4.053   3.287 +0.00 -0.00    -0.204 F  
DOCKED: ATOM     24  C   UNL     1     -29.896  -2.349   2.734 -0.02 +0.00    +0.001 A  
DOCKED: ENDBRANCH   2  18
DOCKED: TORSDOF 5
DOCKED: TER
DOCKED: ENDMDL
________________________________________________________________________________


    FINAL DOCKED STATE:
    ________________________


Run:   266 / 512
Time taken for this run:   0.002s

DOCKED: MODEL        266
DOCKED: USER    Run = 266
DOCKED: USER
DOCKED: USER    Estimated Free Energy of Binding    =  -3.81 kcal/mol  [=(1)+(2)+(3)-(4)]
DOCKED: USER
DOCKED: USER    (1) Final Intermolecular Energy     =  -5.30 kcal/mol
DOCKED: USER        vdW + Hbond + desolv Energy     =  -5.30 kcal/mol
DOCKED: USER        Electrostatic Energy            =  +0.00 kcal/mol
DOCKED: USER        Moving Ligand-Fixed Receptor    =  -5.30 kcal/mol
DOCKED: USER        Moving Ligand-Moving Receptor   =  +0.00 kcal/mol
DOCKED: USER    (2) Final Total Internal Energy     =  -1.38 kcal/mol
DOCKED: USER    (3) Torsional Free Energy           =  +1.49 kcal/mol
DOCKED: USER    (4) Unbound System's Energy         =  -1.38 kcal/mol
DOCKED: USER
DOCKED: USER
DOCKED: REMARK  5 active torsions:
DOCKED: REMARK  status: ('A' for Active; 'I' for Inactive)
DOCKED: REMARK    1  A    between atoms: C_2  and  C_19 
DOCKED: REMARK    2  A    between atoms: C_2  and  C_11 
DOCKED: REMARK    3  A    between atoms: C_19  and  C_20 
DOCKED: REMARK    4  A    between atoms: C_20  and  C_21 
DOCKED: REMARK    5  A    between atoms: C_21  and  N_22 
DOCKED: USER                              x       y       z     vdW  Elec       q    Type
DOCKED: USER                           _______ _______ _______ _____ _____    ______ ____
DOCKED: ROOT
DOCKED: ATOM      1  O   UNL     1     -28.301 -11.499   5.458 +0.01 -0.00    -0.346 OA 
DOCKED: ATOM      2  C   UNL     1     -29.509 -10.734   5.769 -0.05 +0.00    +0.130 C  
DOCKED: ATOM      3  C   UNL     1     -30.239 -11.600   6.754 -0.10 +0.00    +0.004 A  
DOCKED: ATOM      4  C   UNL     1     -29.466 -12.710   7.064 -0.09 +0.00    +0.006 A  
DOCKED: ATOM      5  C   UNL     1     -28.184 -12.650   6.326 -0.02 +0.00    +0.169 C  
DOCKED: ATOM      6  C   UNL     1     -31.484 -11.414   7.339 -0.21 -0.00    -0.001 A  
DOCKED: ATOM      7  C   UNL     1     -29.908 -13.669   7.959 -0.18 +0.00    +0.008 A  
DOCKED: ATOM      8  C   UNL     1     -31.945 -12.375   8.240 -0.31 +0.00    +0.010 A  
DOCKED: ATOM      9  C   UNL     1     -31.161 -13.497   8.549 -0.29 +0.00    +0.068 A  
DOCKED: ATOM     10  N   UNL     1     -32.045 -15.259  10.230 -2.67 -0.00    -0.191 NA 
DOCKED: ATOM     11  C   UNL     1     -31.649 -14.469   9.475 -0.40 +0.00    +0.101 C  
DOCKED: ENDROOT
DOCKED: BRANCH   2  12
DOCKED: ATOM     12  C   UNL     1     -29.091  -9.390   6.355 -0.02 +0.00    +0.038 C  
DOCKED: BRANCH  12  13
DOCKED: ATOM     13  C   UNL     1     -27.890  -8.808   5.613 -0.00 +0.00    +0.038 C  
DOCKED: BRANCH  13  14
DOCKED: ATOM     14  C   UNL     1     -26.579  -9.337   6.191 +0.00 +0.00    +0.251 C  
DOCKED: BRANCH  14  15
DOCKED: ATOM     15  N   UNL     1     -25.850 -10.097   5.183 -0.00 +0.00    +0.141 N  
DOCKED: ATOM     16  C   UNL     1     -26.281  -9.716   3.837 +0.00 +0.00    +0.285 C  
DOCKED: ATOM     17  C   UNL     1     -24.407  -9.898   5.330 +0.00 +0.00    +0.285 C  
DOCKED: ENDBRANCH  14  15
DOCKED: ENDBRANCH  13  14
DOCKED: ENDBRANCH  12  13
DOCKED: ENDBRANCH   2  12
DOCKED: BRANCH   2  18
DOCKED: ATOM     18  C   UNL     1     -30.254 -10.555   4.488 -0.11 +0.00    +0.006 A  
DOCKED: ATOM     19  C   UNL     1     -29.950 -11.354   3.387 -0.12 +0.00    +0.001 A  
DOCKED: ATOM     20  C   UNL     1     -30.647 -11.185   2.190 -0.14 +0.00    +0.029 A  
DOCKED: ATOM     21  C   UNL     1     -31.647 -10.218   2.096 -0.17 +0.00    +0.140 A  
DOCKED: ATOM     22  C   UNL     1     -31.951  -9.419   3.198 -0.19 +0.00    +0.029 A  
DOCKED: ATOM     23  F   UNL     1     -32.317 -10.057   0.948 -0.11 -0.00    -0.204 F  
DOCKED: ATOM     24  C   UNL     1     -31.254  -9.587   4.396 -0.15 +0.00    +0.001 A  
DOCKED: ENDBRANCH   2  18
DOCKED: TORSDOF 5
DOCKED: TER
DOCKED: ENDMDL
________________________________________________________________________________


    FINAL DOCKED STATE:
    ________________________


Run:   267 / 512
Time taken for this run:   0.002s

DOCKED: MODEL        267
DOCKED: USER    Run = 267
DOCKED: USER
DOCKED: USER    Estimated Free Energy of Binding    =  -4.47 kcal/mol  [=(1)+(2)+(3)-(4)]
DOCKED: USER
DOCKED: USER    (1) Final Intermolecular Energy     =  -5.96 kcal/mol
DOCKED: USER        vdW + Hbond + desolv Energy     =  -5.96 kcal/mol
DOCKED: USER        Electrostatic Energy            =  +0.00 kcal/mol
DOCKED: USER        Moving Ligand-Fixed Receptor    =  -5.96 kcal/mol
DOCKED: USER        Moving Ligand-Moving Receptor   =  +0.00 kcal/mol
DOCKED: USER    (2) Final Total Internal Energy     =  -1.04 kcal/mol
DOCKED: USER    (3) Torsional Free Energy           =  +1.49 kcal/mol
DOCKED: USER    (4) Unbound System's Energy         =  -1.04 kcal/mol
DOCKED: USER
DOCKED: USER
DOCKED: REMARK  5 active torsions:
DOCKED: REMARK  status: ('A' for Active; 'I' for Inactive)
DOCKED: REMARK    1  A    between atoms: C_2  and  C_19 
DOCKED: REMARK    2  A    between atoms: C_2  and  C_11 
DOCKED: REMARK    3  A    between atoms: C_19  and  C_20 
DOCKED: REMARK    4  A    between atoms: C_20  and  C_21 
DOCKED: REMARK    5  A    between atoms: C_21  and  N_22 
DOCKED: USER                              x       y       z     vdW  Elec       q    Type
DOCKED: USER                           _______ _______ _______ _____ _____    ______ ____
DOCKED: ROOT
DOCKED: ATOM      1  O   UNL     1     -39.150 -10.533  14.738 -0.01 -0.00    -0.346 OA 
DOCKED: ATOM      2  C   UNL     1     -37.994 -11.427  14.656 -0.10 +0.00    +0.130 C  
DOCKED: ATOM      3  C   UNL     1     -38.134 -12.072  13.307 -0.24 +0.00    +0.004 A  
DOCKED: ATOM      4  C   UNL     1     -39.211 -11.515  12.633 -0.25 +0.00    +0.006 A  
DOCKED: ATOM      5  C   UNL     1     -39.842 -10.469  13.469 -0.14 +0.00    +0.169 C  
DOCKED: ATOM      6  C   UNL     1     -37.363 -13.064  12.720 -0.37 -0.00    -0.001 A  
DOCKED: ATOM      7  C   UNL     1     -39.556 -11.930  11.358 -0.18 +0.00    +0.008 A  
DOCKED: ATOM      8  C   UNL     1     -37.700 -13.497  11.437 -0.39 +0.00    +0.010 A  
DOCKED: ATOM      9  C   UNL     1     -38.791 -12.932  10.759 -0.40 +0.00    +0.068 A  
DOCKED: ATOM     10  N   UNL     1     -39.386 -13.754   8.375 -1.94 -0.00    -0.191 NA 
DOCKED: ATOM     11  C   UNL     1     -39.120 -13.386   9.444 -0.52 +0.00    +0.101 C  
DOCKED: ENDROOT
DOCKED: BRANCH   2  12
DOCKED: ATOM     12  C   UNL     1     -36.727 -10.591  14.786 -0.12 +0.00    +0.038 C  
DOCKED: BRANCH  12  13
DOCKED: ATOM     13  C   UNL     1     -36.166 -10.214  13.416 -0.20 +0.00    +0.038 C  
DOCKED: BRANCH  13  14
DOCKED: ATOM     14  C   UNL     1     -34.757  -9.638  13.539 -0.06 +0.00    +0.251 C  
DOCKED: BRANCH  14  15
DOCKED: ATOM     15  N   UNL     1     -34.613  -8.463  12.688 -0.11 +0.00    +0.141 N  
DOCKED: ATOM     16  C   UNL     1     -35.924  -7.910  12.345 -0.11 +0.00    +0.285 C  
DOCKED: ATOM     17  C   UNL     1     -33.790  -7.446  13.346 -0.04 +0.00    +0.285 C  
DOCKED: ENDBRANCH  14  15
DOCKED: ENDBRANCH  13  14
DOCKED: ENDBRANCH  12  13
DOCKED: ENDBRANCH   2  12
DOCKED: BRANCH   2  18
DOCKED: ATOM     18  C   UNL     1     -38.115 -12.400  15.781 -0.12 +0.00    +0.006 A  
DOCKED: ATOM     19  C   UNL     1     -37.078 -12.530  16.704 -0.13 +0.00    +0.001 A  
DOCKED: ATOM     20  C   UNL     1     -37.192 -13.440  17.756 -0.16 +0.00    +0.029 A  
DOCKED: ATOM     21  C   UNL     1     -38.341 -14.218  17.883 -0.12 +0.00    +0.140 A  
DOCKED: ATOM     22  C   UNL     1     -39.378 -14.088  16.959 -0.04 +0.00    +0.029 A  
DOCKED: ATOM     23  F   UNL     1     -38.451 -15.091  18.893 -0.05 -0.00    -0.204 F  
DOCKED: ATOM     24  C   UNL     1     -39.265 -13.178  15.907 -0.16 +0.00    +0.001 A  
DOCKED: ENDBRANCH   2  18
DOCKED: TORSDOF 5
DOCKED: TER
DOCKED: ENDMDL
________________________________________________________________________________


    FINAL DOCKED STATE:
    ________________________


Run:   268 / 512
Time taken for this run:   0.002s

DOCKED: MODEL        268
DOCKED: USER    Run = 268
DOCKED: USER
DOCKED: USER    Estimated Free Energy of Binding    =  -4.30 kcal/mol  [=(1)+(2)+(3)-(4)]
DOCKED: USER
DOCKED: USER    (1) Final Intermolecular Energy     =  -5.79 kcal/mol
DOCKED: USER        vdW + Hbond + desolv Energy     =  -5.79 kcal/mol
DOCKED: USER        Electrostatic Energy            =  +0.00 kcal/mol
DOCKED: USER        Moving Ligand-Fixed Receptor    =  -5.79 kcal/mol
DOCKED: USER        Moving Ligand-Moving Receptor   =  +0.00 kcal/mol
DOCKED: USER    (2) Final Total Internal Energy     =  -1.38 kcal/mol
DOCKED: USER    (3) Torsional Free Energy           =  +1.49 kcal/mol
DOCKED: USER    (4) Unbound System's Energy         =  -1.38 kcal/mol
DOCKED: USER
DOCKED: USER
DOCKED: REMARK  5 active torsions:
DOCKED: REMARK  status: ('A' for Active; 'I' for Inactive)
DOCKED: REMARK    1  A    between atoms: C_2  and  C_19 
DOCKED: REMARK    2  A    between atoms: C_2  and  C_11 
DOCKED: REMARK    3  A    between atoms: C_19  and  C_20 
DOCKED: REMARK    4  A    between atoms: C_20  and  C_21 
DOCKED: REMARK    5  A    between atoms: C_21  and  N_22 
DOCKED: USER                              x       y       z     vdW  Elec       q    Type
DOCKED: USER                           _______ _______ _______ _____ _____    ______ ____
DOCKED: ROOT
DOCKED: ATOM      1  O   UNL     1     -34.907 -10.572  14.510 -0.08 -0.00    -0.346 OA 
DOCKED: ATOM      2  C   UNL     1     -36.073  -9.774  14.131 -0.12 +0.00    +0.130 C  
DOCKED: ATOM      3  C   UNL     1     -36.952 -10.746  13.398 -0.22 +0.00    +0.004 A  
DOCKED: ATOM      4  C   UNL     1     -36.390 -12.014  13.449 -0.24 +0.00    +0.006 A  
DOCKED: ATOM      5  C   UNL     1     -35.127 -11.972  14.220 -0.14 +0.00    +0.169 C  
DOCKED: ATOM      6  C   UNL     1     -38.157 -10.528  12.747 -0.27 -0.00    -0.001 A  
DOCKED: ATOM      7  C   UNL     1     -37.007 -13.100  12.853 -0.36 +0.00    +0.008 A  
DOCKED: ATOM      8  C   UNL     1     -38.790 -11.612  12.136 -0.31 +0.00    +0.010 A  
DOCKED: ATOM      9  C   UNL     1     -38.217 -12.892  12.190 -0.32 +0.00    +0.068 A  
DOCKED: ATOM     10  N   UNL     1     -39.420 -14.884  11.051 -2.41 -0.00    -0.191 NA 
DOCKED: ATOM     11  C   UNL     1     -38.880 -13.991  11.561 -0.33 +0.00    +0.101 C  
DOCKED: ENDROOT
DOCKED: BRANCH   2  12
DOCKED: ATOM     12  C   UNL     1     -36.720  -9.230  15.399 -0.05 +0.00    +0.038 C  
DOCKED: BRANCH  12  13
DOCKED: ATOM     13  C   UNL     1     -36.651 -10.245  16.539 -0.04 +0.00    +0.038 C  
DOCKED: BRANCH  13  14
DOCKED: ATOM     14  C   UNL     1     -37.840 -11.203  16.493 -0.02 +0.00    +0.251 C  
DOCKED: BRANCH  14  15
DOCKED: ATOM     15  N   UNL     1     -37.520 -12.442  17.193 -0.07 +0.00    +0.141 N  
DOCKED: ATOM     16  C   UNL     1     -37.990 -13.601  16.433 -0.13 +0.00    +0.285 C  
DOCKED: ATOM     17  C   UNL     1     -36.079 -12.542  17.431 -0.07 +0.00    +0.285 C  
DOCKED: ENDBRANCH  14  15
DOCKED: ENDBRANCH  13  14
DOCKED: ENDBRANCH  12  13
DOCKED: ENDBRANCH   2  12
DOCKED: BRANCH   2  18
DOCKED: ATOM     18  C   UNL     1     -35.579  -8.666  13.261 -0.14 +0.00    +0.006 A  
DOCKED: ATOM     19  C   UNL     1     -36.321  -7.492  13.139 -0.11 +0.00    +0.001 A  
DOCKED: ATOM     20  C   UNL     1     -35.858  -6.458  12.325 -0.09 +0.00    +0.029 A  
DOCKED: ATOM     21  C   UNL     1     -34.655  -6.598  11.636 -0.07 +0.00    +0.140 A  
DOCKED: ATOM     22  C   UNL     1     -33.913  -7.772  11.759 -0.12 +0.00    +0.029 A  
DOCKED: ATOM     23  F   UNL     1     -34.209  -5.604  10.856 -0.01 -0.00    -0.204 F  
DOCKED: ATOM     24  C   UNL     1     -34.375  -8.808  12.572 -0.08 +0.00    +0.001 A  
DOCKED: ENDBRANCH   2  18
DOCKED: TORSDOF 5
DOCKED: TER
DOCKED: ENDMDL
________________________________________________________________________________


    FINAL DOCKED STATE:
    ________________________


Run:   269 / 512
Time taken for this run:   0.002s

DOCKED: MODEL        269
DOCKED: USER    Run = 269
DOCKED: USER
DOCKED: USER    Estimated Free Energy of Binding    =  -4.13 kcal/mol  [=(1)+(2)+(3)-(4)]
DOCKED: USER
DOCKED: USER    (1) Final Intermolecular Energy     =  -5.63 kcal/mol
DOCKED: USER        vdW + Hbond + desolv Energy     =  -5.63 kcal/mol
DOCKED: USER        Electrostatic Energy            =  +0.00 kcal/mol
DOCKED: USER        Moving Ligand-Fixed Receptor    =  -5.63 kcal/mol
DOCKED: USER        Moving Ligand-Moving Receptor   =  +0.00 kcal/mol
DOCKED: USER    (2) Final Total Internal Energy     =  -1.26 kcal/mol
DOCKED: USER    (3) Torsional Free Energy           =  +1.49 kcal/mol
DOCKED: USER    (4) Unbound System's Energy         =  -1.26 kcal/mol
DOCKED: USER
DOCKED: USER
DOCKED: REMARK  5 active torsions:
DOCKED: REMARK  status: ('A' for Active; 'I' for Inactive)
DOCKED: REMARK    1  A    between atoms: C_2  and  C_19 
DOCKED: REMARK    2  A    between atoms: C_2  and  C_11 
DOCKED: REMARK    3  A    between atoms: C_19  and  C_20 
DOCKED: REMARK    4  A    between atoms: C_20  and  C_21 
DOCKED: REMARK    5  A    between atoms: C_21  and  N_22 
DOCKED: USER                              x       y       z     vdW  Elec       q    Type
DOCKED: USER                           _______ _______ _______ _____ _____    ______ ____
DOCKED: ROOT
DOCKED: ATOM      1  O   UNL     1     -32.172  -7.677   7.984 -0.00 -0.00    -0.346 OA 
DOCKED: ATOM      2  C   UNL     1     -32.896  -8.768   7.330 -0.18 +0.00    +0.130 C  
DOCKED: ATOM      3  C   UNL     1     -32.415  -9.998   8.043 -0.22 +0.00    +0.004 A  
DOCKED: ATOM      4  C   UNL     1     -31.575  -9.634   9.087 -0.13 +0.00    +0.006 A  
DOCKED: ATOM      5  C   UNL     1     -31.454  -8.160   9.143 -0.05 +0.00    +0.169 C  
DOCKED: ATOM      6  C   UNL     1     -32.706 -11.331   7.796 -0.32 -0.00    -0.001 A  
DOCKED: ATOM      7  C   UNL     1     -30.997 -10.584   9.911 -0.15 +0.00    +0.008 A  
DOCKED: ATOM      8  C   UNL     1     -32.128 -12.302   8.617 -0.29 +0.00    +0.010 A  
DOCKED: ATOM      9  C   UNL     1     -31.278 -11.930   9.669 -0.19 +0.00    +0.068 A  
DOCKED: ATOM     10  N   UNL     1     -30.225 -13.756  11.175 -1.90 -0.00    -0.191 NA 
DOCKED: ATOM     11  C   UNL     1     -30.697 -12.937  10.499 -0.23 +0.00    +0.101 C  
DOCKED: ENDROOT
DOCKED: BRANCH   2  12
DOCKED: ATOM     12  C   UNL     1     -34.391  -8.527   7.504 -0.30 +0.00    +0.038 C  
DOCKED: BRANCH  12  13
DOCKED: ATOM     13  C   UNL     1     -34.661  -7.357   8.447 -0.15 +0.00    +0.038 C  
DOCKED: BRANCH  13  14
DOCKED: ATOM     14  C   UNL     1     -35.382  -6.222   7.722 -0.12 +0.00    +0.251 C  
DOCKED: BRANCH  14  15
DOCKED: ATOM     15  N   UNL     1     -34.434  -5.434   6.944 -0.11 +0.00    +0.141 N  
DOCKED: ATOM     16  C   UNL     1     -34.882  -5.311   5.556 -0.13 +0.00    +0.285 C  
DOCKED: ATOM     17  C   UNL     1     -34.254  -4.109   7.539 -0.13 +0.00    +0.285 C  
DOCKED: ENDBRANCH  14  15
DOCKED: ENDBRANCH  13  14
DOCKED: ENDBRANCH  12  13
DOCKED: ENDBRANCH   2  12
DOCKED: BRANCH   2  18
DOCKED: ATOM     18  C   UNL     1     -32.511  -8.744   5.888 -0.18 +0.00    +0.006 A  
DOCKED: ATOM     19  C   UNL     1     -33.198  -7.920   4.997 -0.18 +0.00    +0.001 A  
DOCKED: ATOM     20  C   UNL     1     -32.837  -7.898   3.650 -0.22 +0.00    +0.029 A  
DOCKED: ATOM     21  C   UNL     1     -31.791  -8.700   3.195 -0.16 +0.00    +0.140 A  
DOCKED: ATOM     22  C   UNL     1     -31.104  -9.524   4.087 -0.13 +0.00    +0.029 A  
DOCKED: ATOM     23  F   UNL     1     -31.443  -8.678   1.902 -0.03 -0.00    -0.204 F  
DOCKED: ATOM     24  C   UNL     1     -31.465  -9.546   5.435 -0.14 +0.00    +0.001 A  
DOCKED: ENDBRANCH   2  18
DOCKED: TORSDOF 5
DOCKED: TER
DOCKED: ENDMDL
________________________________________________________________________________


    FINAL DOCKED STATE:
    ________________________


Run:   270 / 512
Time taken for this run:   0.002s

DOCKED: MODEL        270
DOCKED: USER    Run = 270
DOCKED: USER
DOCKED: USER    Estimated Free Energy of Binding    =  -4.67 kcal/mol  [=(1)+(2)+(3)-(4)]
DOCKED: USER
DOCKED: USER    (1) Final Intermolecular Energy     =  -6.16 kcal/mol
DOCKED: USER        vdW + Hbond + desolv Energy     =  -6.16 kcal/mol
DOCKED: USER        Electrostatic Energy            =  +0.00 kcal/mol
DOCKED: USER        Moving Ligand-Fixed Receptor    =  -6.16 kcal/mol
DOCKED: USER        Moving Ligand-Moving Receptor   =  +0.00 kcal/mol
DOCKED: USER    (2) Final Total Internal Energy     =  -0.76 kcal/mol
DOCKED: USER    (3) Torsional Free Energy           =  +1.49 kcal/mol
DOCKED: USER    (4) Unbound System's Energy         =  -0.76 kcal/mol
DOCKED: USER
DOCKED: USER
DOCKED: REMARK  5 active torsions:
DOCKED: REMARK  status: ('A' for Active; 'I' for Inactive)
DOCKED: REMARK    1  A    between atoms: C_2  and  C_19 
DOCKED: REMARK    2  A    between atoms: C_2  and  C_11 
DOCKED: REMARK    3  A    between atoms: C_19  and  C_20 
DOCKED: REMARK    4  A    between atoms: C_20  and  C_21 
DOCKED: REMARK    5  A    between atoms: C_21  and  N_22 
DOCKED: USER                              x       y       z     vdW  Elec       q    Type
DOCKED: USER                           _______ _______ _______ _____ _____    ______ ____
DOCKED: ROOT
DOCKED: ATOM      1  O   UNL     1     -34.993 -10.464  14.702 -0.06 -0.00    -0.346 OA 
DOCKED: ATOM      2  C   UNL     1     -35.864  -9.641  13.861 -0.13 +0.00    +0.130 C  
DOCKED: ATOM      3  C   UNL     1     -36.747 -10.641  13.172 -0.23 +0.00    +0.004 A  
DOCKED: ATOM      4  C   UNL     1     -36.480 -11.913  13.659 -0.26 +0.00    +0.006 A  
DOCKED: ATOM      5  C   UNL     1     -35.428 -11.844  14.697 -0.17 +0.00    +0.169 C  
DOCKED: ATOM      6  C   UNL     1     -37.716 -10.440  12.201 -0.28 -0.00    -0.001 A  
DOCKED: ATOM      7  C   UNL     1     -37.166 -13.022  13.191 -0.34 +0.00    +0.008 A  
DOCKED: ATOM      8  C   UNL     1     -38.413 -11.548  11.716 -0.34 +0.00    +0.010 A  
DOCKED: ATOM      9  C   UNL     1     -38.139 -12.832  12.210 -0.32 +0.00    +0.068 A  
DOCKED: ATOM     10  N   UNL     1     -39.455 -14.867  11.293 -2.53 -0.00    -0.191 NA 
DOCKED: ATOM     11  C   UNL     1     -38.864 -13.955  11.703 -0.29 +0.00    +0.101 C  
DOCKED: ENDROOT
DOCKED: BRANCH   2  12
DOCKED: ATOM     12  C   UNL     1     -36.639  -8.685  14.759 -0.06 +0.00    +0.038 C  
DOCKED: BRANCH  12  13
DOCKED: ATOM     13  C   UNL     1     -37.061  -7.428  14.001 -0.07 +0.00    +0.038 C  
DOCKED: BRANCH  13  14
DOCKED: ATOM     14  C   UNL     1     -38.334  -7.676  13.192 -0.12 +0.00    +0.251 C  
DOCKED: BRANCH  14  15
DOCKED: ATOM     15  N   UNL     1     -39.316  -6.632  13.459 -0.08 +0.00    +0.141 N  
DOCKED: ATOM     16  C   UNL     1     -39.003  -5.422  12.698 -0.08 +0.00    +0.285 C  
DOCKED: ATOM     17  C   UNL     1     -40.665  -7.100  13.138 -0.13 +0.00    +0.285 C  
DOCKED: ENDBRANCH  14  15
DOCKED: ENDBRANCH  13  14
DOCKED: ENDBRANCH  12  13
DOCKED: ENDBRANCH   2  12
DOCKED: BRANCH   2  18
DOCKED: ATOM     18  C   UNL     1     -34.981  -8.897  12.916 -0.14 +0.00    +0.006 A  
DOCKED: ATOM     19  C   UNL     1     -35.486  -8.450  11.696 -0.11 +0.00    +0.001 A  
DOCKED: ATOM     20  C   UNL     1     -34.659  -7.754  10.813 -0.14 +0.00    +0.029 A  
DOCKED: ATOM     21  C   UNL     1     -33.330  -7.506  11.152 -0.08 +0.00    +0.140 A  
DOCKED: ATOM     22  C   UNL     1     -32.825  -7.953  12.372 -0.08 +0.00    +0.029 A  
DOCKED: ATOM     23  F   UNL     1     -32.537  -6.836  10.305 -0.00 -0.00    -0.204 F  
DOCKED: ATOM     24  C   UNL     1     -33.651  -8.650  13.256 -0.10 +0.00    +0.001 A  
DOCKED: ENDBRANCH   2  18
DOCKED: TORSDOF 5
DOCKED: TER
DOCKED: ENDMDL
________________________________________________________________________________


    FINAL DOCKED STATE:
    ________________________


Run:   271 / 512
Time taken for this run:   0.002s

DOCKED: MODEL        271
DOCKED: USER    Run = 271
DOCKED: USER
DOCKED: USER    Estimated Free Energy of Binding    =  -5.20 kcal/mol  [=(1)+(2)+(3)-(4)]
DOCKED: USER
DOCKED: USER    (1) Final Intermolecular Energy     =  -6.69 kcal/mol
DOCKED: USER        vdW + Hbond + desolv Energy     =  -6.69 kcal/mol
DOCKED: USER        Electrostatic Energy            =  +0.00 kcal/mol
DOCKED: USER        Moving Ligand-Fixed Receptor    =  -6.69 kcal/mol
DOCKED: USER        Moving Ligand-Moving Receptor   =  +0.00 kcal/mol
DOCKED: USER    (2) Final Total Internal Energy     =  -1.09 kcal/mol
DOCKED: USER    (3) Torsional Free Energy           =  +1.49 kcal/mol
DOCKED: USER    (4) Unbound System's Energy         =  -1.09 kcal/mol
DOCKED: USER
DOCKED: USER
DOCKED: REMARK  5 active torsions:
DOCKED: REMARK  status: ('A' for Active; 'I' for Inactive)
DOCKED: REMARK    1  A    between atoms: C_2  and  C_19 
DOCKED: REMARK    2  A    between atoms: C_2  and  C_11 
DOCKED: REMARK    3  A    between atoms: C_19  and  C_20 
DOCKED: REMARK    4  A    between atoms: C_20  and  C_21 
DOCKED: REMARK    5  A    between atoms: C_21  and  N_22 
DOCKED: USER                              x       y       z     vdW  Elec       q    Type
DOCKED: USER                           _______ _______ _______ _____ _____    ______ ____
DOCKED: ROOT
DOCKED: ATOM      1  O   UNL     1     -39.401 -13.230  14.726 -0.07 -0.00    -0.346 OA 
DOCKED: ATOM      2  C   UNL     1     -38.744 -12.012  14.251 -0.12 +0.00    +0.130 C  
DOCKED: ATOM      3  C   UNL     1     -38.795 -12.135  12.756 -0.26 +0.00    +0.004 A  
DOCKED: ATOM      4  C   UNL     1     -39.516 -13.268  12.405 -0.30 +0.00    +0.006 A  
DOCKED: ATOM      5  C   UNL     1     -39.995 -13.956  13.625 -0.11 +0.00    +0.169 C  
DOCKED: ATOM      6  C   UNL     1     -38.257 -11.305  11.783 -0.33 -0.00    -0.001 A  
DOCKED: ATOM      7  C   UNL     1     -39.718 -13.612  11.080 -0.41 +0.00    +0.008 A  
DOCKED: ATOM      8  C   UNL     1     -38.449 -11.640  10.442 +0.02 +0.00    +0.010 A  
DOCKED: ATOM      9  C   UNL     1     -39.177 -12.788  10.092 -0.39 +0.00    +0.068 A  
DOCKED: ATOM     10  N   UNL     1     -39.519 -13.378   7.593 -2.94 -0.00    -0.191 NA 
DOCKED: ATOM     11  C   UNL     1     -39.365 -13.114   8.714 -0.34 +0.00    +0.101 C  
DOCKED: ENDROOT
DOCKED: BRANCH   2  12
DOCKED: ATOM     12  C   UNL     1     -39.520 -10.809  14.774 -0.09 +0.00    +0.038 C  
DOCKED: BRANCH  12  13
DOCKED: ATOM     13  C   UNL     1     -40.279 -10.105  13.651 -0.19 +0.00    +0.038 C  
DOCKED: BRANCH  13  14
DOCKED: ATOM     14  C   UNL     1     -40.031  -8.598  13.681 -0.12 +0.00    +0.251 C  
DOCKED: BRANCH  14  15
DOCKED: ATOM     15  N   UNL     1     -38.602  -8.318  13.623 -0.10 +0.00    +0.141 N  
DOCKED: ATOM     16  C   UNL     1     -38.266  -7.601  12.391 -0.09 +0.00    +0.285 C  
DOCKED: ATOM     17  C   UNL     1     -38.180  -7.543  14.791 -0.02 +0.00    +0.285 C  
DOCKED: ENDBRANCH  14  15
DOCKED: ENDBRANCH  13  14
DOCKED: ENDBRANCH  12  13
DOCKED: ENDBRANCH   2  12
DOCKED: BRANCH   2  18
DOCKED: ATOM     18  C   UNL     1     -37.352 -12.029  14.789 -0.16 +0.00    +0.006 A  
DOCKED: ATOM     19  C   UNL     1     -37.087 -12.633  16.018 -0.15 +0.00    +0.001 A  
DOCKED: ATOM     20  C   UNL     1     -35.785 -12.648  16.519 -0.07 +0.00    +0.029 A  
DOCKED: ATOM     21  C   UNL     1     -34.751 -12.061  15.792 -0.03 +0.00    +0.140 A  
DOCKED: ATOM     22  C   UNL     1     -35.016 -11.458  14.563 -0.18 +0.00    +0.029 A  
DOCKED: ATOM     23  F   UNL     1     -33.501 -12.077  16.273 -0.03 -0.00    -0.204 F  
DOCKED: ATOM     24  C   UNL     1     -36.318 -11.441  14.061 -0.21 +0.00    +0.001 A  
DOCKED: ENDBRANCH   2  18
DOCKED: TORSDOF 5
DOCKED: TER
DOCKED: ENDMDL
________________________________________________________________________________


    FINAL DOCKED STATE:
    ________________________


Run:   272 / 512
Time taken for this run:   0.002s

DOCKED: MODEL        272
DOCKED: USER    Run = 272
DOCKED: USER
DOCKED: USER    Estimated Free Energy of Binding    =  -3.79 kcal/mol  [=(1)+(2)+(3)-(4)]
DOCKED: USER
DOCKED: USER    (1) Final Intermolecular Energy     =  -5.28 kcal/mol
DOCKED: USER        vdW + Hbond + desolv Energy     =  -5.28 kcal/mol
DOCKED: USER        Electrostatic Energy            =  +0.00 kcal/mol
DOCKED: USER        Moving Ligand-Fixed Receptor    =  -5.28 kcal/mol
DOCKED: USER        Moving Ligand-Moving Receptor   =  +0.00 kcal/mol
DOCKED: USER    (2) Final Total Internal Energy     =  -1.44 kcal/mol
DOCKED: USER    (3) Torsional Free Energy           =  +1.49 kcal/mol
DOCKED: USER    (4) Unbound System's Energy         =  -1.44 kcal/mol
DOCKED: USER
DOCKED: USER
DOCKED: REMARK  5 active torsions:
DOCKED: REMARK  status: ('A' for Active; 'I' for Inactive)
DOCKED: REMARK    1  A    between atoms: C_2  and  C_19 
DOCKED: REMARK    2  A    between atoms: C_2  and  C_11 
DOCKED: REMARK    3  A    between atoms: C_19  and  C_20 
DOCKED: REMARK    4  A    between atoms: C_20  and  C_21 
DOCKED: REMARK    5  A    between atoms: C_21  and  N_22 
DOCKED: USER                              x       y       z     vdW  Elec       q    Type
DOCKED: USER                           _______ _______ _______ _____ _____    ______ ____
DOCKED: ROOT
DOCKED: ATOM      1  O   UNL     1     -35.563 -11.778  16.251 -0.05 -0.00    -0.346 OA 
DOCKED: ATOM      2  C   UNL     1     -35.566 -10.857  15.114 -0.12 +0.00    +0.130 C  
DOCKED: ATOM      3  C   UNL     1     -36.480 -11.514  14.121 -0.21 +0.00    +0.004 A  
DOCKED: ATOM      4  C   UNL     1     -37.038 -12.653  14.683 -0.21 +0.00    +0.006 A  
DOCKED: ATOM      5  C   UNL     1     -36.550 -12.820  16.070 -0.10 +0.00    +0.169 C  
DOCKED: ATOM      6  C   UNL     1     -36.800 -11.128  12.828 -0.21 -0.00    -0.001 A  
DOCKED: ATOM      7  C   UNL     1     -37.927 -13.444  13.975 -0.28 +0.00    +0.008 A  
DOCKED: ATOM      8  C   UNL     1     -37.692 -11.917  12.099 -0.34 +0.00    +0.010 A  
DOCKED: ATOM      9  C   UNL     1     -38.252 -13.069  12.671 -0.28 +0.00    +0.068 A  
DOCKED: ATOM     10  N   UNL     1     -39.908 -14.510  11.293 -2.27 -0.00    -0.191 NA 
DOCKED: ATOM     11  C   UNL     1     -39.165 -13.864  11.911 -0.26 +0.00    +0.101 C  
DOCKED: ENDROOT
DOCKED: BRANCH   2  12
DOCKED: ATOM     12  C   UNL     1     -36.081  -9.504  15.590 -0.05 +0.00    +0.038 C  
DOCKED: BRANCH  12  13
DOCKED: ATOM     13  C   UNL     1     -37.543  -9.296  15.200 -0.05 +0.00    +0.038 C  
DOCKED: BRANCH  13  14
DOCKED: ATOM     14  C   UNL     1     -38.481  -9.774  16.307 -0.01 +0.00    +0.251 C  
DOCKED: BRANCH  14  15
DOCKED: ATOM     15  N   UNL     1     -39.387 -10.796  15.797 -0.03 +0.00    +0.141 N  
DOCKED: ATOM     16  C   UNL     1     -40.405 -11.128  16.795 -0.00 +0.00    +0.285 C  
DOCKED: ATOM     17  C   UNL     1     -40.021 -10.350  14.555 -0.03 +0.00    +0.285 C  
DOCKED: ENDBRANCH  14  15
DOCKED: ENDBRANCH  13  14
DOCKED: ENDBRANCH  12  13
DOCKED: ENDBRANCH   2  12
DOCKED: BRANCH   2  18
DOCKED: ATOM     18  C   UNL     1     -34.157 -10.757  14.631 -0.15 +0.00    +0.006 A  
DOCKED: ATOM     19  C   UNL     1     -33.305 -11.855  14.737 -0.18 +0.00    +0.001 A  
DOCKED: ATOM     20  C   UNL     1     -31.988 -11.760  14.286 -0.16 +0.00    +0.029 A  
DOCKED: ATOM     21  C   UNL     1     -31.526 -10.568  13.728 -0.08 +0.00    +0.140 A  
DOCKED: ATOM     22  C   UNL     1     -32.380  -9.470  13.622 -0.09 +0.00    +0.029 A  
DOCKED: ATOM     23  F   UNL     1     -30.263 -10.478  13.293 -0.00 -0.00    -0.204 F  
DOCKED: ATOM     24  C   UNL     1     -33.697  -9.564  14.074 -0.11 +0.00    +0.001 A  
DOCKED: ENDBRANCH   2  18
DOCKED: TORSDOF 5
DOCKED: TER
DOCKED: ENDMDL
________________________________________________________________________________


    FINAL DOCKED STATE:
    ________________________


Run:   273 / 512
Time taken for this run:   0.002s

DOCKED: MODEL        273
DOCKED: USER    Run = 273
DOCKED: USER
DOCKED: USER    Estimated Free Energy of Binding    =  -3.51 kcal/mol  [=(1)+(2)+(3)-(4)]
DOCKED: USER
DOCKED: USER    (1) Final Intermolecular Energy     =  -5.00 kcal/mol
DOCKED: USER        vdW + Hbond + desolv Energy     =  -5.00 kcal/mol
DOCKED: USER        Electrostatic Energy            =  +0.00 kcal/mol
DOCKED: USER        Moving Ligand-Fixed Receptor    =  -5.00 kcal/mol
DOCKED: USER        Moving Ligand-Moving Receptor   =  +0.00 kcal/mol
DOCKED: USER    (2) Final Total Internal Energy     =  -1.58 kcal/mol
DOCKED: USER    (3) Torsional Free Energy           =  +1.49 kcal/mol
DOCKED: USER    (4) Unbound System's Energy         =  -1.58 kcal/mol
DOCKED: USER
DOCKED: USER
DOCKED: REMARK  5 active torsions:
DOCKED: REMARK  status: ('A' for Active; 'I' for Inactive)
DOCKED: REMARK    1  A    between atoms: C_2  and  C_19 
DOCKED: REMARK    2  A    between atoms: C_2  and  C_11 
DOCKED: REMARK    3  A    between atoms: C_19  and  C_20 
DOCKED: REMARK    4  A    between atoms: C_20  and  C_21 
DOCKED: REMARK    5  A    between atoms: C_21  and  N_22 
DOCKED: USER                              x       y       z     vdW  Elec       q    Type
DOCKED: USER                           _______ _______ _______ _____ _____    ______ ____
DOCKED: ROOT
DOCKED: ATOM      1  O   UNL     1     -36.410 -10.173  15.392 -0.01 -0.00    -0.346 OA 
DOCKED: ATOM      2  C   UNL     1     -35.501 -11.259  15.024 -0.14 +0.00    +0.130 C  
DOCKED: ATOM      3  C   UNL     1     -36.327 -12.126  14.118 -0.25 +0.00    +0.004 A  
DOCKED: ATOM      4  C   UNL     1     -37.561 -11.531  13.898 -0.19 +0.00    +0.006 A  
DOCKED: ATOM      5  C   UNL     1     -37.632 -10.242  14.622 -0.07 +0.00    +0.169 C  
DOCKED: ATOM      6  C   UNL     1     -36.007 -13.340  13.526 -0.07 -0.00    -0.001 A  
DOCKED: ATOM      7  C   UNL     1     -38.514 -12.125  13.088 -0.24 +0.00    +0.008 A  
DOCKED: ATOM      8  C   UNL     1     -36.959 -13.953  12.710 -0.41 +0.00    +0.010 A  
DOCKED: ATOM      9  C   UNL     1     -38.206 -13.348  12.492 -0.31 +0.00    +0.068 A  
DOCKED: ATOM     10  N   UNL     1     -39.948 -14.512  10.968 -2.04 -0.00    -0.191 NA 
DOCKED: ATOM     11  C   UNL     1     -39.167 -13.990  11.652 -0.31 +0.00    +0.101 C  
DOCKED: ENDROOT
DOCKED: BRANCH   2  12
DOCKED: ATOM     12  C   UNL     1     -34.287 -10.658  14.326 -0.16 +0.00    +0.038 C  
DOCKED: BRANCH  12  13
DOCKED: ATOM     13  C   UNL     1     -34.234  -9.143  14.509 -0.09 +0.00    +0.038 C  
DOCKED: BRANCH  13  14
DOCKED: ATOM     14  C   UNL     1     -33.618  -8.773  15.857 -0.01 +0.00    +0.251 C  
DOCKED: BRANCH  14  15
DOCKED: ATOM     15  N   UNL     1     -34.658  -8.644  16.871 -0.01 +0.00    +0.141 N  
DOCKED: ATOM     16  C   UNL     1     -34.072  -8.624  18.212 -0.00 +0.00    +0.285 C  
DOCKED: ATOM     17  C   UNL     1     -35.450  -7.433  16.645 -0.00 +0.00    +0.285 C  
DOCKED: ENDBRANCH  14  15
DOCKED: ENDBRANCH  13  14
DOCKED: ENDBRANCH  12  13
DOCKED: ENDBRANCH   2  12
DOCKED: BRANCH   2  18
DOCKED: ATOM     18  C   UNL     1     -35.109 -11.948  16.289 -0.11 +0.00    +0.006 A  
DOCKED: ATOM     19  C   UNL     1     -36.091 -12.454  17.139 -0.12 +0.00    +0.001 A  
DOCKED: ATOM     20  C   UNL     1     -35.723 -13.097  18.322 -0.13 +0.00    +0.029 A  
DOCKED: ATOM     21  C   UNL     1     -34.375 -13.233  18.652 -0.10 +0.00    +0.140 A  
DOCKED: ATOM     22  C   UNL     1     -33.394 -12.726  17.800 -0.11 +0.00    +0.029 A  
DOCKED: ATOM     23  F   UNL     1     -34.022 -13.852  19.786 -0.02 -0.00    -0.204 F  
DOCKED: ATOM     24  C   UNL     1     -33.761 -12.082  16.617 -0.10 +0.00    +0.001 A  
DOCKED: ENDBRANCH   2  18
DOCKED: TORSDOF 5
DOCKED: TER
DOCKED: ENDMDL
________________________________________________________________________________


    FINAL DOCKED STATE:
    ________________________


Run:   274 / 512
Time taken for this run:   0.002s

DOCKED: MODEL        274
DOCKED: USER    Run = 274
DOCKED: USER
DOCKED: USER    Estimated Free Energy of Binding    =  -5.54 kcal/mol  [=(1)+(2)+(3)-(4)]
DOCKED: USER
DOCKED: USER    (1) Final Intermolecular Energy     =  -7.03 kcal/mol
DOCKED: USER        vdW + Hbond + desolv Energy     =  -7.03 kcal/mol
DOCKED: USER        Electrostatic Energy            =  +0.00 kcal/mol
DOCKED: USER        Moving Ligand-Fixed Receptor    =  -7.03 kcal/mol
DOCKED: USER        Moving Ligand-Moving Receptor   =  +0.00 kcal/mol
DOCKED: USER    (2) Final Total Internal Energy     =  -1.23 kcal/mol
DOCKED: USER    (3) Torsional Free Energy           =  +1.49 kcal/mol
DOCKED: USER    (4) Unbound System's Energy         =  -1.23 kcal/mol
DOCKED: USER
DOCKED: USER
DOCKED: REMARK  5 active torsions:
DOCKED: REMARK  status: ('A' for Active; 'I' for Inactive)
DOCKED: REMARK    1  A    between atoms: C_2  and  C_19 
DOCKED: REMARK    2  A    between atoms: C_2  and  C_11 
DOCKED: REMARK    3  A    between atoms: C_19  and  C_20 
DOCKED: REMARK    4  A    between atoms: C_20  and  C_21 
DOCKED: REMARK    5  A    between atoms: C_21  and  N_22 
DOCKED: USER                              x       y       z     vdW  Elec       q    Type
DOCKED: USER                           _______ _______ _______ _____ _____    ______ ____
DOCKED: ROOT
DOCKED: ATOM      1  O   UNL     1     -37.150 -10.439  13.795 -0.06 -0.00    -0.346 OA 
DOCKED: ATOM      2  C   UNL     1     -36.879 -11.874  13.900 -0.22 +0.00    +0.130 C  
DOCKED: ATOM      3  C   UNL     1     -37.440 -12.439  12.627 -0.33 +0.00    +0.004 A  
DOCKED: ATOM      4  C   UNL     1     -37.892 -11.407  11.817 -0.32 +0.00    +0.006 A  
DOCKED: ATOM      5  C   UNL     1     -37.653 -10.106  12.481 -0.24 +0.00    +0.169 C  
DOCKED: ATOM      6  C   UNL     1     -37.533 -13.760  12.215 -0.42 -0.00    -0.001 A  
DOCKED: ATOM      7  C   UNL     1     -38.452 -11.658  10.576 -0.09 +0.00    +0.008 A  
DOCKED: ATOM      8  C   UNL     1     -38.100 -14.030  10.968 -0.47 +0.00    +0.010 A  
DOCKED: ATOM      9  C   UNL     1     -38.557 -12.984  10.153 -0.41 +0.00    +0.068 A  
DOCKED: ATOM     10  N   UNL     1     -39.599 -13.518   7.842 -2.62 -0.00    -0.191 NA 
DOCKED: ATOM     11  C   UNL     1     -39.132 -13.278   8.878 -0.45 +0.00    +0.101 C  
DOCKED: ENDROOT
DOCKED: BRANCH   2  12
DOCKED: ATOM     12  C   UNL     1     -35.373 -12.073  14.024 -0.21 +0.00    +0.038 C  
DOCKED: BRANCH  12  13
DOCKED: ATOM     13  C   UNL     1     -34.795 -11.243  15.169 -0.16 +0.00    +0.038 C  
DOCKED: BRANCH  13  14
DOCKED: ATOM     14  C   UNL     1     -33.542 -11.901  15.746 -0.09 +0.00    +0.251 C  
DOCKED: BRANCH  14  15
DOCKED: ATOM     15  N   UNL     1     -33.893 -12.762  16.869 -0.03 +0.00    +0.141 N  
DOCKED: ATOM     16  C   UNL     1     -32.691 -13.342  17.469 -0.08 +0.00    +0.285 C  
DOCKED: ATOM     17  C   UNL     1     -34.652 -12.015  17.874 -0.05 +0.00    +0.285 C  
DOCKED: ENDBRANCH  14  15
DOCKED: ENDBRANCH  13  14
DOCKED: ENDBRANCH  12  13
DOCKED: ENDBRANCH   2  12
DOCKED: BRANCH   2  18
DOCKED: ATOM     18  C   UNL     1     -37.590 -12.364  15.117 -0.16 +0.00    +0.006 A  
DOCKED: ATOM     19  C   UNL     1     -37.325 -13.641  15.611 -0.22 +0.00    +0.001 A  
DOCKED: ATOM     20  C   UNL     1     -37.991 -14.098  16.749 -0.19 +0.00    +0.029 A  
DOCKED: ATOM     21  C   UNL     1     -38.918 -13.279  17.391 -0.09 +0.00    +0.140 A  
DOCKED: ATOM     22  C   UNL     1     -39.182 -12.002  16.896 -0.06 +0.00    +0.029 A  
DOCKED: ATOM     23  F   UNL     1     -39.555 -13.718  18.485 -0.01 -0.00    -0.204 F  
DOCKED: ATOM     24  C   UNL     1     -38.517 -11.544  15.758 -0.07 +0.00    +0.001 A  
DOCKED: ENDBRANCH   2  18
DOCKED: TORSDOF 5
DOCKED: TER
DOCKED: ENDMDL
________________________________________________________________________________


    FINAL DOCKED STATE:
    ________________________


Run:   275 / 512
Time taken for this run:   0.002s

DOCKED: MODEL        275
DOCKED: USER    Run = 275
DOCKED: USER
DOCKED: USER    Estimated Free Energy of Binding    =  -4.30 kcal/mol  [=(1)+(2)+(3)-(4)]
DOCKED: USER
DOCKED: USER    (1) Final Intermolecular Energy     =  -5.79 kcal/mol
DOCKED: USER        vdW + Hbond + desolv Energy     =  -5.79 kcal/mol
DOCKED: USER        Electrostatic Energy            =  +0.00 kcal/mol
DOCKED: USER        Moving Ligand-Fixed Receptor    =  -5.79 kcal/mol
DOCKED: USER        Moving Ligand-Moving Receptor   =  +0.00 kcal/mol
DOCKED: USER    (2) Final Total Internal Energy     =  -0.98 kcal/mol
DOCKED: USER    (3) Torsional Free Energy           =  +1.49 kcal/mol
DOCKED: USER    (4) Unbound System's Energy         =  -0.98 kcal/mol
DOCKED: USER
DOCKED: USER
DOCKED: REMARK  5 active torsions:
DOCKED: REMARK  status: ('A' for Active; 'I' for Inactive)
DOCKED: REMARK    1  A    between atoms: C_2  and  C_19 
DOCKED: REMARK    2  A    between atoms: C_2  and  C_11 
DOCKED: REMARK    3  A    between atoms: C_19  and  C_20 
DOCKED: REMARK    4  A    between atoms: C_20  and  C_21 
DOCKED: REMARK    5  A    between atoms: C_21  and  N_22 
DOCKED: USER                              x       y       z     vdW  Elec       q    Type
DOCKED: USER                           _______ _______ _______ _____ _____    ______ ____
DOCKED: ROOT
DOCKED: ATOM      1  O   UNL     1     -29.148 -10.001   6.031 +0.01 -0.00    -0.346 OA 
DOCKED: ATOM      2  C   UNL     1     -30.584  -9.739   6.125 -0.07 +0.00    +0.130 C  
DOCKED: ATOM      3  C   UNL     1     -31.109 -10.894   6.928 -0.14 +0.00    +0.004 A  
DOCKED: ATOM      4  C   UNL     1     -30.051 -11.688   7.350 -0.09 +0.00    +0.006 A  
DOCKED: ATOM      5  C   UNL     1     -28.772 -11.115   6.874 -0.02 +0.00    +0.169 C  
DOCKED: ATOM      6  C   UNL     1     -32.416 -11.211   7.267 -0.28 -0.00    -0.001 A  
DOCKED: ATOM      7  C   UNL     1     -30.262 -12.821   8.117 -0.16 +0.00    +0.008 A  
DOCKED: ATOM      8  C   UNL     1     -32.645 -12.353   8.037 -0.30 +0.00    +0.010 A  
DOCKED: ATOM      9  C   UNL     1     -31.573 -13.153   8.460 -0.30 +0.00    +0.068 A  
DOCKED: ATOM     10  N   UNL     1     -32.034 -15.263   9.891 -2.57 -0.00    -0.191 NA 
DOCKED: ATOM     11  C   UNL     1     -31.827 -14.317   9.249 -0.37 +0.00    +0.101 C  
DOCKED: ENDROOT
DOCKED: BRANCH   2  12
DOCKED: ATOM     12  C   UNL     1     -30.786  -8.396   6.817 -0.04 +0.00    +0.038 C  
DOCKED: BRANCH  12  13
DOCKED: ATOM     13  C   UNL     1     -31.429  -8.568   8.191 -0.07 +0.00    +0.038 C  
DOCKED: BRANCH  13  14
DOCKED: ATOM     14  C   UNL     1     -32.868  -8.055   8.192 -0.08 +0.00    +0.251 C  
DOCKED: BRANCH  14  15
DOCKED: ATOM     15  N   UNL     1     -33.141  -7.314   9.418 -0.07 +0.00    +0.141 N  
DOCKED: ATOM     16  C   UNL     1     -33.345  -8.231  10.540 -0.09 +0.00    +0.285 C  
DOCKED: ATOM     17  C   UNL     1     -32.049  -6.385   9.714 -0.01 +0.00    +0.285 C  
DOCKED: ENDBRANCH  14  15
DOCKED: ENDBRANCH  13  14
DOCKED: ENDBRANCH  12  13
DOCKED: ENDBRANCH   2  12
DOCKED: BRANCH   2  18
DOCKED: ATOM     18  C   UNL     1     -31.115  -9.711   4.731 -0.13 +0.00    +0.006 A  
DOCKED: ATOM     19  C   UNL     1     -32.145  -8.833   4.394 -0.19 +0.00    +0.001 A  
DOCKED: ATOM     20  C   UNL     1     -32.640  -8.809   3.090 -0.22 +0.00    +0.029 A  
DOCKED: ATOM     21  C   UNL     1     -32.106  -9.661   2.125 -0.20 +0.00    +0.140 A  
DOCKED: ATOM     22  C   UNL     1     -31.076 -10.539   2.462 -0.17 +0.00    +0.029 A  
DOCKED: ATOM     23  F   UNL     1     -32.581  -9.636   0.873 -0.10 -0.00    -0.204 F  
DOCKED: ATOM     24  C   UNL     1     -30.580 -10.564   3.766 -0.13 +0.00    +0.001 A  
DOCKED: ENDBRANCH   2  18
DOCKED: TORSDOF 5
DOCKED: TER
DOCKED: ENDMDL
________________________________________________________________________________


    FINAL DOCKED STATE:
    ________________________


Run:   276 / 512
Time taken for this run:   0.002s

DOCKED: MODEL        276
DOCKED: USER    Run = 276
DOCKED: USER
DOCKED: USER    Estimated Free Energy of Binding    =  -3.82 kcal/mol  [=(1)+(2)+(3)-(4)]
DOCKED: USER
DOCKED: USER    (1) Final Intermolecular Energy     =  -5.31 kcal/mol
DOCKED: USER        vdW + Hbond + desolv Energy     =  -5.31 kcal/mol
DOCKED: USER        Electrostatic Energy            =  +0.00 kcal/mol
DOCKED: USER        Moving Ligand-Fixed Receptor    =  -5.31 kcal/mol
DOCKED: USER        Moving Ligand-Moving Receptor   =  +0.00 kcal/mol
DOCKED: USER    (2) Final Total Internal Energy     =  -1.18 kcal/mol
DOCKED: USER    (3) Torsional Free Energy           =  +1.49 kcal/mol
DOCKED: USER    (4) Unbound System's Energy         =  -1.18 kcal/mol
DOCKED: USER
DOCKED: USER
DOCKED: REMARK  5 active torsions:
DOCKED: REMARK  status: ('A' for Active; 'I' for Inactive)
DOCKED: REMARK    1  A    between atoms: C_2  and  C_19 
DOCKED: REMARK    2  A    between atoms: C_2  and  C_11 
DOCKED: REMARK    3  A    between atoms: C_19  and  C_20 
DOCKED: REMARK    4  A    between atoms: C_20  and  C_21 
DOCKED: REMARK    5  A    between atoms: C_21  and  N_22 
DOCKED: USER                              x       y       z     vdW  Elec       q    Type
DOCKED: USER                           _______ _______ _______ _____ _____    ______ ____
DOCKED: ROOT
DOCKED: ATOM      1  O   UNL     1     -35.325 -10.067  14.941 -0.04 -0.00    -0.346 OA 
DOCKED: ATOM      2  C   UNL     1     -36.338  -9.322  14.192 -0.10 +0.00    +0.130 C  
DOCKED: ATOM      3  C   UNL     1     -37.078 -10.386  13.434 -0.21 +0.00    +0.004 A  
DOCKED: ATOM      4  C   UNL     1     -36.604 -11.637  13.801 -0.23 +0.00    +0.006 A  
DOCKED: ATOM      5  C   UNL     1     -35.542 -11.492  14.822 -0.15 +0.00    +0.169 C  
DOCKED: ATOM      6  C   UNL     1     -38.098 -10.257  12.502 -0.27 -0.00    -0.001 A  
DOCKED: ATOM      7  C   UNL     1     -37.126 -12.796  13.251 -0.33 +0.00    +0.008 A  
DOCKED: ATOM      8  C   UNL     1     -38.632 -11.415  11.935 -0.31 +0.00    +0.010 A  
DOCKED: ATOM      9  C   UNL     1     -38.148 -12.678  12.308 -0.31 +0.00    +0.068 A  
DOCKED: ATOM     10  N   UNL     1     -39.164 -14.809  11.240 -2.50 -0.00    -0.191 NA 
DOCKED: ATOM     11  C   UNL     1     -38.708 -13.853  11.719 -0.33 +0.00    +0.101 C  
DOCKED: ENDROOT
DOCKED: BRANCH   2  12
DOCKED: ATOM     12  C   UNL     1     -37.221  -8.577  15.185 -0.04 +0.00    +0.038 C  
DOCKED: BRANCH  12  13
DOCKED: ATOM     13  C   UNL     1     -36.971  -9.049  16.616 -0.02 +0.00    +0.038 C  
DOCKED: BRANCH  13  14
DOCKED: ATOM     14  C   UNL     1     -38.237  -9.650  17.225 -0.00 +0.00    +0.251 C  
DOCKED: BRANCH  14  15
DOCKED: ATOM     15  N   UNL     1     -37.891 -10.612  18.265 -0.01 +0.00    +0.141 N  
DOCKED: ATOM     16  C   UNL     1     -36.638 -11.295  17.941 -0.02 +0.00    +0.285 C  
DOCKED: ATOM     17  C   UNL     1     -37.786  -9.948  19.566 -0.00 +0.00    +0.285 C  
DOCKED: ENDBRANCH  14  15
DOCKED: ENDBRANCH  13  14
DOCKED: ENDBRANCH  12  13
DOCKED: ENDBRANCH   2  12
DOCKED: BRANCH   2  18
DOCKED: ATOM     18  C   UNL     1     -35.610  -8.373  13.300 -0.13 +0.00    +0.006 A  
DOCKED: ATOM     19  C   UNL     1     -35.646  -7.004  13.563 -0.06 +0.00    +0.001 A  
DOCKED: ATOM     20  C   UNL     1     -34.965  -6.117  12.728 -0.04 +0.00    +0.029 A  
DOCKED: ATOM     21  C   UNL     1     -34.250  -6.599  11.633 -0.06 +0.00    +0.140 A  
DOCKED: ATOM     22  C   UNL     1     -34.214  -7.969  11.371 -0.14 +0.00    +0.029 A  
DOCKED: ATOM     23  F   UNL     1     -33.595  -5.748  10.832 -0.00 -0.00    -0.204 F  
DOCKED: ATOM     24  C   UNL     1     -34.895  -8.857  12.205 -0.01 +0.00    +0.001 A  
DOCKED: ENDBRANCH   2  18
DOCKED: TORSDOF 5
DOCKED: TER
DOCKED: ENDMDL
________________________________________________________________________________


    FINAL DOCKED STATE:
    ________________________


Run:   277 / 512
Time taken for this run:   0.002s

DOCKED: MODEL        277
DOCKED: USER    Run = 277
DOCKED: USER
DOCKED: USER    Estimated Free Energy of Binding    =  -5.13 kcal/mol  [=(1)+(2)+(3)-(4)]
DOCKED: USER
DOCKED: USER    (1) Final Intermolecular Energy     =  -6.62 kcal/mol
DOCKED: USER        vdW + Hbond + desolv Energy     =  -6.62 kcal/mol
DOCKED: USER        Electrostatic Energy            =  +0.00 kcal/mol
DOCKED: USER        Moving Ligand-Fixed Receptor    =  -6.62 kcal/mol
DOCKED: USER        Moving Ligand-Moving Receptor   =  +0.00 kcal/mol
DOCKED: USER    (2) Final Total Internal Energy     =  -1.37 kcal/mol
DOCKED: USER    (3) Torsional Free Energy           =  +1.49 kcal/mol
DOCKED: USER    (4) Unbound System's Energy         =  -1.37 kcal/mol
DOCKED: USER
DOCKED: USER
DOCKED: REMARK  5 active torsions:
DOCKED: REMARK  status: ('A' for Active; 'I' for Inactive)
DOCKED: REMARK    1  A    between atoms: C_2  and  C_19 
DOCKED: REMARK    2  A    between atoms: C_2  and  C_11 
DOCKED: REMARK    3  A    between atoms: C_19  and  C_20 
DOCKED: REMARK    4  A    between atoms: C_20  and  C_21 
DOCKED: REMARK    5  A    between atoms: C_21  and  N_22 
DOCKED: USER                              x       y       z     vdW  Elec       q    Type
DOCKED: USER                           _______ _______ _______ _____ _____    ______ ____
DOCKED: ROOT
DOCKED: ATOM      1  O   UNL     1     -37.295 -10.314  13.785 -0.05 -0.00    -0.346 OA 
DOCKED: ATOM      2  C   UNL     1     -36.912 -11.723  13.891 -0.21 +0.00    +0.130 C  
DOCKED: ATOM      3  C   UNL     1     -37.455 -12.338  12.634 -0.33 +0.00    +0.004 A  
DOCKED: ATOM      4  C   UNL     1     -38.002 -11.349  11.828 -0.33 +0.00    +0.006 A  
DOCKED: ATOM      5  C   UNL     1     -37.851 -10.029  12.480 -0.23 +0.00    +0.169 C  
DOCKED: ATOM      6  C   UNL     1     -37.454 -13.665  12.230 -0.42 -0.00    -0.001 A  
DOCKED: ATOM      7  C   UNL     1     -38.568 -11.651  10.601 -0.00 +0.00    +0.008 A  
DOCKED: ATOM      8  C   UNL     1     -38.024 -13.986  10.997 -0.46 +0.00    +0.010 A  
DOCKED: ATOM      9  C   UNL     1     -38.578 -12.983  10.187 -0.41 +0.00    +0.068 A  
DOCKED: ATOM     10  N   UNL     1     -39.625 -13.612   7.902 -2.51 -0.00    -0.191 NA 
DOCKED: ATOM     11  C   UNL     1     -39.156 -13.330   8.927 -0.48 +0.00    +0.101 C  
DOCKED: ENDROOT
DOCKED: BRANCH   2  12
DOCKED: ATOM     12  C   UNL     1     -35.393 -11.804  13.984 -0.21 +0.00    +0.038 C  
DOCKED: BRANCH  12  13
DOCKED: ATOM     13  C   UNL     1     -34.865 -11.018  15.182 -0.15 +0.00    +0.038 C  
DOCKED: BRANCH  13  14
DOCKED: ATOM     14  C   UNL     1     -34.762  -9.528  14.860 -0.06 +0.00    +0.251 C  
DOCKED: BRANCH  14  15
DOCKED: ATOM     15  N   UNL     1     -35.762  -8.777  15.608 -0.02 +0.00    +0.141 N  
DOCKED: ATOM     16  C   UNL     1     -35.411  -8.722  17.028 -0.00 +0.00    +0.285 C  
DOCKED: ATOM     17  C   UNL     1     -35.902  -7.424  15.067 -0.01 +0.00    +0.285 C  
DOCKED: ENDBRANCH  14  15
DOCKED: ENDBRANCH  13  14
DOCKED: ENDBRANCH  12  13
DOCKED: ENDBRANCH   2  12
DOCKED: BRANCH   2  18
DOCKED: ATOM     18  C   UNL     1     -37.556 -12.258  15.126 -0.15 +0.00    +0.006 A  
DOCKED: ATOM     19  C   UNL     1     -38.093 -11.382  16.068 -0.06 +0.00    +0.001 A  
DOCKED: ATOM     20  C   UNL     1     -38.695 -11.884  17.223 -0.05 +0.00    +0.029 A  
DOCKED: ATOM     21  C   UNL     1     -38.760 -13.261  17.432 -0.09 +0.00    +0.140 A  
DOCKED: ATOM     22  C   UNL     1     -38.223 -14.137  16.489 -0.13 +0.00    +0.029 A  
DOCKED: ATOM     23  F   UNL     1     -39.339 -13.743  18.540 -0.01 -0.00    -0.204 F  
DOCKED: ATOM     24  C   UNL     1     -37.620 -13.636  15.334 -0.25 +0.00    +0.001 A  
DOCKED: ENDBRANCH   2  18
DOCKED: TORSDOF 5
DOCKED: TER
DOCKED: ENDMDL
________________________________________________________________________________


    FINAL DOCKED STATE:
    ________________________


Run:   278 / 512
Time taken for this run:   0.002s

DOCKED: MODEL        278
DOCKED: USER    Run = 278
DOCKED: USER
DOCKED: USER    Estimated Free Energy of Binding    =  -3.92 kcal/mol  [=(1)+(2)+(3)-(4)]
DOCKED: USER
DOCKED: USER    (1) Final Intermolecular Energy     =  -5.41 kcal/mol
DOCKED: USER        vdW + Hbond + desolv Energy     =  -5.41 kcal/mol
DOCKED: USER        Electrostatic Energy            =  +0.00 kcal/mol
DOCKED: USER        Moving Ligand-Fixed Receptor    =  -5.41 kcal/mol
DOCKED: USER        Moving Ligand-Moving Receptor   =  +0.00 kcal/mol
DOCKED: USER    (2) Final Total Internal Energy     =  -1.07 kcal/mol
DOCKED: USER    (3) Torsional Free Energy           =  +1.49 kcal/mol
DOCKED: USER    (4) Unbound System's Energy         =  -1.07 kcal/mol
DOCKED: USER
DOCKED: USER
DOCKED: REMARK  5 active torsions:
DOCKED: REMARK  status: ('A' for Active; 'I' for Inactive)
DOCKED: REMARK    1  A    between atoms: C_2  and  C_19 
DOCKED: REMARK    2  A    between atoms: C_2  and  C_11 
DOCKED: REMARK    3  A    between atoms: C_19  and  C_20 
DOCKED: REMARK    4  A    between atoms: C_20  and  C_21 
DOCKED: REMARK    5  A    between atoms: C_21  and  N_22 
DOCKED: USER                              x       y       z     vdW  Elec       q    Type
DOCKED: USER                           _______ _______ _______ _____ _____    ______ ____
DOCKED: ROOT
DOCKED: ATOM      1  O   UNL     1     -38.058  -9.104  15.402 -0.00 -0.00    -0.346 OA 
DOCKED: ATOM      2  C   UNL     1     -37.407  -8.899  14.108 -0.09 +0.00    +0.130 C  
DOCKED: ATOM      3  C   UNL     1     -37.748 -10.139  13.333 -0.21 +0.00    +0.004 A  
DOCKED: ATOM      4  C   UNL     1     -38.610 -10.932  14.078 -0.13 +0.00    +0.006 A  
DOCKED: ATOM      5  C   UNL     1     -38.905 -10.277  15.372 -0.04 +0.00    +0.169 C  
DOCKED: ATOM      6  C   UNL     1     -37.338 -10.529  12.067 -0.23 -0.00    -0.001 A  
DOCKED: ATOM      7  C   UNL     1     -39.086 -12.136  13.588 -0.18 +0.00    +0.008 A  
DOCKED: ATOM      8  C   UNL     1     -37.806 -11.743  11.560 -0.28 +0.00    +0.010 A  
DOCKED: ATOM      9  C   UNL     1     -38.676 -12.542  12.317 -0.27 +0.00    +0.068 A  
DOCKED: ATOM     10  N   UNL     1     -39.529 -14.787  11.345 -2.55 -0.00    -0.191 NA 
DOCKED: ATOM     11  C   UNL     1     -39.146 -13.780  11.781 -0.35 +0.00    +0.101 C  
DOCKED: ENDROOT
DOCKED: BRANCH   2  12
DOCKED: ATOM     12  C   UNL     1     -37.972  -7.632  13.478 -0.13 +0.00    +0.038 C  
DOCKED: BRANCH  12  13
DOCKED: ATOM     13  C   UNL     1     -39.329  -7.891  12.827 -0.23 +0.00    +0.038 C  
DOCKED: BRANCH  13  14
DOCKED: ATOM     14  C   UNL     1     -40.010  -6.580  12.436 -0.16 +0.00    +0.251 C  
DOCKED: BRANCH  14  15
DOCKED: ATOM     15  N   UNL     1     -39.065  -5.473  12.521 -0.09 +0.00    +0.141 N  
DOCKED: ATOM     16  C   UNL     1     -38.550  -5.131  11.195 -0.11 +0.00    +0.285 C  
DOCKED: ATOM     17  C   UNL     1     -39.695  -4.304  13.138 -0.02 +0.00    +0.285 C  
DOCKED: ENDBRANCH  14  15
DOCKED: ENDBRANCH  13  14
DOCKED: ENDBRANCH  12  13
DOCKED: ENDBRANCH   2  12
DOCKED: BRANCH   2  18
DOCKED: ATOM     18  C   UNL     1     -35.944  -8.763  14.372 -0.08 +0.00    +0.006 A  
DOCKED: ATOM     19  C   UNL     1     -35.124  -8.129  13.440 -0.10 +0.00    +0.001 A  
DOCKED: ATOM     20  C   UNL     1     -33.757  -8.002  13.688 -0.06 +0.00    +0.029 A  
DOCKED: ATOM     21  C   UNL     1     -33.212  -8.510  14.867 -0.03 +0.00    +0.140 A  
DOCKED: ATOM     22  C   UNL     1     -34.033  -9.144  15.799 -0.03 +0.00    +0.029 A  
DOCKED: ATOM     23  F   UNL     1     -31.900  -8.387  15.106 -0.00 -0.00    -0.204 F  
DOCKED: ATOM     24  C   UNL     1     -35.401  -9.272  15.551 -0.04 +0.00    +0.001 A  
DOCKED: ENDBRANCH   2  18
DOCKED: TORSDOF 5
DOCKED: TER
DOCKED: ENDMDL
________________________________________________________________________________


    FINAL DOCKED STATE:
    ________________________


Run:   279 / 512
Time taken for this run:   0.002s

DOCKED: MODEL        279
DOCKED: USER    Run = 279
DOCKED: USER
DOCKED: USER    Estimated Free Energy of Binding    =  -3.69 kcal/mol  [=(1)+(2)+(3)-(4)]
DOCKED: USER
DOCKED: USER    (1) Final Intermolecular Energy     =  -5.19 kcal/mol
DOCKED: USER        vdW + Hbond + desolv Energy     =  -5.19 kcal/mol
DOCKED: USER        Electrostatic Energy            =  +0.00 kcal/mol
DOCKED: USER        Moving Ligand-Fixed Receptor    =  -5.19 kcal/mol
DOCKED: USER        Moving Ligand-Moving Receptor   =  +0.00 kcal/mol
DOCKED: USER    (2) Final Total Internal Energy     =  -1.15 kcal/mol
DOCKED: USER    (3) Torsional Free Energy           =  +1.49 kcal/mol
DOCKED: USER    (4) Unbound System's Energy         =  -1.15 kcal/mol
DOCKED: USER
DOCKED: USER
DOCKED: REMARK  5 active torsions:
DOCKED: REMARK  status: ('A' for Active; 'I' for Inactive)
DOCKED: REMARK    1  A    between atoms: C_2  and  C_19 
DOCKED: REMARK    2  A    between atoms: C_2  and  C_11 
DOCKED: REMARK    3  A    between atoms: C_19  and  C_20 
DOCKED: REMARK    4  A    between atoms: C_20  and  C_21 
DOCKED: REMARK    5  A    between atoms: C_21  and  N_22 
DOCKED: USER                              x       y       z     vdW  Elec       q    Type
DOCKED: USER                           _______ _______ _______ _____ _____    ______ ____
DOCKED: ROOT
DOCKED: ATOM      1  O   UNL     1     -37.457 -11.357  17.135 -0.01 -0.00    -0.346 OA 
DOCKED: ATOM      2  C   UNL     1     -36.299 -11.469  16.247 -0.08 +0.00    +0.130 C  
DOCKED: ATOM      3  C   UNL     1     -36.844 -12.156  15.029 -0.17 +0.00    +0.004 A  
DOCKED: ATOM      4  C   UNL     1     -38.216 -12.323  15.161 -0.13 +0.00    +0.006 A  
DOCKED: ATOM      5  C   UNL     1     -38.668 -11.755  16.451 -0.05 +0.00    +0.169 C  
DOCKED: ATOM      6  C   UNL     1     -36.182 -12.589  13.890 -0.27 -0.00    -0.001 A  
DOCKED: ATOM      7  C   UNL     1     -38.967 -12.928  14.169 -0.19 +0.00    +0.008 A  
DOCKED: ATOM      8  C   UNL     1     -36.925 -13.205  12.881 -0.37 +0.00    +0.010 A  
DOCKED: ATOM      9  C   UNL     1     -38.311 -13.373  13.020 -0.26 +0.00    +0.068 A  
DOCKED: ATOM     10  N   UNL     1     -39.662 -14.516  11.128 -2.27 -0.00    -0.191 NA 
DOCKED: ATOM     11  C   UNL     1     -39.056 -14.004  11.977 -0.08 +0.00    +0.101 C  
DOCKED: ENDROOT
DOCKED: BRANCH   2  12
DOCKED: ATOM     12  C   UNL     1     -35.778 -10.067  15.954 -0.06 +0.00    +0.038 C  
DOCKED: BRANCH  12  13
DOCKED: ATOM     13  C   UNL     1     -36.815  -9.233  15.204 -0.05 +0.00    +0.038 C  
DOCKED: BRANCH  13  14
DOCKED: ATOM     14  C   UNL     1     -36.552  -9.254  13.699 -0.11 +0.00    +0.251 C  
DOCKED: BRANCH  14  15
DOCKED: ATOM     15  N   UNL     1     -35.571  -8.236  13.341 -0.09 +0.00    +0.141 N  
DOCKED: ATOM     16  C   UNL     1     -34.281  -8.851  13.026 -0.08 +0.00    +0.285 C  
DOCKED: ATOM     17  C   UNL     1     -36.044  -7.440  12.208 -0.10 +0.00    +0.285 C  
DOCKED: ENDBRANCH  14  15
DOCKED: ENDBRANCH  13  14
DOCKED: ENDBRANCH  12  13
DOCKED: ENDBRANCH   2  12
DOCKED: BRANCH   2  18
DOCKED: ATOM     18  C   UNL     1     -35.276 -12.284  16.966 -0.11 +0.00    +0.006 A  
DOCKED: ATOM     19  C   UNL     1     -35.677 -13.317  17.812 -0.15 +0.00    +0.001 A  
DOCKED: ATOM     20  C   UNL     1     -34.720 -14.078  18.484 -0.16 +0.00    +0.029 A  
DOCKED: ATOM     21  C   UNL     1     -33.364 -13.806  18.308 -0.13 +0.00    +0.140 A  
DOCKED: ATOM     22  C   UNL     1     -32.963 -12.773  17.460 -0.11 +0.00    +0.029 A  
DOCKED: ATOM     23  F   UNL     1     -32.445 -14.538  18.951 -0.07 -0.00    -0.204 F  
DOCKED: ATOM     24  C   UNL     1     -33.920 -12.011  16.788 -0.10 +0.00    +0.001 A  
DOCKED: ENDBRANCH   2  18
DOCKED: TORSDOF 5
DOCKED: TER
DOCKED: ENDMDL
________________________________________________________________________________


    FINAL DOCKED STATE:
    ________________________


Run:   280 / 512
Time taken for this run:   0.002s

DOCKED: MODEL        280
DOCKED: USER    Run = 280
DOCKED: USER
DOCKED: USER    Estimated Free Energy of Binding    =  -4.53 kcal/mol  [=(1)+(2)+(3)-(4)]
DOCKED: USER
DOCKED: USER    (1) Final Intermolecular Energy     =  -6.02 kcal/mol
DOCKED: USER        vdW + Hbond + desolv Energy     =  -6.02 kcal/mol
DOCKED: USER        Electrostatic Energy            =  +0.00 kcal/mol
DOCKED: USER        Moving Ligand-Fixed Receptor    =  -6.02 kcal/mol
DOCKED: USER        Moving Ligand-Moving Receptor   =  +0.00 kcal/mol
DOCKED: USER    (2) Final Total Internal Energy     =  -1.33 kcal/mol
DOCKED: USER    (3) Torsional Free Energy           =  +1.49 kcal/mol
DOCKED: USER    (4) Unbound System's Energy         =  -1.33 kcal/mol
DOCKED: USER
DOCKED: USER
DOCKED: REMARK  5 active torsions:
DOCKED: REMARK  status: ('A' for Active; 'I' for Inactive)
DOCKED: REMARK    1  A    between atoms: C_2  and  C_19 
DOCKED: REMARK    2  A    between atoms: C_2  and  C_11 
DOCKED: REMARK    3  A    between atoms: C_19  and  C_20 
DOCKED: REMARK    4  A    between atoms: C_20  and  C_21 
DOCKED: REMARK    5  A    between atoms: C_21  and  N_22 
DOCKED: USER                              x       y       z     vdW  Elec       q    Type
DOCKED: USER                           _______ _______ _______ _____ _____    ______ ____
DOCKED: ROOT
DOCKED: ATOM      1  O   UNL     1     -37.200  -8.240  13.010 -0.07 -0.00    -0.346 OA 
DOCKED: ATOM      2  C   UNL     1     -38.529  -8.458  13.584 -0.14 +0.00    +0.130 C  
DOCKED: ATOM      3  C   UNL     1     -38.875  -9.858  13.169 -0.21 +0.00    +0.004 A  
DOCKED: ATOM      4  C   UNL     1     -37.795 -10.431  12.511 -0.28 +0.00    +0.006 A  
DOCKED: ATOM      5  C   UNL     1     -36.672  -9.468  12.457 -0.18 +0.00    +0.169 C  
DOCKED: ATOM      6  C   UNL     1     -40.047 -10.573  13.367 -0.19 -0.00    -0.001 A  
DOCKED: ATOM      7  C   UNL     1     -37.850 -11.727  12.028 -0.34 +0.00    +0.008 A  
DOCKED: ATOM      8  C   UNL     1     -40.120 -11.880  12.882 -0.21 +0.00    +0.010 A  
DOCKED: ATOM      9  C   UNL     1     -39.026 -12.454  12.216 -0.26 +0.00    +0.068 A  
DOCKED: ATOM     10  N   UNL     1     -39.192 -14.884  11.333 -2.61 -0.00    -0.191 NA 
DOCKED: ATOM     11  C   UNL     1     -39.118 -13.794  11.729 -0.36 +0.00    +0.101 C  
DOCKED: ENDROOT
DOCKED: BRANCH   2  12
DOCKED: ATOM     12  C   UNL     1     -38.435  -8.293  15.096 -0.04 +0.00    +0.038 C  
DOCKED: BRANCH  12  13
DOCKED: ATOM     13  C   UNL     1     -37.645  -7.041  15.472 -0.02 +0.00    +0.038 C  
DOCKED: BRANCH  13  14
DOCKED: ATOM     14  C   UNL     1     -36.184  -7.378  15.759 -0.01 +0.00    +0.251 C  
DOCKED: BRANCH  14  15
DOCKED: ATOM     15  N   UNL     1     -35.356  -7.082  14.596 -0.02 +0.00    +0.141 N  
DOCKED: ATOM     16  C   UNL     1     -35.533  -5.690  14.178 -0.01 +0.00    +0.285 C  
DOCKED: ATOM     17  C   UNL     1     -33.946  -7.350  14.884 -0.01 +0.00    +0.285 C  
DOCKED: ENDBRANCH  14  15
DOCKED: ENDBRANCH  13  14
DOCKED: ENDBRANCH  12  13
DOCKED: ENDBRANCH   2  12
DOCKED: BRANCH   2  18
DOCKED: ATOM     18  C   UNL     1     -39.435  -7.433  12.986 -0.20 +0.00    +0.006 A  
DOCKED: ATOM     19  C   UNL     1     -40.817  -7.606  13.047 -0.21 +0.00    +0.001 A  
DOCKED: ATOM     20  C   UNL     1     -41.664  -6.648  12.487 -0.19 +0.00    +0.029 A  
DOCKED: ATOM     21  C   UNL     1     -41.127  -5.519  11.869 -0.11 +0.00    +0.140 A  
DOCKED: ATOM     22  C   UNL     1     -39.744  -5.347  11.809 -0.16 +0.00    +0.029 A  
DOCKED: ATOM     23  F   UNL     1     -41.940  -4.599  11.334 -0.02 -0.00    -0.204 F  
DOCKED: ATOM     24  C   UNL     1     -38.897  -6.305  12.368 -0.17 +0.00    +0.001 A  
DOCKED: ENDBRANCH   2  18
DOCKED: TORSDOF 5
DOCKED: TER
DOCKED: ENDMDL
________________________________________________________________________________


    FINAL DOCKED STATE:
    ________________________


Run:   281 / 512
Time taken for this run:   0.002s

DOCKED: MODEL        281
DOCKED: USER    Run = 281
DOCKED: USER
DOCKED: USER    Estimated Free Energy of Binding    =  -4.15 kcal/mol  [=(1)+(2)+(3)-(4)]
DOCKED: USER
DOCKED: USER    (1) Final Intermolecular Energy     =  -5.64 kcal/mol
DOCKED: USER        vdW + Hbond + desolv Energy     =  -5.64 kcal/mol
DOCKED: USER        Electrostatic Energy            =  +0.00 kcal/mol
DOCKED: USER        Moving Ligand-Fixed Receptor    =  -5.64 kcal/mol
DOCKED: USER        Moving Ligand-Moving Receptor   =  +0.00 kcal/mol
DOCKED: USER    (2) Final Total Internal Energy     =  -1.35 kcal/mol
DOCKED: USER    (3) Torsional Free Energy           =  +1.49 kcal/mol
DOCKED: USER    (4) Unbound System's Energy         =  -1.35 kcal/mol
DOCKED: USER
DOCKED: USER
DOCKED: REMARK  5 active torsions:
DOCKED: REMARK  status: ('A' for Active; 'I' for Inactive)
DOCKED: REMARK    1  A    between atoms: C_2  and  C_19 
DOCKED: REMARK    2  A    between atoms: C_2  and  C_11 
DOCKED: REMARK    3  A    between atoms: C_19  and  C_20 
DOCKED: REMARK    4  A    between atoms: C_20  and  C_21 
DOCKED: REMARK    5  A    between atoms: C_21  and  N_22 
DOCKED: USER                              x       y       z     vdW  Elec       q    Type
DOCKED: USER                           _______ _______ _______ _____ _____    ______ ____
DOCKED: ROOT
DOCKED: ATOM      1  O   UNL     1     -35.833  -9.185  14.007 -0.05 -0.00    -0.346 OA 
DOCKED: ATOM      2  C   UNL     1     -37.235  -8.817  13.804 -0.11 +0.00    +0.130 C  
DOCKED: ATOM      3  C   UNL     1     -37.851 -10.055  13.220 -0.22 +0.00    +0.004 A  
DOCKED: ATOM      4  C   UNL     1     -36.912 -11.076  13.194 -0.25 +0.00    +0.006 A  
DOCKED: ATOM      5  C   UNL     1     -35.633 -10.597  13.762 -0.11 +0.00    +0.169 C  
DOCKED: ATOM      6  C   UNL     1     -39.143 -10.264  12.759 -0.24 -0.00    -0.001 A  
DOCKED: ATOM      7  C   UNL     1     -37.228 -12.333  12.705 -0.32 +0.00    +0.008 A  
DOCKED: ATOM      8  C   UNL     1     -39.475 -11.524  12.259 -0.26 +0.00    +0.010 A  
DOCKED: ATOM      9  C   UNL     1     -38.522 -12.553  12.233 -0.29 +0.00    +0.068 A  
DOCKED: ATOM     10  N   UNL     1     -39.174 -14.883  11.304 -2.59 -0.00    -0.191 NA 
DOCKED: ATOM     11  C   UNL     1     -38.881 -13.838  11.720 -0.34 +0.00    +0.101 C  
DOCKED: ENDROOT
DOCKED: BRANCH   2  12
DOCKED: ATOM     12  C   UNL     1     -37.834  -8.435  15.153 -0.04 +0.00    +0.038 C  
DOCKED: BRANCH  12  13
DOCKED: ATOM     13  C   UNL     1     -37.048  -7.303  15.810 -0.02 +0.00    +0.038 C  
DOCKED: BRANCH  13  14
DOCKED: ATOM     14  C   UNL     1     -37.874  -6.019  15.862 -0.00 +0.00    +0.251 C  
DOCKED: BRANCH  14  15
DOCKED: ATOM     15  N   UNL     1     -37.062  -4.877  15.456 -0.00 +0.00    +0.141 N  
DOCKED: ATOM     16  C   UNL     1     -37.047  -3.856  16.504 +0.00 +0.00    +0.285 C  
DOCKED: ATOM     17  C   UNL     1     -35.697  -5.301  15.140 -0.00 +0.00    +0.285 C  
DOCKED: ENDBRANCH  14  15
DOCKED: ENDBRANCH  13  14
DOCKED: ENDBRANCH  12  13
DOCKED: ENDBRANCH   2  12
DOCKED: BRANCH   2  18
DOCKED: ATOM     18  C   UNL     1     -37.250  -7.660  12.862 -0.15 +0.00    +0.006 A  
DOCKED: ATOM     19  C   UNL     1     -36.069  -7.248  12.245 -0.13 +0.00    +0.001 A  
DOCKED: ATOM     20  C   UNL     1     -36.084  -6.166  11.364 -0.09 +0.00    +0.029 A  
DOCKED: ATOM     21  C   UNL     1     -37.279  -5.497  11.102 -0.09 +0.00    +0.140 A  
DOCKED: ATOM     22  C   UNL     1     -38.460  -5.910  11.719 -0.16 +0.00    +0.029 A  
DOCKED: ATOM     23  F   UNL     1     -37.294  -4.460  10.255 -0.02 -0.00    -0.204 F  
DOCKED: ATOM     24  C   UNL     1     -38.445  -6.992  12.600 -0.17 +0.00    +0.001 A  
DOCKED: ENDBRANCH   2  18
DOCKED: TORSDOF 5
DOCKED: TER
DOCKED: ENDMDL
________________________________________________________________________________


    FINAL DOCKED STATE:
    ________________________


Run:   282 / 512
Time taken for this run:   0.002s

DOCKED: MODEL        282
DOCKED: USER    Run = 282
DOCKED: USER
DOCKED: USER    Estimated Free Energy of Binding    =  -4.51 kcal/mol  [=(1)+(2)+(3)-(4)]
DOCKED: USER
DOCKED: USER    (1) Final Intermolecular Energy     =  -6.00 kcal/mol
DOCKED: USER        vdW + Hbond + desolv Energy     =  -6.00 kcal/mol
DOCKED: USER        Electrostatic Energy            =  +0.00 kcal/mol
DOCKED: USER        Moving Ligand-Fixed Receptor    =  -6.00 kcal/mol
DOCKED: USER        Moving Ligand-Moving Receptor   =  +0.00 kcal/mol
DOCKED: USER    (2) Final Total Internal Energy     =  -1.37 kcal/mol
DOCKED: USER    (3) Torsional Free Energy           =  +1.49 kcal/mol
DOCKED: USER    (4) Unbound System's Energy         =  -1.37 kcal/mol
DOCKED: USER
DOCKED: USER
DOCKED: REMARK  5 active torsions:
DOCKED: REMARK  status: ('A' for Active; 'I' for Inactive)
DOCKED: REMARK    1  A    between atoms: C_2  and  C_19 
DOCKED: REMARK    2  A    between atoms: C_2  and  C_11 
DOCKED: REMARK    3  A    between atoms: C_19  and  C_20 
DOCKED: REMARK    4  A    between atoms: C_20  and  C_21 
DOCKED: REMARK    5  A    between atoms: C_21  and  N_22 
DOCKED: USER                              x       y       z     vdW  Elec       q    Type
DOCKED: USER                           _______ _______ _______ _____ _____    ______ ____
DOCKED: ROOT
DOCKED: ATOM      1  O   UNL     1     -37.024  -8.264  12.807 -0.08 -0.00    -0.346 OA 
DOCKED: ATOM      2  C   UNL     1     -38.276  -8.494  13.530 -0.14 +0.00    +0.130 C  
DOCKED: ATOM      3  C   UNL     1     -38.667  -9.889  13.136 -0.21 +0.00    +0.004 A  
DOCKED: ATOM      4  C   UNL     1     -37.672 -10.448  12.346 -0.28 +0.00    +0.006 A  
DOCKED: ATOM      5  C   UNL     1     -36.564  -9.481  12.176 -0.08 +0.00    +0.169 C  
DOCKED: ATOM      6  C   UNL     1     -39.807 -10.610  13.459 -0.18 -0.00    -0.001 A  
DOCKED: ATOM      7  C   UNL     1     -37.782 -11.736  11.852 -0.33 +0.00    +0.008 A  
DOCKED: ATOM      8  C   UNL     1     -39.935 -11.909  12.965 -0.21 +0.00    +0.010 A  
DOCKED: ATOM      9  C   UNL     1     -38.927 -12.469  12.166 -0.27 +0.00    +0.068 A  
DOCKED: ATOM     10  N   UNL     1     -39.194 -14.886  11.269 -2.57 -0.00    -0.191 NA 
DOCKED: ATOM     11  C   UNL     1     -39.075 -13.802  11.671 -0.36 +0.00    +0.101 C  
DOCKED: ENDROOT
DOCKED: BRANCH   2  12
DOCKED: ATOM     12  C   UNL     1     -38.004  -8.354  15.023 -0.05 +0.00    +0.038 C  
DOCKED: BRANCH  12  13
DOCKED: ATOM     13  C   UNL     1     -36.879  -9.283  15.474 -0.05 +0.00    +0.038 C  
DOCKED: BRANCH  13  14
DOCKED: ATOM     14  C   UNL     1     -37.437 -10.529  16.158 -0.02 +0.00    +0.251 C  
DOCKED: BRANCH  14  15
DOCKED: ATOM     15  N   UNL     1     -36.719 -11.717  15.713 -0.08 +0.00    +0.141 N  
DOCKED: ATOM     16  C   UNL     1     -35.738 -12.134  16.716 -0.06 +0.00    +0.285 C  
DOCKED: ATOM     17  C   UNL     1     -37.653 -12.809  15.431 -0.10 +0.00    +0.285 C  
DOCKED: ENDBRANCH  14  15
DOCKED: ENDBRANCH  13  14
DOCKED: ENDBRANCH  12  13
DOCKED: ENDBRANCH   2  12
DOCKED: BRANCH   2  18
DOCKED: ATOM     18  C   UNL     1     -39.247  -7.463  13.060 -0.19 +0.00    +0.006 A  
DOCKED: ATOM     19  C   UNL     1     -40.532  -7.419  13.600 -0.15 +0.00    +0.001 A  
DOCKED: ATOM     20  C   UNL     1     -41.439  -6.455  13.159 -0.15 +0.00    +0.029 A  
DOCKED: ATOM     21  C   UNL     1     -41.061  -5.536  12.181 -0.12 +0.00    +0.140 A  
DOCKED: ATOM     22  C   UNL     1     -39.775  -5.581  11.642 -0.14 +0.00    +0.029 A  
DOCKED: ATOM     23  F   UNL     1     -41.931  -4.610  11.760 -0.02 -0.00    -0.204 F  
DOCKED: ATOM     24  C   UNL     1     -38.867  -6.546  12.081 -0.18 +0.00    +0.001 A  
DOCKED: ENDBRANCH   2  18
DOCKED: TORSDOF 5
DOCKED: TER
DOCKED: ENDMDL
________________________________________________________________________________


    FINAL DOCKED STATE:
    ________________________


Run:   283 / 512
Time taken for this run:   0.002s

DOCKED: MODEL        283
DOCKED: USER    Run = 283
DOCKED: USER
DOCKED: USER    Estimated Free Energy of Binding    =  -4.24 kcal/mol  [=(1)+(2)+(3)-(4)]
DOCKED: USER
DOCKED: USER    (1) Final Intermolecular Energy     =  -5.73 kcal/mol
DOCKED: USER        vdW + Hbond + desolv Energy     =  -5.73 kcal/mol
DOCKED: USER        Electrostatic Energy            =  +0.00 kcal/mol
DOCKED: USER        Moving Ligand-Fixed Receptor    =  -5.73 kcal/mol
DOCKED: USER        Moving Ligand-Moving Receptor   =  +0.00 kcal/mol
DOCKED: USER    (2) Final Total Internal Energy     =  -1.44 kcal/mol
DOCKED: USER    (3) Torsional Free Energy           =  +1.49 kcal/mol
DOCKED: USER    (4) Unbound System's Energy         =  -1.44 kcal/mol
DOCKED: USER
DOCKED: USER
DOCKED: REMARK  5 active torsions:
DOCKED: REMARK  status: ('A' for Active; 'I' for Inactive)
DOCKED: REMARK    1  A    between atoms: C_2  and  C_19 
DOCKED: REMARK    2  A    between atoms: C_2  and  C_11 
DOCKED: REMARK    3  A    between atoms: C_19  and  C_20 
DOCKED: REMARK    4  A    between atoms: C_20  and  C_21 
DOCKED: REMARK    5  A    between atoms: C_21  and  N_22 
DOCKED: USER                              x       y       z     vdW  Elec       q    Type
DOCKED: USER                           _______ _______ _______ _____ _____    ______ ____
DOCKED: ROOT
DOCKED: ATOM      1  O   UNL     1     -35.112  -9.955  14.116 -0.07 -0.00    -0.346 OA 
DOCKED: ATOM      2  C   UNL     1     -36.322  -9.261  13.676 -0.14 +0.00    +0.130 C  
DOCKED: ATOM      3  C   UNL     1     -37.171 -10.353  13.092 -0.24 +0.00    +0.004 A  
DOCKED: ATOM      4  C   UNL     1     -36.549 -11.579  13.282 -0.24 +0.00    +0.006 A  
DOCKED: ATOM      5  C   UNL     1     -35.272 -11.389  14.005 -0.12 +0.00    +0.169 C  
DOCKED: ATOM      6  C   UNL     1     -38.400 -10.270  12.454 -0.27 -0.00    -0.001 A  
DOCKED: ATOM      7  C   UNL     1     -37.128 -12.757  12.840 -0.34 +0.00    +0.008 A  
DOCKED: ATOM      8  C   UNL     1     -38.994 -11.448  11.998 -0.28 +0.00    +0.010 A  
DOCKED: ATOM      9  C   UNL     1     -38.362 -12.685  12.191 -0.31 +0.00    +0.068 A  
DOCKED: ATOM     10  N   UNL     1     -39.495 -14.853  11.338 -2.55 -0.00    -0.191 NA 
DOCKED: ATOM     11  C   UNL     1     -38.987 -13.880  11.720 -0.32 +0.00    +0.101 C  
DOCKED: ENDROOT
DOCKED: BRANCH   2  12
DOCKED: ATOM     12  C   UNL     1     -36.964  -8.594  14.886 -0.06 +0.00    +0.038 C  
DOCKED: BRANCH  12  13
DOCKED: ATOM     13  C   UNL     1     -36.193  -8.906  16.168 -0.02 +0.00    +0.038 C  
DOCKED: BRANCH  13  14
DOCKED: ATOM     14  C   UNL     1     -37.023  -9.775  17.111 -0.01 +0.00    +0.251 C  
DOCKED: BRANCH  14  15
DOCKED: ATOM     15  N   UNL     1     -38.107 -10.421  16.382 -0.02 +0.00    +0.141 N  
DOCKED: ATOM     16  C   UNL     1     -37.922 -11.873  16.360 -0.04 +0.00    +0.285 C  
DOCKED: ATOM     17  C   UNL     1     -39.401 -10.084  16.977 -0.00 +0.00    +0.285 C  
DOCKED: ENDBRANCH  14  15
DOCKED: ENDBRANCH  13  14
DOCKED: ENDBRANCH  12  13
DOCKED: ENDBRANCH   2  12
DOCKED: BRANCH   2  18
DOCKED: ATOM     18  C   UNL     1     -35.900  -8.248  12.664 -0.16 +0.00    +0.006 A  
DOCKED: ATOM     19  C   UNL     1     -34.807  -8.503  11.837 -0.11 +0.00    +0.001 A  
DOCKED: ATOM     20  C   UNL     1     -34.413  -7.555  10.892 -0.14 +0.00    +0.029 A  
DOCKED: ATOM     21  C   UNL     1     -35.113  -6.356  10.774 -0.07 +0.00    +0.140 A  
DOCKED: ATOM     22  C   UNL     1     -36.207  -6.102  11.601 -0.10 +0.00    +0.029 A  
DOCKED: ATOM     23  F   UNL     1     -34.736  -5.447   9.865 -0.01 -0.00    -0.204 F  
DOCKED: ATOM     24  C   UNL     1     -36.601  -7.049  12.548 -0.12 +0.00    +0.001 A  
DOCKED: ENDBRANCH   2  18
DOCKED: TORSDOF 5
DOCKED: TER
DOCKED: ENDMDL
________________________________________________________________________________


    FINAL DOCKED STATE:
    ________________________


Run:   284 / 512
Time taken for this run:   0.002s

DOCKED: MODEL        284
DOCKED: USER    Run = 284
DOCKED: USER
DOCKED: USER    Estimated Free Energy of Binding    =  -4.30 kcal/mol  [=(1)+(2)+(3)-(4)]
DOCKED: USER
DOCKED: USER    (1) Final Intermolecular Energy     =  -5.79 kcal/mol
DOCKED: USER        vdW + Hbond + desolv Energy     =  -5.79 kcal/mol
DOCKED: USER        Electrostatic Energy            =  +0.00 kcal/mol
DOCKED: USER        Moving Ligand-Fixed Receptor    =  -5.79 kcal/mol
DOCKED: USER        Moving Ligand-Moving Receptor   =  +0.00 kcal/mol
DOCKED: USER    (2) Final Total Internal Energy     =  -1.40 kcal/mol
DOCKED: USER    (3) Torsional Free Energy           =  +1.49 kcal/mol
DOCKED: USER    (4) Unbound System's Energy         =  -1.40 kcal/mol
DOCKED: USER
DOCKED: USER
DOCKED: REMARK  5 active torsions:
DOCKED: REMARK  status: ('A' for Active; 'I' for Inactive)
DOCKED: REMARK    1  A    between atoms: C_2  and  C_19 
DOCKED: REMARK    2  A    between atoms: C_2  and  C_11 
DOCKED: REMARK    3  A    between atoms: C_19  and  C_20 
DOCKED: REMARK    4  A    between atoms: C_20  and  C_21 
DOCKED: REMARK    5  A    between atoms: C_21  and  N_22 
DOCKED: USER                              x       y       z     vdW  Elec       q    Type
DOCKED: USER                           _______ _______ _______ _____ _____    ______ ____
DOCKED: ROOT
DOCKED: ATOM      1  O   UNL     1     -37.590  -8.095  13.614 -0.03 -0.00    -0.346 OA 
DOCKED: ATOM      2  C   UNL     1     -39.051  -8.167  13.684 -0.13 +0.00    +0.130 C  
DOCKED: ATOM      3  C   UNL     1     -39.367  -9.543  13.174 -0.21 +0.00    +0.004 A  
DOCKED: ATOM      4  C   UNL     1     -38.189 -10.236  12.938 -0.24 +0.00    +0.006 A  
DOCKED: ATOM      5  C   UNL     1     -37.028  -9.386  13.282 -0.17 +0.00    +0.169 C  
DOCKED: ATOM      6  C   UNL     1     -40.600 -10.137  12.948 -0.22 -0.00    -0.001 A  
DOCKED: ATOM      7  C   UNL     1     -38.201 -11.538  12.466 -0.31 +0.00    +0.008 A  
DOCKED: ATOM      8  C   UNL     1     -40.629 -11.448  12.468 -0.24 +0.00    +0.010 A  
DOCKED: ATOM      9  C   UNL     1     -39.435 -12.145  12.229 -0.24 +0.00    +0.068 A  
DOCKED: ATOM     10  N   UNL     1     -39.524 -14.578  11.344 -2.56 -0.00    -0.191 NA 
DOCKED: ATOM     11  C   UNL     1     -39.484 -13.486  11.740 -0.35 +0.00    +0.101 C  
DOCKED: ENDROOT
DOCKED: BRANCH   2  12
DOCKED: ATOM     12  C   UNL     1     -39.475  -7.959  15.133 -0.04 +0.00    +0.038 C  
DOCKED: BRANCH  12  13
DOCKED: ATOM     13  C   UNL     1     -39.781  -9.289  15.820 -0.04 +0.00    +0.038 C  
DOCKED: BRANCH  13  14
DOCKED: ATOM     14  C   UNL     1     -38.519  -9.898  16.426 -0.01 +0.00    +0.251 C  
DOCKED: BRANCH  14  15
DOCKED: ATOM     15  N   UNL     1     -38.403 -11.302  16.051 -0.04 +0.00    +0.141 N  
DOCKED: ATOM     16  C   UNL     1     -36.996 -11.694  15.945 -0.05 +0.00    +0.285 C  
DOCKED: ATOM     17  C   UNL     1     -39.095 -12.154  17.020 -0.03 +0.00    +0.285 C  
DOCKED: ENDBRANCH  14  15
DOCKED: ENDBRANCH  13  14
DOCKED: ENDBRANCH  12  13
DOCKED: ENDBRANCH   2  12
DOCKED: BRANCH   2  18
DOCKED: ATOM     18  C   UNL     1     -39.584  -7.084  12.807 -0.20 +0.00    +0.006 A  
DOCKED: ATOM     19  C   UNL     1     -40.928  -6.723  12.884 -0.19 +0.00    +0.001 A  
DOCKED: ATOM     20  C   UNL     1     -41.425  -5.711  12.063 -0.16 +0.00    +0.029 A  
DOCKED: ATOM     21  C   UNL     1     -40.578  -5.061  11.166 -0.08 +0.00    +0.140 A  
DOCKED: ATOM     22  C   UNL     1     -39.233  -5.422  11.090 -0.09 +0.00    +0.029 A  
DOCKED: ATOM     23  F   UNL     1     -41.055  -4.088  10.379 -0.03 -0.00    -0.204 F  
DOCKED: ATOM     24  C   UNL     1     -38.735  -6.435  11.910 -0.15 +0.00    +0.001 A  
DOCKED: ENDBRANCH   2  18
DOCKED: TORSDOF 5
DOCKED: TER
DOCKED: ENDMDL
________________________________________________________________________________


    FINAL DOCKED STATE:
    ________________________


Run:   285 / 512
Time taken for this run:   0.002s

DOCKED: MODEL        285
DOCKED: USER    Run = 285
DOCKED: USER
DOCKED: USER    Estimated Free Energy of Binding    =  -3.97 kcal/mol  [=(1)+(2)+(3)-(4)]
DOCKED: USER
DOCKED: USER    (1) Final Intermolecular Energy     =  -5.46 kcal/mol
DOCKED: USER        vdW + Hbond + desolv Energy     =  -5.46 kcal/mol
DOCKED: USER        Electrostatic Energy            =  +0.00 kcal/mol
DOCKED: USER        Moving Ligand-Fixed Receptor    =  -5.46 kcal/mol
DOCKED: USER        Moving Ligand-Moving Receptor   =  +0.00 kcal/mol
DOCKED: USER    (2) Final Total Internal Energy     =  -1.29 kcal/mol
DOCKED: USER    (3) Torsional Free Energy           =  +1.49 kcal/mol
DOCKED: USER    (4) Unbound System's Energy         =  -1.29 kcal/mol
DOCKED: USER
DOCKED: USER
DOCKED: REMARK  5 active torsions:
DOCKED: REMARK  status: ('A' for Active; 'I' for Inactive)
DOCKED: REMARK    1  A    between atoms: C_2  and  C_19 
DOCKED: REMARK    2  A    between atoms: C_2  and  C_11 
DOCKED: REMARK    3  A    between atoms: C_19  and  C_20 
DOCKED: REMARK    4  A    between atoms: C_20  and  C_21 
DOCKED: REMARK    5  A    between atoms: C_21  and  N_22 
DOCKED: USER                              x       y       z     vdW  Elec       q    Type
DOCKED: USER                           _______ _______ _______ _____ _____    ______ ____
DOCKED: ROOT
DOCKED: ATOM      1  O   UNL     1     -38.297  -8.560  14.552 -0.01 -0.00    -0.346 OA 
DOCKED: ATOM      2  C   UNL     1     -39.681  -8.627  14.079 -0.11 +0.00    +0.130 C  
DOCKED: ATOM      3  C   UNL     1     -39.766  -9.966  13.405 -0.19 +0.00    +0.004 A  
DOCKED: ATOM      4  C   UNL     1     -38.571 -10.651  13.575 -0.17 +0.00    +0.006 A  
DOCKED: ATOM      5  C   UNL     1     -37.631  -9.831  14.371 -0.08 +0.00    +0.169 C  
DOCKED: ATOM      6  C   UNL     1     -40.821 -10.537  12.708 -0.19 -0.00    -0.001 A  
DOCKED: ATOM      7  C   UNL     1     -38.388 -11.920  13.053 -0.24 +0.00    +0.008 A  
DOCKED: ATOM      8  C   UNL     1     -40.650 -11.815  12.173 -0.24 +0.00    +0.010 A  
DOCKED: ATOM      9  C   UNL     1     -39.440 -12.503  12.345 -0.23 +0.00    +0.068 A  
DOCKED: ATOM     10  N   UNL     1     -39.158 -14.875  11.342 -2.61 -0.00    -0.191 NA 
DOCKED: ATOM     11  C   UNL     1     -39.284 -13.811  11.791 -0.33 +0.00    +0.101 C  
DOCKED: ENDROOT
DOCKED: BRANCH   2  12
DOCKED: ATOM     12  C   UNL     1     -40.609  -8.508  15.282 -0.05 +0.00    +0.038 C  
DOCKED: BRANCH  12  13
DOCKED: ATOM     13  C   UNL     1     -39.851  -8.046  16.526 -0.01 +0.00    +0.038 C  
DOCKED: BRANCH  13  14
DOCKED: ATOM     14  C   UNL     1     -39.369  -9.238  17.350 -0.00 +0.00    +0.251 C  
DOCKED: BRANCH  14  15
DOCKED: ATOM     15  N   UNL     1     -37.944  -9.116  17.632 -0.00 +0.00    +0.141 N  
DOCKED: ATOM     16  C   UNL     1     -37.663  -7.870  18.345 +0.00 +0.00    +0.285 C  
DOCKED: ATOM     17  C   UNL     1     -37.472 -10.263  18.409 -0.00 +0.00    +0.285 C  
DOCKED: ENDBRANCH  14  15
DOCKED: ENDBRANCH  13  14
DOCKED: ENDBRANCH  12  13
DOCKED: ENDBRANCH   2  12
DOCKED: BRANCH   2  18
DOCKED: ATOM     18  C   UNL     1     -39.875  -7.488  13.135 -0.20 +0.00    +0.006 A  
DOCKED: ATOM     19  C   UNL     1     -38.780  -6.948  12.460 -0.19 +0.00    +0.001 A  
DOCKED: ATOM     20  C   UNL     1     -38.963  -5.882  11.578 -0.13 +0.00    +0.029 A  
DOCKED: ATOM     21  C   UNL     1     -40.238  -5.359  11.371 -0.07 +0.00    +0.140 A  
DOCKED: ATOM     22  C   UNL     1     -41.332  -5.900  12.045 -0.15 +0.00    +0.029 A  
DOCKED: ATOM     23  F   UNL     1     -40.413  -4.337  10.522 -0.03 -0.00    -0.204 F  
DOCKED: ATOM     24  C   UNL     1     -41.151  -6.965  12.929 -0.20 +0.00    +0.001 A  
DOCKED: ENDBRANCH   2  18
DOCKED: TORSDOF 5
DOCKED: TER
DOCKED: ENDMDL
________________________________________________________________________________


    FINAL DOCKED STATE:
    ________________________


Run:   286 / 512
Time taken for this run:   0.002s

DOCKED: MODEL        286
DOCKED: USER    Run = 286
DOCKED: USER
DOCKED: USER    Estimated Free Energy of Binding    =  -4.47 kcal/mol  [=(1)+(2)+(3)-(4)]
DOCKED: USER
DOCKED: USER    (1) Final Intermolecular Energy     =  -5.96 kcal/mol
DOCKED: USER        vdW + Hbond + desolv Energy     =  -5.96 kcal/mol
DOCKED: USER        Electrostatic Energy            =  +0.00 kcal/mol
DOCKED: USER        Moving Ligand-Fixed Receptor    =  -5.96 kcal/mol
DOCKED: USER        Moving Ligand-Moving Receptor   =  +0.00 kcal/mol
DOCKED: USER    (2) Final Total Internal Energy     =  -1.21 kcal/mol
DOCKED: USER    (3) Torsional Free Energy           =  +1.49 kcal/mol
DOCKED: USER    (4) Unbound System's Energy         =  -1.21 kcal/mol
DOCKED: USER
DOCKED: USER
DOCKED: REMARK  5 active torsions:
DOCKED: REMARK  status: ('A' for Active; 'I' for Inactive)
DOCKED: REMARK    1  A    between atoms: C_2  and  C_19 
DOCKED: REMARK    2  A    between atoms: C_2  and  C_11 
DOCKED: REMARK    3  A    between atoms: C_19  and  C_20 
DOCKED: REMARK    4  A    between atoms: C_20  and  C_21 
DOCKED: REMARK    5  A    between atoms: C_21  and  N_22 
DOCKED: USER                              x       y       z     vdW  Elec       q    Type
DOCKED: USER                           _______ _______ _______ _____ _____    ______ ____
DOCKED: ROOT
DOCKED: ATOM      1  O   UNL     1     -34.526 -10.536  14.406 -0.08 -0.00    -0.346 OA 
DOCKED: ATOM      2  C   UNL     1     -35.467  -9.640  13.733 -0.13 +0.00    +0.130 C  
DOCKED: ATOM      3  C   UNL     1     -36.464 -10.572  13.106 -0.18 +0.00    +0.004 A  
DOCKED: ATOM      4  C   UNL     1     -36.182 -11.878  13.480 -0.20 +0.00    +0.006 A  
DOCKED: ATOM      5  C   UNL     1     -35.005 -11.901  14.377 -0.17 +0.00    +0.169 C  
DOCKED: ATOM      6  C   UNL     1     -37.541 -10.285  12.280 -0.26 -0.00    -0.001 A  
DOCKED: ATOM      7  C   UNL     1     -36.959 -12.937  13.041 -0.35 +0.00    +0.008 A  
DOCKED: ATOM      8  C   UNL     1     -38.331 -11.342  11.826 -0.33 +0.00    +0.010 A  
DOCKED: ATOM      9  C   UNL     1     -38.041 -12.661  12.205 -0.32 +0.00    +0.068 A  
DOCKED: ATOM     10  N   UNL     1     -39.531 -14.600  11.348 -2.56 -0.00    -0.191 NA 
DOCKED: ATOM     11  C   UNL     1     -38.863 -13.731  11.732 -0.38 +0.00    +0.101 C  
DOCKED: ENDROOT
DOCKED: BRANCH   2  12
DOCKED: ATOM     12  C   UNL     1     -36.089  -8.720  14.777 -0.06 +0.00    +0.038 C  
DOCKED: BRANCH  12  13
DOCKED: ATOM     13  C   UNL     1     -35.811  -7.252  14.461 -0.04 +0.00    +0.038 C  
DOCKED: BRANCH  13  14
DOCKED: ATOM     14  C   UNL     1     -37.102  -6.509  14.122 -0.03 +0.00    +0.251 C  
DOCKED: BRANCH  14  15
DOCKED: ATOM     15  N   UNL     1     -38.034  -7.397  13.438 -0.09 +0.00    +0.141 N  
DOCKED: ATOM     16  C   UNL     1     -39.223  -7.630  14.259 -0.05 +0.00    +0.285 C  
DOCKED: ATOM     17  C   UNL     1     -38.416  -6.841  12.138 -0.11 +0.00    +0.285 C  
DOCKED: ENDBRANCH  14  15
DOCKED: ENDBRANCH  13  14
DOCKED: ENDBRANCH  12  13
DOCKED: ENDBRANCH   2  12
DOCKED: BRANCH   2  18
DOCKED: ATOM     18  C   UNL     1     -34.686  -8.863  12.727 -0.11 +0.00    +0.006 A  
DOCKED: ATOM     19  C   UNL     1     -33.314  -8.684  12.898 -0.11 +0.00    +0.001 A  
DOCKED: ATOM     20  C   UNL     1     -32.584  -7.956  11.957 -0.08 +0.00    +0.029 A  
DOCKED: ATOM     21  C   UNL     1     -33.227  -7.409  10.847 -0.08 +0.00    +0.140 A  
DOCKED: ATOM     22  C   UNL     1     -34.600  -7.589  10.677 -0.14 +0.00    +0.029 A  
DOCKED: ATOM     23  F   UNL     1     -32.526  -6.712   9.943 -0.00 -0.00    -0.204 F  
DOCKED: ATOM     24  C   UNL     1     -35.330  -8.316  11.618 -0.11 +0.00    +0.001 A  
DOCKED: ENDBRANCH   2  18
DOCKED: TORSDOF 5
DOCKED: TER
DOCKED: ENDMDL
________________________________________________________________________________


    FINAL DOCKED STATE:
    ________________________


Run:   287 / 512
Time taken for this run:   0.002s

DOCKED: MODEL        287
DOCKED: USER    Run = 287
DOCKED: USER
DOCKED: USER    Estimated Free Energy of Binding    =  -3.06 kcal/mol  [=(1)+(2)+(3)-(4)]
DOCKED: USER
DOCKED: USER    (1) Final Intermolecular Energy     =  -4.55 kcal/mol
DOCKED: USER        vdW + Hbond + desolv Energy     =  -4.55 kcal/mol
DOCKED: USER        Electrostatic Energy            =  +0.00 kcal/mol
DOCKED: USER        Moving Ligand-Fixed Receptor    =  -4.55 kcal/mol
DOCKED: USER        Moving Ligand-Moving Receptor   =  +0.00 kcal/mol
DOCKED: USER    (2) Final Total Internal Energy     =  -1.12 kcal/mol
DOCKED: USER    (3) Torsional Free Energy           =  +1.49 kcal/mol
DOCKED: USER    (4) Unbound System's Energy         =  -1.12 kcal/mol
DOCKED: USER
DOCKED: USER
DOCKED: REMARK  5 active torsions:
DOCKED: REMARK  status: ('A' for Active; 'I' for Inactive)
DOCKED: REMARK    1  A    between atoms: C_2  and  C_19 
DOCKED: REMARK    2  A    between atoms: C_2  and  C_11 
DOCKED: REMARK    3  A    between atoms: C_19  and  C_20 
DOCKED: REMARK    4  A    between atoms: C_20  and  C_21 
DOCKED: REMARK    5  A    between atoms: C_21  and  N_22 
DOCKED: USER                              x       y       z     vdW  Elec       q    Type
DOCKED: USER                           _______ _______ _______ _____ _____    ______ ____
DOCKED: ROOT
DOCKED: ATOM      1  O   UNL     1     -32.703  -4.617   7.734 -0.02 -0.00    -0.346 OA 
DOCKED: ATOM      2  C   UNL     1     -33.688  -5.106   6.769 -0.11 +0.00    +0.130 C  
DOCKED: ATOM      3  C   UNL     1     -34.960  -4.418   7.173 -0.21 +0.00    +0.004 A  
DOCKED: ATOM      4  C   UNL     1     -34.702  -3.530   8.208 -0.19 +0.00    +0.006 A  
DOCKED: ATOM      5  C   UNL     1     -33.261  -3.558   8.546 -0.12 +0.00    +0.169 C  
DOCKED: ATOM      6  C   UNL     1     -36.241  -4.559   6.659 -0.29 -0.00    -0.001 A  
DOCKED: ATOM      7  C   UNL     1     -35.708  -2.759   8.764 -0.21 +0.00    +0.008 A  
DOCKED: ATOM      8  C   UNL     1     -37.267  -3.791   7.212 -0.27 +0.00    +0.010 A  
DOCKED: ATOM      9  C   UNL     1     -37.002  -2.896   8.259 -0.27 +0.00    +0.068 A  
DOCKED: ATOM     10  N   UNL     1     -38.930  -1.483   9.259 -0.12 -0.00    -0.191 NA 
DOCKED: ATOM     11  C   UNL     1     -38.065  -2.117   8.811 -0.27 +0.00    +0.101 C  
DOCKED: ENDROOT
DOCKED: BRANCH   2  12
DOCKED: ATOM     12  C   UNL     1     -33.225  -4.722   5.369 -0.14 +0.00    +0.038 C  
DOCKED: BRANCH  12  13
DOCKED: ATOM     13  C   UNL     1     -33.620  -3.287   5.026 -0.18 +0.00    +0.038 C  
DOCKED: BRANCH  13  14
DOCKED: ATOM     14  C   UNL     1     -34.681  -3.257   3.928 -0.21 +0.00    +0.251 C  
DOCKED: BRANCH  14  15
DOCKED: ATOM     15  N   UNL     1     -34.872  -1.895   3.444 -0.26 +0.00    +0.141 N  
DOCKED: ATOM     16  C   UNL     1     -33.609  -1.156   3.471 -0.15 +0.00    +0.285 C  
DOCKED: ATOM     17  C   UNL     1     -35.426  -1.903   2.089 -0.27 +0.00    +0.285 C  
DOCKED: ENDBRANCH  14  15
DOCKED: ENDBRANCH  13  14
DOCKED: ENDBRANCH  12  13
DOCKED: ENDBRANCH   2  12
DOCKED: BRANCH   2  18
DOCKED: ATOM     18  C   UNL     1     -33.754  -6.589   6.926 -0.13 +0.00    +0.006 A  
DOCKED: ATOM     19  C   UNL     1     -34.103  -7.144   8.157 -0.14 +0.00    +0.001 A  
DOCKED: ATOM     20  C   UNL     1     -34.164  -8.531   8.303 -0.22 +0.00    +0.029 A  
DOCKED: ATOM     21  C   UNL     1     -33.877  -9.359   7.219 -0.26 +0.00    +0.140 A  
DOCKED: ATOM     22  C   UNL     1     -33.528  -8.803   5.988 -0.18 +0.00    +0.029 A  
DOCKED: ATOM     23  F   UNL     1     -33.937 -10.690   7.359 -0.14 -0.00    -0.204 F  
DOCKED: ATOM     24  C   UNL     1     -33.467  -7.416   5.842 -0.18 +0.00    +0.001 A  
DOCKED: ENDBRANCH   2  18
DOCKED: TORSDOF 5
DOCKED: TER
DOCKED: ENDMDL
________________________________________________________________________________


    FINAL DOCKED STATE:
    ________________________


Run:   288 / 512
Time taken for this run:   0.002s

DOCKED: MODEL        288
DOCKED: USER    Run = 288
DOCKED: USER
DOCKED: USER    Estimated Free Energy of Binding    =  -5.85 kcal/mol  [=(1)+(2)+(3)-(4)]
DOCKED: USER
DOCKED: USER    (1) Final Intermolecular Energy     =  -7.34 kcal/mol
DOCKED: USER        vdW + Hbond + desolv Energy     =  -7.34 kcal/mol
DOCKED: USER        Electrostatic Energy            =  +0.00 kcal/mol
DOCKED: USER        Moving Ligand-Fixed Receptor    =  -7.34 kcal/mol
DOCKED: USER        Moving Ligand-Moving Receptor   =  +0.00 kcal/mol
DOCKED: USER    (2) Final Total Internal Energy     =  -0.91 kcal/mol
DOCKED: USER    (3) Torsional Free Energy           =  +1.49 kcal/mol
DOCKED: USER    (4) Unbound System's Energy         =  -0.91 kcal/mol
DOCKED: USER
DOCKED: USER
DOCKED: REMARK  5 active torsions:
DOCKED: REMARK  status: ('A' for Active; 'I' for Inactive)
DOCKED: REMARK    1  A    between atoms: C_2  and  C_19 
DOCKED: REMARK    2  A    between atoms: C_2  and  C_11 
DOCKED: REMARK    3  A    between atoms: C_19  and  C_20 
DOCKED: REMARK    4  A    between atoms: C_20  and  C_21 
DOCKED: REMARK    5  A    between atoms: C_21  and  N_22 
DOCKED: USER                              x       y       z     vdW  Elec       q    Type
DOCKED: USER                           _______ _______ _______ _____ _____    ______ ____
DOCKED: ROOT
DOCKED: ATOM      1  O   UNL     1     -36.225 -14.482  13.720 -0.19 -0.00    -0.346 OA 
DOCKED: ATOM      2  C   UNL     1     -37.003 -13.259  13.927 -0.28 +0.00    +0.130 C  
DOCKED: ATOM      3  C   UNL     1     -37.653 -13.017  12.595 -0.37 +0.00    +0.004 A  
DOCKED: ATOM      4  C   UNL     1     -37.363 -14.068  11.736 -0.38 +0.00    +0.006 A  
DOCKED: ATOM      5  C   UNL     1     -36.524 -15.069  12.432 -0.25 +0.00    +0.169 C  
DOCKED: ATOM      6  C   UNL     1     -38.447 -11.958  12.181 -0.33 -0.00    -0.001 A  
DOCKED: ATOM      7  C   UNL     1     -37.849 -14.094  10.440 -0.14 +0.00    +0.008 A  
DOCKED: ATOM      8  C   UNL     1     -38.942 -11.968  10.876 -0.23 +0.00    +0.010 A  
DOCKED: ATOM      9  C   UNL     1     -38.644 -13.031  10.010 -0.43 +0.00    +0.068 A  
DOCKED: ATOM     10  N   UNL     1     -39.582 -13.020   7.595 -3.17 -0.00    -0.191 NA 
DOCKED: ATOM     11  C   UNL     1     -39.161 -13.025   8.678 -0.43 +0.00    +0.101 C  
DOCKED: ENDROOT
DOCKED: BRANCH   2  12
DOCKED: ATOM     12  C   UNL     1     -38.011 -13.511  15.042 -0.27 +0.00    +0.038 C  
DOCKED: BRANCH  12  13
DOCKED: ATOM     13  C   UNL     1     -39.366 -12.885  14.720 -0.19 +0.00    +0.038 C  
DOCKED: BRANCH  13  14
DOCKED: ATOM     14  C   UNL     1     -40.312 -12.975  15.916 -0.07 +0.00    +0.251 C  
DOCKED: BRANCH  14  15
DOCKED: ATOM     15  N   UNL     1     -40.654 -11.641  16.393 -0.03 +0.00    +0.141 N  
DOCKED: ATOM     16  C   UNL     1     -39.700 -11.196  17.410 -0.00 +0.00    +0.285 C  
DOCKED: ATOM     17  C   UNL     1     -40.692 -10.689  15.282 -0.01 +0.00    +0.285 C  
DOCKED: ENDBRANCH  14  15
DOCKED: ENDBRANCH  13  14
DOCKED: ENDBRANCH  12  13
DOCKED: ENDBRANCH   2  12
DOCKED: BRANCH   2  18
DOCKED: ATOM     18  C   UNL     1     -36.037 -12.187  14.306 -0.23 +0.00    +0.006 A  
DOCKED: ATOM     19  C   UNL     1     -36.489 -11.043  14.963 -0.13 +0.00    +0.001 A  
DOCKED: ATOM     20  C   UNL     1     -35.585 -10.041  15.317 -0.07 +0.00    +0.029 A  
DOCKED: ATOM     21  C   UNL     1     -34.231 -10.183  15.013 -0.08 +0.00    +0.140 A  
DOCKED: ATOM     22  C   UNL     1     -33.781 -11.328  14.356 -0.16 +0.00    +0.029 A  
DOCKED: ATOM     23  F   UNL     1     -33.364  -9.222  15.355 -0.00 -0.00    -0.204 F  
DOCKED: ATOM     24  C   UNL     1     -34.684 -12.331  14.001 +0.08 +0.00    +0.001 A  
DOCKED: ENDBRANCH   2  18
DOCKED: TORSDOF 5
DOCKED: TER
DOCKED: ENDMDL
________________________________________________________________________________


    FINAL DOCKED STATE:
    ________________________


Run:   289 / 512
Time taken for this run:   0.002s

DOCKED: MODEL        289
DOCKED: USER    Run = 289
DOCKED: USER
DOCKED: USER    Estimated Free Energy of Binding    =  -3.54 kcal/mol  [=(1)+(2)+(3)-(4)]
DOCKED: USER
DOCKED: USER    (1) Final Intermolecular Energy     =  -5.03 kcal/mol
DOCKED: USER        vdW + Hbond + desolv Energy     =  -5.03 kcal/mol
DOCKED: USER        Electrostatic Energy            =  +0.00 kcal/mol
DOCKED: USER        Moving Ligand-Fixed Receptor    =  -5.03 kcal/mol
DOCKED: USER        Moving Ligand-Moving Receptor   =  +0.00 kcal/mol
DOCKED: USER    (2) Final Total Internal Energy     =  -0.99 kcal/mol
DOCKED: USER    (3) Torsional Free Energy           =  +1.49 kcal/mol
DOCKED: USER    (4) Unbound System's Energy         =  -0.99 kcal/mol
DOCKED: USER
DOCKED: USER
DOCKED: REMARK  5 active torsions:
DOCKED: REMARK  status: ('A' for Active; 'I' for Inactive)
DOCKED: REMARK    1  A    between atoms: C_2  and  C_19 
DOCKED: REMARK    2  A    between atoms: C_2  and  C_11 
DOCKED: REMARK    3  A    between atoms: C_19  and  C_20 
DOCKED: REMARK    4  A    between atoms: C_20  and  C_21 
DOCKED: REMARK    5  A    between atoms: C_21  and  N_22 
DOCKED: USER                              x       y       z     vdW  Elec       q    Type
DOCKED: USER                           _______ _______ _______ _____ _____    ______ ____
DOCKED: ROOT
DOCKED: ATOM      1  O   UNL     1     -36.544 -11.732  13.468 -0.13 -0.00    -0.346 OA 
DOCKED: ATOM      2  C   UNL     1     -37.999 -11.803  13.599 -0.19 +0.00    +0.130 C  
DOCKED: ATOM      3  C   UNL     1     -38.209 -12.572  14.871 -0.16 +0.00    +0.004 A  
DOCKED: ATOM      4  C   UNL     1     -36.984 -12.824  15.472 -0.17 +0.00    +0.006 A  
DOCKED: ATOM      5  C   UNL     1     -35.895 -12.236  14.659 -0.16 +0.00    +0.169 C  
DOCKED: ATOM      6  C   UNL     1     -39.390 -13.005  15.456 -0.15 -0.00    -0.001 A  
DOCKED: ATOM      7  C   UNL     1     -36.896 -13.516  16.668 -0.18 +0.00    +0.008 A  
DOCKED: ATOM      8  C   UNL     1     -39.318 -13.708  16.660 -0.15 +0.00    +0.010 A  
DOCKED: ATOM      9  C   UNL     1     -38.077 -13.962  17.263 -0.17 +0.00    +0.068 A  
DOCKED: ATOM     10  N   UNL     1     -37.980 -15.265  19.500 -0.13 -0.00    -0.191 NA 
DOCKED: ATOM     11  C   UNL     1     -38.023 -14.681  18.496 -0.21 +0.00    +0.101 C  
DOCKED: ENDROOT
DOCKED: BRANCH   2  12
DOCKED: ATOM     12  C   UNL     1     -38.547 -10.382  13.668 -0.18 +0.00    +0.038 C  
DOCKED: BRANCH  12  13
DOCKED: ATOM     13  C   UNL     1     -38.094  -9.552  12.469 -0.25 +0.00    +0.038 C  
DOCKED: BRANCH  13  14
DOCKED: ATOM     14  C   UNL     1     -37.920  -8.083  12.851 -0.14 +0.00    +0.251 C  
DOCKED: BRANCH  14  15
DOCKED: ATOM     15  N   UNL     1     -38.910  -7.260  12.166 -0.18 +0.00    +0.141 N  
DOCKED: ATOM     16  C   UNL     1     -40.264  -7.629  12.581 -0.15 +0.00    +0.285 C  
DOCKED: ATOM     17  C   UNL     1     -38.669  -5.840  12.427 -0.11 +0.00    +0.285 C  
DOCKED: ENDBRANCH  14  15
DOCKED: ENDBRANCH  13  14
DOCKED: ENDBRANCH  12  13
DOCKED: ENDBRANCH   2  12
DOCKED: BRANCH   2  18
DOCKED: ATOM     18  C   UNL     1     -38.512 -12.519  12.395 -0.32 +0.00    +0.006 A  
DOCKED: ATOM     19  C   UNL     1     -37.684 -13.404  11.706 -0.42 +0.00    +0.001 A  
DOCKED: ATOM     20  C   UNL     1     -38.164 -14.073  10.579 -0.43 +0.00    +0.029 A  
DOCKED: ATOM     21  C   UNL     1     -39.471 -13.857  10.145 -0.34 +0.00    +0.140 A  
DOCKED: ATOM     22  C   UNL     1     -40.299 -12.972  10.835 -0.34 +0.00    +0.029 A  
DOCKED: ATOM     23  F   UNL     1     -39.933 -14.501   9.065 -0.04 -0.00    -0.204 F  
DOCKED: ATOM     24  C   UNL     1     -39.819 -12.302  11.962 -0.29 +0.00    +0.001 A  
DOCKED: ENDBRANCH   2  18
DOCKED: TORSDOF 5
DOCKED: TER
DOCKED: ENDMDL
________________________________________________________________________________


    FINAL DOCKED STATE:
    ________________________


Run:   290 / 512
Time taken for this run:   0.002s

DOCKED: MODEL        290
DOCKED: USER    Run = 290
DOCKED: USER
DOCKED: USER    Estimated Free Energy of Binding    =  -3.90 kcal/mol  [=(1)+(2)+(3)-(4)]
DOCKED: USER
DOCKED: USER    (1) Final Intermolecular Energy     =  -5.40 kcal/mol
DOCKED: USER        vdW + Hbond + desolv Energy     =  -5.40 kcal/mol
DOCKED: USER        Electrostatic Energy            =  +0.00 kcal/mol
DOCKED: USER        Moving Ligand-Fixed Receptor    =  -5.40 kcal/mol
DOCKED: USER        Moving Ligand-Moving Receptor   =  +0.00 kcal/mol
DOCKED: USER    (2) Final Total Internal Energy     =  -1.14 kcal/mol
DOCKED: USER    (3) Torsional Free Energy           =  +1.49 kcal/mol
DOCKED: USER    (4) Unbound System's Energy         =  -1.14 kcal/mol
DOCKED: USER
DOCKED: USER
DOCKED: REMARK  5 active torsions:
DOCKED: REMARK  status: ('A' for Active; 'I' for Inactive)
DOCKED: REMARK    1  A    between atoms: C_2  and  C_19 
DOCKED: REMARK    2  A    between atoms: C_2  and  C_11 
DOCKED: REMARK    3  A    between atoms: C_19  and  C_20 
DOCKED: REMARK    4  A    between atoms: C_20  and  C_21 
DOCKED: REMARK    5  A    between atoms: C_21  and  N_22 
DOCKED: USER                              x       y       z     vdW  Elec       q    Type
DOCKED: USER                           _______ _______ _______ _____ _____    ______ ____
DOCKED: ROOT
DOCKED: ATOM      1  O   UNL     1     -37.303  -9.891  15.710 -0.00 -0.00    -0.346 OA 
DOCKED: ATOM      2  C   UNL     1     -36.980  -9.424  14.361 -0.09 +0.00    +0.130 C  
DOCKED: ATOM      3  C   UNL     1     -37.461 -10.534  13.471 -0.20 +0.00    +0.004 A  
DOCKED: ATOM      4  C   UNL     1     -38.102 -11.499  14.234 -0.14 +0.00    +0.006 A  
DOCKED: ATOM      5  C   UNL     1     -38.102 -11.096  15.659 -0.05 +0.00    +0.169 C  
DOCKED: ATOM      6  C   UNL     1     -37.350 -10.672  12.096 -0.25 -0.00    -0.001 A  
DOCKED: ATOM      7  C   UNL     1     -38.648 -12.632  13.654 -0.21 +0.00    +0.008 A  
DOCKED: ATOM      8  C   UNL     1     -37.892 -11.810  11.496 -0.30 +0.00    +0.010 A  
DOCKED: ATOM      9  C   UNL     1     -38.537 -12.785  12.271 -0.29 +0.00    +0.068 A  
DOCKED: ATOM     10  N   UNL     1     -39.535 -14.883  11.125 -2.44 -0.00    -0.191 NA 
DOCKED: ATOM     11  C   UNL     1     -39.087 -13.942  11.639 -0.32 +0.00    +0.101 C  
DOCKED: ENDROOT
DOCKED: BRANCH   2  12
DOCKED: ATOM     12  C   UNL     1     -37.711  -8.109  14.118 -0.09 +0.00    +0.038 C  
DOCKED: BRANCH  12  13
DOCKED: ATOM     13  C   UNL     1     -38.841  -8.279  13.104 -0.21 +0.00    +0.038 C  
DOCKED: BRANCH  13  14
DOCKED: ATOM     14  C   UNL     1     -40.074  -7.476  13.516 -0.12 +0.00    +0.251 C  
DOCKED: BRANCH  14  15
DOCKED: ATOM     15  N   UNL     1     -41.224  -8.358  13.674 -0.12 +0.00    +0.141 N  
DOCKED: ATOM     16  C   UNL     1     -40.972  -9.354  14.717 -0.03 +0.00    +0.285 C  
DOCKED: ATOM     17  C   UNL     1     -42.427  -7.586  13.989 -0.05 +0.00    +0.285 C  
DOCKED: ENDBRANCH  14  15
DOCKED: ENDBRANCH  13  14
DOCKED: ENDBRANCH  12  13
DOCKED: ENDBRANCH   2  12
DOCKED: BRANCH   2  18
DOCKED: ATOM     18  C   UNL     1     -35.501  -9.236  14.307 -0.10 +0.00    +0.006 A  
DOCKED: ATOM     19  C   UNL     1     -34.969  -7.980  14.018 -0.06 +0.00    +0.001 A  
DOCKED: ATOM     20  C   UNL     1     -33.585  -7.805  13.968 -0.04 +0.00    +0.029 A  
DOCKED: ATOM     21  C   UNL     1     -32.737  -8.885  14.207 -0.05 +0.00    +0.140 A  
DOCKED: ATOM     22  C   UNL     1     -33.270 -10.141  14.497 -0.11 +0.00    +0.029 A  
DOCKED: ATOM     23  F   UNL     1     -31.409  -8.716  14.161 -0.00 -0.00    -0.204 F  
DOCKED: ATOM     24  C   UNL     1     -34.654 -10.317  14.546 -0.13 +0.00    +0.001 A  
DOCKED: ENDBRANCH   2  18
DOCKED: TORSDOF 5
DOCKED: TER
DOCKED: ENDMDL
________________________________________________________________________________


    FINAL DOCKED STATE:
    ________________________


Run:   291 / 512
Time taken for this run:   0.002s

DOCKED: MODEL        291
DOCKED: USER    Run = 291
DOCKED: USER
DOCKED: USER    Estimated Free Energy of Binding    =  -5.15 kcal/mol  [=(1)+(2)+(3)-(4)]
DOCKED: USER
DOCKED: USER    (1) Final Intermolecular Energy     =  -6.64 kcal/mol
DOCKED: USER        vdW + Hbond + desolv Energy     =  -6.64 kcal/mol
DOCKED: USER        Electrostatic Energy            =  +0.00 kcal/mol
DOCKED: USER        Moving Ligand-Fixed Receptor    =  -6.64 kcal/mol
DOCKED: USER        Moving Ligand-Moving Receptor   =  +0.00 kcal/mol
DOCKED: USER    (2) Final Total Internal Energy     =  -1.38 kcal/mol
DOCKED: USER    (3) Torsional Free Energy           =  +1.49 kcal/mol
DOCKED: USER    (4) Unbound System's Energy         =  -1.38 kcal/mol
DOCKED: USER
DOCKED: USER
DOCKED: REMARK  5 active torsions:
DOCKED: REMARK  status: ('A' for Active; 'I' for Inactive)
DOCKED: REMARK    1  A    between atoms: C_2  and  C_19 
DOCKED: REMARK    2  A    between atoms: C_2  and  C_11 
DOCKED: REMARK    3  A    between atoms: C_19  and  C_20 
DOCKED: REMARK    4  A    between atoms: C_20  and  C_21 
DOCKED: REMARK    5  A    between atoms: C_21  and  N_22 
DOCKED: USER                              x       y       z     vdW  Elec       q    Type
DOCKED: USER                           _______ _______ _______ _____ _____    ______ ____
DOCKED: ROOT
DOCKED: ATOM      1  O   UNL     1     -38.137 -10.572  13.877 -0.03 -0.00    -0.346 OA 
DOCKED: ATOM      2  C   UNL     1     -37.424 -11.850  13.843 -0.20 +0.00    +0.130 C  
DOCKED: ATOM      3  C   UNL     1     -37.845 -12.463  12.539 -0.34 +0.00    +0.004 A  
DOCKED: ATOM      4  C   UNL     1     -38.641 -11.567  11.838 -0.33 +0.00    +0.006 A  
DOCKED: ATOM      5  C   UNL     1     -38.788 -10.314  12.611 -0.21 +0.00    +0.169 C  
DOCKED: ATOM      6  C   UNL     1     -37.540 -13.708  12.010 -0.42 -0.00    -0.001 A  
DOCKED: ATOM      7  C   UNL     1     -39.159 -11.885  10.594 +0.12 +0.00    +0.008 A  
DOCKED: ATOM      8  C   UNL     1     -38.059 -14.045  10.759 -0.44 +0.00    +0.010 A  
DOCKED: ATOM      9  C   UNL     1     -38.864 -13.138  10.054 -0.45 +0.00    +0.068 A  
DOCKED: ATOM     10  N   UNL     1     -39.806 -13.792   7.731 -2.61 -0.00    -0.191 NA 
DOCKED: ATOM     11  C   UNL     1     -39.384 -13.499   8.773 -0.36 +0.00    +0.101 C  
DOCKED: ENDROOT
DOCKED: BRANCH   2  12
DOCKED: ATOM     12  C   UNL     1     -35.927 -11.570  13.911 -0.23 +0.00    +0.038 C  
DOCKED: BRANCH  12  13
DOCKED: ATOM     13  C   UNL     1     -35.621 -10.104  13.611 -0.16 +0.00    +0.038 C  
DOCKED: BRANCH  13  14
DOCKED: ATOM     14  C   UNL     1     -35.562  -9.280  14.896 -0.05 +0.00    +0.251 C  
DOCKED: BRANCH  14  15
DOCKED: ATOM     15  N   UNL     1     -36.814  -8.558  15.093 -0.03 +0.00    +0.141 N  
DOCKED: ATOM     16  C   UNL     1     -36.907  -8.051  16.463 -0.00 +0.00    +0.285 C  
DOCKED: ATOM     17  C   UNL     1     -36.930  -7.458  14.135 -0.03 +0.00    +0.285 C  
DOCKED: ENDBRANCH  14  15
DOCKED: ENDBRANCH  13  14
DOCKED: ENDBRANCH  12  13
DOCKED: ENDBRANCH   2  12
DOCKED: BRANCH   2  18
DOCKED: ATOM     18  C   UNL     1     -37.879 -12.635  15.028 -0.17 +0.00    +0.006 A  
DOCKED: ATOM     19  C   UNL     1     -39.196 -12.523  15.474 -0.12 +0.00    +0.001 A  
DOCKED: ATOM     20  C   UNL     1     -39.620 -13.257  16.582 -0.13 +0.00    +0.029 A  
DOCKED: ATOM     21  C   UNL     1     -38.728 -14.101  17.243 -0.06 +0.00    +0.140 A  
DOCKED: ATOM     22  C   UNL     1     -37.411 -14.212  16.796 -0.23 +0.00    +0.029 A  
DOCKED: ATOM     23  F   UNL     1     -39.136 -14.807  18.305 -0.03 -0.00    -0.204 F  
DOCKED: ATOM     24  C   UNL     1     -36.986 -13.478  15.688 -0.12 +0.00    +0.001 A  
DOCKED: ENDBRANCH   2  18
DOCKED: TORSDOF 5
DOCKED: TER
DOCKED: ENDMDL
________________________________________________________________________________


    FINAL DOCKED STATE:
    ________________________


Run:   292 / 512
Time taken for this run:   0.002s

DOCKED: MODEL        292
DOCKED: USER    Run = 292
DOCKED: USER
DOCKED: USER    Estimated Free Energy of Binding    =  -4.04 kcal/mol  [=(1)+(2)+(3)-(4)]
DOCKED: USER
DOCKED: USER    (1) Final Intermolecular Energy     =  -5.54 kcal/mol
DOCKED: USER        vdW + Hbond + desolv Energy     =  -5.54 kcal/mol
DOCKED: USER        Electrostatic Energy            =  +0.00 kcal/mol
DOCKED: USER        Moving Ligand-Fixed Receptor    =  -5.54 kcal/mol
DOCKED: USER        Moving Ligand-Moving Receptor   =  +0.00 kcal/mol
DOCKED: USER    (2) Final Total Internal Energy     =  -1.37 kcal/mol
DOCKED: USER    (3) Torsional Free Energy           =  +1.49 kcal/mol
DOCKED: USER    (4) Unbound System's Energy         =  -1.37 kcal/mol
DOCKED: USER
DOCKED: USER
DOCKED: REMARK  5 active torsions:
DOCKED: REMARK  status: ('A' for Active; 'I' for Inactive)
DOCKED: REMARK    1  A    between atoms: C_2  and  C_19 
DOCKED: REMARK    2  A    between atoms: C_2  and  C_11 
DOCKED: REMARK    3  A    between atoms: C_19  and  C_20 
DOCKED: REMARK    4  A    between atoms: C_20  and  C_21 
DOCKED: REMARK    5  A    between atoms: C_21  and  N_22 
DOCKED: USER                              x       y       z     vdW  Elec       q    Type
DOCKED: USER                           _______ _______ _______ _____ _____    ______ ____
DOCKED: ROOT
DOCKED: ATOM      1  O   UNL     1     -40.415  -8.229  13.827 -0.05 -0.00    -0.346 OA 
DOCKED: ATOM      2  C   UNL     1     -39.064  -8.309  13.270 -0.18 +0.00    +0.130 C  
DOCKED: ATOM      3  C   UNL     1     -38.954  -9.730  12.796 -0.23 +0.00    +0.004 A  
DOCKED: ATOM      4  C   UNL     1     -40.172 -10.374  12.966 -0.22 +0.00    +0.006 A  
DOCKED: ATOM      5  C   UNL     1     -41.160  -9.436  13.543 -0.15 +0.00    +0.169 C  
DOCKED: ATOM      6  C   UNL     1     -37.868 -10.395  12.248 -0.28 -0.00    -0.001 A  
DOCKED: ATOM      7  C   UNL     1     -40.343 -11.698  12.601 -0.23 +0.00    +0.008 A  
DOCKED: ATOM      8  C   UNL     1     -38.023 -11.732  11.879 -0.35 +0.00    +0.010 A  
DOCKED: ATOM      9  C   UNL     1     -39.255 -12.380  12.054 -0.26 +0.00    +0.068 A  
DOCKED: ATOM     10  N   UNL     1     -39.512 -14.861  11.353 -2.55 -0.00    -0.191 NA 
DOCKED: ATOM     11  C   UNL     1     -39.397 -13.749  11.668 -0.36 +0.00    +0.101 C  
DOCKED: ENDROOT
DOCKED: BRANCH   2  12
DOCKED: ATOM     12  C   UNL     1     -38.948  -7.296  12.138 -0.15 +0.00    +0.038 C  
DOCKED: BRANCH  12  13
DOCKED: ATOM     13  C   UNL     1     -40.156  -6.362  12.100 -0.20 +0.00    +0.038 C  
DOCKED: BRANCH  13  14
DOCKED: ATOM     14  C   UNL     1     -39.719  -4.900  12.042 -0.09 +0.00    +0.251 C  
DOCKED: BRANCH  14  15
DOCKED: ATOM     15  N   UNL     1     -38.759  -4.615  13.101 -0.03 +0.00    +0.141 N  
DOCKED: ATOM     16  C   UNL     1     -38.031  -3.377  12.818 -0.01 +0.00    +0.285 C  
DOCKED: ATOM     17  C   UNL     1     -39.432  -4.523  14.397 -0.00 +0.00    +0.285 C  
DOCKED: ENDBRANCH  14  15
DOCKED: ENDBRANCH  13  14
DOCKED: ENDBRANCH  12  13
DOCKED: ENDBRANCH   2  12
DOCKED: BRANCH   2  18
DOCKED: ATOM     18  C   UNL     1     -38.115  -7.991  14.377 -0.07 +0.00    +0.006 A  
DOCKED: ATOM     19  C   UNL     1     -36.766  -7.776  14.098 -0.07 +0.00    +0.001 A  
DOCKED: ATOM     20  C   UNL     1     -35.880  -7.479  15.135 -0.02 +0.00    +0.029 A  
DOCKED: ATOM     21  C   UNL     1     -36.344  -7.396  16.447 -0.00 +0.00    +0.140 A  
DOCKED: ATOM     22  C   UNL     1     -37.694  -7.610  16.724 -0.00 +0.00    +0.029 A  
DOCKED: ATOM     23  F   UNL     1     -35.494  -7.108  17.441 -0.00 -0.00    -0.204 F  
DOCKED: ATOM     24  C   UNL     1     -38.581  -7.908  15.689 -0.02 +0.00    +0.001 A  
DOCKED: ENDBRANCH   2  18
DOCKED: TORSDOF 5
DOCKED: TER
DOCKED: ENDMDL
________________________________________________________________________________


    FINAL DOCKED STATE:
    ________________________


Run:   293 / 512
Time taken for this run:   0.002s

DOCKED: MODEL        293
DOCKED: USER    Run = 293
DOCKED: USER
DOCKED: USER    Estimated Free Energy of Binding    =  -5.45 kcal/mol  [=(1)+(2)+(3)-(4)]
DOCKED: USER
DOCKED: USER    (1) Final Intermolecular Energy     =  -6.94 kcal/mol
DOCKED: USER        vdW + Hbond + desolv Energy     =  -6.94 kcal/mol
DOCKED: USER        Electrostatic Energy            =  +0.00 kcal/mol
DOCKED: USER        Moving Ligand-Fixed Receptor    =  -6.94 kcal/mol
DOCKED: USER        Moving Ligand-Moving Receptor   =  +0.00 kcal/mol
DOCKED: USER    (2) Final Total Internal Energy     =  -1.61 kcal/mol
DOCKED: USER    (3) Torsional Free Energy           =  +1.49 kcal/mol
DOCKED: USER    (4) Unbound System's Energy         =  -1.61 kcal/mol
DOCKED: USER
DOCKED: USER
DOCKED: REMARK  5 active torsions:
DOCKED: REMARK  status: ('A' for Active; 'I' for Inactive)
DOCKED: REMARK    1  A    between atoms: C_2  and  C_19 
DOCKED: REMARK    2  A    between atoms: C_2  and  C_11 
DOCKED: REMARK    3  A    between atoms: C_19  and  C_20 
DOCKED: REMARK    4  A    between atoms: C_20  and  C_21 
DOCKED: REMARK    5  A    between atoms: C_21  and  N_22 
DOCKED: USER                              x       y       z     vdW  Elec       q    Type
DOCKED: USER                           _______ _______ _______ _____ _____    ______ ____
DOCKED: ROOT
DOCKED: ATOM      1  O   UNL     1     -37.250 -10.728  13.237 -0.10 -0.00    -0.346 OA 
DOCKED: ATOM      2  C   UNL     1     -37.741 -12.067  13.564 -0.21 +0.00    +0.130 C  
DOCKED: ATOM      3  C   UNL     1     -38.292 -12.575  12.263 -0.35 +0.00    +0.004 A  
DOCKED: ATOM      4  C   UNL     1     -38.039 -11.654  11.257 -0.31 +0.00    +0.006 A  
DOCKED: ATOM      5  C   UNL     1     -37.302 -10.495  11.810 -0.02 +0.00    +0.169 C  
DOCKED: ATOM      6  C   UNL     1     -38.954 -13.763  11.990 -0.33 -0.00    -0.001 A  
DOCKED: ATOM      7  C   UNL     1     -38.440 -11.884   9.952 -0.15 +0.00    +0.008 A  
DOCKED: ATOM      8  C   UNL     1     -39.369 -14.008  10.679 -0.46 +0.00    +0.010 A  
DOCKED: ATOM      9  C   UNL     1     -39.112 -13.073   9.666 -0.45 +0.00    +0.068 A  
DOCKED: ATOM     10  N   UNL     1     -39.891 -13.559   7.243 -3.15 -0.00    -0.191 NA 
DOCKED: ATOM     11  C   UNL     1     -39.542 -13.341   8.330 -0.25 +0.00    +0.101 C  
DOCKED: ENDROOT
DOCKED: BRANCH   2  12
DOCKED: ATOM     12  C   UNL     1     -36.571 -12.898  14.078 -0.29 +0.00    +0.038 C  
DOCKED: BRANCH  12  13
DOCKED: ATOM     13  C   UNL     1     -35.376 -12.017  14.434 -0.23 +0.00    +0.038 C  
DOCKED: BRANCH  13  14
DOCKED: ATOM     14  C   UNL     1     -35.462 -11.532  15.880 -0.08 +0.00    +0.251 C  
DOCKED: BRANCH  14  15
DOCKED: ATOM     15  N   UNL     1     -36.275 -10.325  15.962 -0.03 +0.00    +0.141 N  
DOCKED: ATOM     16  C   UNL     1     -36.670 -10.062  17.347 -0.01 +0.00    +0.285 C  
DOCKED: ATOM     17  C   UNL     1     -35.549  -9.176  15.416 -0.02 +0.00    +0.285 C  
DOCKED: ENDBRANCH  14  15
DOCKED: ENDBRANCH  13  14
DOCKED: ENDBRANCH  12  13
DOCKED: ENDBRANCH   2  12
DOCKED: BRANCH   2  18
DOCKED: ATOM     18  C   UNL     1     -38.788 -11.904  14.615 -0.12 +0.00    +0.006 A  
DOCKED: ATOM     19  C   UNL     1     -38.975 -12.900  15.572 -0.15 +0.00    +0.001 A  
DOCKED: ATOM     20  C   UNL     1     -39.955 -12.746  16.554 -0.09 +0.00    +0.029 A  
DOCKED: ATOM     21  C   UNL     1     -40.744 -11.597  16.577 -0.02 +0.00    +0.140 A  
DOCKED: ATOM     22  C   UNL     1     -40.556 -10.601  15.619 -0.04 +0.00    +0.029 A  
DOCKED: ATOM     23  F   UNL     1     -41.683 -11.448  17.521 +0.01 -0.00    -0.204 F  
DOCKED: ATOM     24  C   UNL     1     -39.577 -10.754  14.636 -0.08 +0.00    +0.001 A  
DOCKED: ENDBRANCH   2  18
DOCKED: TORSDOF 5
DOCKED: TER
DOCKED: ENDMDL
________________________________________________________________________________


    FINAL DOCKED STATE:
    ________________________


Run:   294 / 512
Time taken for this run:   0.002s

DOCKED: MODEL        294
DOCKED: USER    Run = 294
DOCKED: USER
DOCKED: USER    Estimated Free Energy of Binding    =  -5.76 kcal/mol  [=(1)+(2)+(3)-(4)]
DOCKED: USER
DOCKED: USER    (1) Final Intermolecular Energy     =  -7.25 kcal/mol
DOCKED: USER        vdW + Hbond + desolv Energy     =  -7.25 kcal/mol
DOCKED: USER        Electrostatic Energy            =  +0.00 kcal/mol
DOCKED: USER        Moving Ligand-Fixed Receptor    =  -7.25 kcal/mol
DOCKED: USER        Moving Ligand-Moving Receptor   =  +0.00 kcal/mol
DOCKED: USER    (2) Final Total Internal Energy     =  -1.19 kcal/mol
DOCKED: USER    (3) Torsional Free Energy           =  +1.49 kcal/mol
DOCKED: USER    (4) Unbound System's Energy         =  -1.19 kcal/mol
DOCKED: USER
DOCKED: USER
DOCKED: REMARK  5 active torsions:
DOCKED: REMARK  status: ('A' for Active; 'I' for Inactive)
DOCKED: REMARK    1  A    between atoms: C_2  and  C_19 
DOCKED: REMARK    2  A    between atoms: C_2  and  C_11 
DOCKED: REMARK    3  A    between atoms: C_19  and  C_20 
DOCKED: REMARK    4  A    between atoms: C_20  and  C_21 
DOCKED: REMARK    5  A    between atoms: C_21  and  N_22 
DOCKED: USER                              x       y       z     vdW  Elec       q    Type
DOCKED: USER                           _______ _______ _______ _____ _____    ______ ____
DOCKED: ROOT
DOCKED: ATOM      1  O   UNL     1     -37.312 -10.775  13.338 -0.09 -0.00    -0.346 OA 
DOCKED: ATOM      2  C   UNL     1     -37.831 -12.113  13.626 -0.21 +0.00    +0.130 C  
DOCKED: ATOM      3  C   UNL     1     -38.361 -12.586  12.304 -0.34 +0.00    +0.004 A  
DOCKED: ATOM      4  C   UNL     1     -38.071 -11.649  11.322 -0.33 +0.00    +0.006 A  
DOCKED: ATOM      5  C   UNL     1     -37.329 -10.513  11.915 -0.09 +0.00    +0.169 C  
DOCKED: ATOM      6  C   UNL     1     -39.035 -13.757  11.992 -0.34 -0.00    -0.001 A  
DOCKED: ATOM      7  C   UNL     1     -38.445 -11.846  10.004 -0.08 +0.00    +0.008 A  
DOCKED: ATOM      8  C   UNL     1     -39.424 -13.969  10.668 -0.46 +0.00    +0.010 A  
DOCKED: ATOM      9  C   UNL     1     -39.130 -13.018   9.679 -0.44 +0.00    +0.068 A  
DOCKED: ATOM     10  N   UNL     1     -39.861 -13.444   7.230 -3.24 -0.00    -0.191 NA 
DOCKED: ATOM     11  C   UNL     1     -39.534 -13.252   8.329 -0.28 +0.00    +0.101 C  
DOCKED: ENDROOT
DOCKED: BRANCH   2  12
DOCKED: ATOM     12  C   UNL     1     -36.687 -12.972  14.149 -0.29 +0.00    +0.038 C  
DOCKED: BRANCH  12  13
DOCKED: ATOM     13  C   UNL     1     -35.345 -12.253  14.019 -0.20 +0.00    +0.038 C  
DOCKED: BRANCH  13  14
DOCKED: ATOM     14  C   UNL     1     -35.094 -11.338  15.215 -0.11 +0.00    +0.251 C  
DOCKED: BRANCH  14  15
DOCKED: ATOM     15  N   UNL     1     -33.763 -10.748  15.132 -0.09 +0.00    +0.141 N  
DOCKED: ATOM     16  C   UNL     1     -32.874 -11.591  14.332 -0.11 +0.00    +0.285 C  
DOCKED: ATOM     17  C   UNL     1     -33.831  -9.400  14.565 -0.06 +0.00    +0.285 C  
DOCKED: ENDBRANCH  14  15
DOCKED: ENDBRANCH  13  14
DOCKED: ENDBRANCH  12  13
DOCKED: ENDBRANCH   2  12
DOCKED: BRANCH   2  18
DOCKED: ATOM     18  C   UNL     1     -38.899 -11.953  14.657 -0.12 +0.00    +0.006 A  
DOCKED: ATOM     19  C   UNL     1     -39.510 -10.713  14.840 -0.07 +0.00    +0.001 A  
DOCKED: ATOM     20  C   UNL     1     -40.508 -10.566  15.805 -0.04 +0.00    +0.029 A  
DOCKED: ATOM     21  C   UNL     1     -40.894 -11.656  16.582 -0.02 +0.00    +0.140 A  
DOCKED: ATOM     22  C   UNL     1     -40.282 -12.896  16.397 -0.10 +0.00    +0.029 A  
DOCKED: ATOM     23  F   UNL     1     -41.853 -11.515  17.506 +0.01 -0.00    -0.204 F  
DOCKED: ATOM     24  C   UNL     1     -39.283 -13.045  15.434 -0.16 +0.00    +0.001 A  
DOCKED: ENDBRANCH   2  18
DOCKED: TORSDOF 5
DOCKED: TER
DOCKED: ENDMDL
________________________________________________________________________________


    FINAL DOCKED STATE:
    ________________________


Run:   295 / 512
Time taken for this run:   0.002s

DOCKED: MODEL        295
DOCKED: USER    Run = 295
DOCKED: USER
DOCKED: USER    Estimated Free Energy of Binding    =  -3.82 kcal/mol  [=(1)+(2)+(3)-(4)]
DOCKED: USER
DOCKED: USER    (1) Final Intermolecular Energy     =  -5.32 kcal/mol
DOCKED: USER        vdW + Hbond + desolv Energy     =  -5.32 kcal/mol
DOCKED: USER        Electrostatic Energy            =  +0.00 kcal/mol
DOCKED: USER        Moving Ligand-Fixed Receptor    =  -5.32 kcal/mol
DOCKED: USER        Moving Ligand-Moving Receptor   =  +0.00 kcal/mol
DOCKED: USER    (2) Final Total Internal Energy     =  -1.22 kcal/mol
DOCKED: USER    (3) Torsional Free Energy           =  +1.49 kcal/mol
DOCKED: USER    (4) Unbound System's Energy         =  -1.22 kcal/mol
DOCKED: USER
DOCKED: USER
DOCKED: REMARK  5 active torsions:
DOCKED: REMARK  status: ('A' for Active; 'I' for Inactive)
DOCKED: REMARK    1  A    between atoms: C_2  and  C_19 
DOCKED: REMARK    2  A    between atoms: C_2  and  C_11 
DOCKED: REMARK    3  A    between atoms: C_19  and  C_20 
DOCKED: REMARK    4  A    between atoms: C_20  and  C_21 
DOCKED: REMARK    5  A    between atoms: C_21  and  N_22 
DOCKED: USER                              x       y       z     vdW  Elec       q    Type
DOCKED: USER                           _______ _______ _______ _____ _____    ______ ____
DOCKED: ROOT
DOCKED: ATOM      1  O   UNL     1     -35.894  -8.876  13.764 -0.05 -0.00    -0.346 OA 
DOCKED: ATOM      2  C   UNL     1     -35.319 -10.070  14.383 -0.12 +0.00    +0.130 C  
DOCKED: ATOM      3  C   UNL     1     -36.150 -11.195  13.837 -0.21 +0.00    +0.004 A  
DOCKED: ATOM      4  C   UNL     1     -37.049 -10.699  12.903 -0.25 +0.00    +0.006 A  
DOCKED: ATOM      5  C   UNL     1     -36.870  -9.237  12.759 -0.19 +0.00    +0.169 C  
DOCKED: ATOM      6  C   UNL     1     -36.107 -12.549  14.134 -0.24 -0.00    -0.001 A  
DOCKED: ATOM      7  C   UNL     1     -37.934 -11.533  12.241 -0.33 +0.00    +0.008 A  
DOCKED: ATOM      8  C   UNL     1     -36.995 -13.403  13.478 -0.35 +0.00    +0.010 A  
DOCKED: ATOM      9  C   UNL     1     -37.904 -12.897  12.536 -0.31 +0.00    +0.068 A  
DOCKED: ATOM     10  N   UNL     1     -39.536 -14.510  11.333 -2.55 -0.00    -0.191 NA 
DOCKED: ATOM     11  C   UNL     1     -38.804 -13.787  11.873 -0.32 +0.00    +0.101 C  
DOCKED: ENDROOT
DOCKED: BRANCH   2  12
DOCKED: ATOM     12  C   UNL     1     -33.852 -10.166  13.978 -0.12 +0.00    +0.038 C  
DOCKED: BRANCH  12  13
DOCKED: ATOM     13  C   UNL     1     -33.238  -8.781  13.780 -0.09 +0.00    +0.038 C  
DOCKED: BRANCH  13  14
DOCKED: ATOM     14  C   UNL     1     -32.728  -8.213  15.103 -0.01 +0.00    +0.251 C  
DOCKED: BRANCH  14  15
DOCKED: ATOM     15  N   UNL     1     -31.431  -8.790  15.436 -0.01 +0.00    +0.141 N  
DOCKED: ATOM     16  C   UNL     1     -30.549  -7.778  16.019 -0.00 +0.00    +0.285 C  
DOCKED: ATOM     17  C   UNL     1     -31.590  -9.916  16.359 -0.01 +0.00    +0.285 C  
DOCKED: ENDBRANCH  14  15
DOCKED: ENDBRANCH  13  14
DOCKED: ENDBRANCH  12  13
DOCKED: ENDBRANCH   2  12
DOCKED: BRANCH   2  18
DOCKED: ATOM     18  C   UNL     1     -35.459  -9.907  15.860 -0.05 +0.00    +0.006 A  
DOCKED: ATOM     19  C   UNL     1     -34.926 -10.866  16.721 -0.06 +0.00    +0.001 A  
DOCKED: ATOM     20  C   UNL     1     -35.058 -10.712  18.101 -0.02 +0.00    +0.029 A  
DOCKED: ATOM     21  C   UNL     1     -35.723  -9.602  18.619 -0.00 +0.00    +0.140 A  
DOCKED: ATOM     22  C   UNL     1     -36.256  -8.643  17.757 -0.00 +0.00    +0.029 A  
DOCKED: ATOM     23  F   UNL     1     -35.849  -9.454  19.944 -0.00 -0.00    -0.204 F  
DOCKED: ATOM     24  C   UNL     1     -36.125  -8.796  16.376 -0.02 +0.00    +0.001 A  
DOCKED: ENDBRANCH   2  18
DOCKED: TORSDOF 5
DOCKED: TER
DOCKED: ENDMDL
________________________________________________________________________________


    FINAL DOCKED STATE:
    ________________________


Run:   296 / 512
Time taken for this run:   0.002s

DOCKED: MODEL        296
DOCKED: USER    Run = 296
DOCKED: USER
DOCKED: USER    Estimated Free Energy of Binding    =  -4.28 kcal/mol  [=(1)+(2)+(3)-(4)]
DOCKED: USER
DOCKED: USER    (1) Final Intermolecular Energy     =  -5.77 kcal/mol
DOCKED: USER        vdW + Hbond + desolv Energy     =  -5.77 kcal/mol
DOCKED: USER        Electrostatic Energy            =  +0.00 kcal/mol
DOCKED: USER        Moving Ligand-Fixed Receptor    =  -5.77 kcal/mol
DOCKED: USER        Moving Ligand-Moving Receptor   =  +0.00 kcal/mol
DOCKED: USER    (2) Final Total Internal Energy     =  -0.94 kcal/mol
DOCKED: USER    (3) Torsional Free Energy           =  +1.49 kcal/mol
DOCKED: USER    (4) Unbound System's Energy         =  -0.94 kcal/mol
DOCKED: USER
DOCKED: USER
DOCKED: REMARK  5 active torsions:
DOCKED: REMARK  status: ('A' for Active; 'I' for Inactive)
DOCKED: REMARK    1  A    between atoms: C_2  and  C_19 
DOCKED: REMARK    2  A    between atoms: C_2  and  C_11 
DOCKED: REMARK    3  A    between atoms: C_19  and  C_20 
DOCKED: REMARK    4  A    between atoms: C_20  and  C_21 
DOCKED: REMARK    5  A    between atoms: C_21  and  N_22 
DOCKED: USER                              x       y       z     vdW  Elec       q    Type
DOCKED: USER                           _______ _______ _______ _____ _____    ______ ____
DOCKED: ROOT
DOCKED: ATOM      1  O   UNL     1     -31.979  -3.847   5.663 -0.02 -0.00    -0.346 OA 
DOCKED: ATOM      2  C   UNL     1     -33.294  -4.356   6.056 -0.13 +0.00    +0.130 C  
DOCKED: ATOM      3  C   UNL     1     -34.225  -3.778   5.031 -0.23 +0.00    +0.004 A  
DOCKED: ATOM      4  C   UNL     1     -33.495  -3.090   4.072 -0.20 +0.00    +0.006 A  
DOCKED: ATOM      5  C   UNL     1     -32.050  -3.175   4.384 -0.08 +0.00    +0.169 C  
DOCKED: ATOM      6  C   UNL     1     -35.607  -3.863   4.946 -0.24 -0.00    -0.001 A  
DOCKED: ATOM      7  C   UNL     1     -34.116  -2.463   3.005 -0.27 +0.00    +0.008 A  
DOCKED: ATOM      8  C   UNL     1     -36.249  -3.233   3.879 -0.19 +0.00    +0.010 A  
DOCKED: ATOM      9  C   UNL     1     -35.507  -2.537   2.913 -0.29 +0.00    +0.068 A  
DOCKED: ATOM     10  N   UNL     1     -36.729  -1.383   0.941 -2.46 -0.00    -0.191 NA 
DOCKED: ATOM     11  C   UNL     1     -36.181  -1.900   1.826 -0.32 +0.00    +0.101 C  
DOCKED: ENDROOT
DOCKED: BRANCH   2  12
DOCKED: ATOM     12  C   UNL     1     -33.250  -5.879   6.026 -0.11 +0.00    +0.038 C  
DOCKED: BRANCH  12  13
DOCKED: ATOM     13  C   UNL     1     -33.689  -6.476   7.362 -0.12 +0.00    +0.038 C  
DOCKED: BRANCH  13  14
DOCKED: ATOM     14  C   UNL     1     -33.058  -7.849   7.584 -0.09 +0.00    +0.251 C  
DOCKED: BRANCH  14  15
DOCKED: ATOM     15  N   UNL     1     -32.852  -8.089   9.007 -0.09 +0.00    +0.141 N  
DOCKED: ATOM     16  C   UNL     1     -31.709  -7.318   9.500 -0.02 +0.00    +0.285 C  
DOCKED: ATOM     17  C   UNL     1     -34.057  -7.751   9.767 -0.11 +0.00    +0.285 C  
DOCKED: ENDBRANCH  14  15
DOCKED: ENDBRANCH  13  14
DOCKED: ENDBRANCH  12  13
DOCKED: ENDBRANCH   2  12
DOCKED: BRANCH   2  18
DOCKED: ATOM     18  C   UNL     1     -33.562  -3.853   7.435 -0.16 +0.00    +0.006 A  
DOCKED: ATOM     19  C   UNL     1     -34.819  -3.344   7.759 -0.10 +0.00    +0.001 A  
DOCKED: ATOM     20  C   UNL     1     -35.069  -2.873   9.048 -0.19 +0.00    +0.029 A  
DOCKED: ATOM     21  C   UNL     1     -34.062  -2.912  10.012 -0.11 +0.00    +0.140 A  
DOCKED: ATOM     22  C   UNL     1     -32.805  -3.421   9.687 -0.10 +0.00    +0.029 A  
DOCKED: ATOM     23  F   UNL     1     -34.302  -2.462  11.250 -0.03 -0.00    -0.204 F  
DOCKED: ATOM     24  C   UNL     1     -32.554  -3.892   8.397 -0.11 +0.00    +0.001 A  
DOCKED: ENDBRANCH   2  18
DOCKED: TORSDOF 5
DOCKED: TER
DOCKED: ENDMDL
________________________________________________________________________________


    FINAL DOCKED STATE:
    ________________________


Run:   297 / 512
Time taken for this run:   0.002s

DOCKED: MODEL        297
DOCKED: USER    Run = 297
DOCKED: USER
DOCKED: USER    Estimated Free Energy of Binding    =  -3.60 kcal/mol  [=(1)+(2)+(3)-(4)]
DOCKED: USER
DOCKED: USER    (1) Final Intermolecular Energy     =  -5.09 kcal/mol
DOCKED: USER        vdW + Hbond + desolv Energy     =  -5.09 kcal/mol
DOCKED: USER        Electrostatic Energy            =  +0.00 kcal/mol
DOCKED: USER        Moving Ligand-Fixed Receptor    =  -5.09 kcal/mol
DOCKED: USER        Moving Ligand-Moving Receptor   =  +0.00 kcal/mol
DOCKED: USER    (2) Final Total Internal Energy     =  -1.21 kcal/mol
DOCKED: USER    (3) Torsional Free Energy           =  +1.49 kcal/mol
DOCKED: USER    (4) Unbound System's Energy         =  -1.21 kcal/mol
DOCKED: USER
DOCKED: USER
DOCKED: REMARK  5 active torsions:
DOCKED: REMARK  status: ('A' for Active; 'I' for Inactive)
DOCKED: REMARK    1  A    between atoms: C_2  and  C_19 
DOCKED: REMARK    2  A    between atoms: C_2  and  C_11 
DOCKED: REMARK    3  A    between atoms: C_19  and  C_20 
DOCKED: REMARK    4  A    between atoms: C_20  and  C_21 
DOCKED: REMARK    5  A    between atoms: C_21  and  N_22 
DOCKED: USER                              x       y       z     vdW  Elec       q    Type
DOCKED: USER                           _______ _______ _______ _____ _____    ______ ____
DOCKED: ROOT
DOCKED: ATOM      1  O   UNL     1     -41.807 -11.369  13.475 -0.04 -0.00    -0.346 OA 
DOCKED: ATOM      2  C   UNL     1     -40.363 -11.251  13.266 -0.17 +0.00    +0.130 C  
DOCKED: ATOM      3  C   UNL     1     -40.159  -9.789  12.990 -0.22 +0.00    +0.004 A  
DOCKED: ATOM      4  C   UNL     1     -41.361  -9.113  13.139 -0.22 +0.00    +0.006 A  
DOCKED: ATOM      5  C   UNL     1     -42.427 -10.063  13.530 -0.18 +0.00    +0.169 C  
DOCKED: ATOM      6  C   UNL     1     -38.999  -9.111  12.647 -0.21 -0.00    -0.001 A  
DOCKED: ATOM      7  C   UNL     1     -41.447  -7.745  12.947 -0.22 +0.00    +0.008 A  
DOCKED: ATOM      8  C   UNL     1     -39.070  -7.731  12.446 -0.20 +0.00    +0.010 A  
DOCKED: ATOM      9  C   UNL     1     -40.288  -7.052  12.595 -0.20 +0.00    +0.068 A  
DOCKED: ATOM     10  N   UNL     1     -40.384  -4.490  12.219 -0.05 -0.00    -0.191 NA 
DOCKED: ATOM     11  C   UNL     1     -40.341  -5.639  12.387 -0.16 +0.00    +0.101 C  
DOCKED: ENDROOT
DOCKED: BRANCH   2  12
DOCKED: ATOM     12  C   UNL     1     -39.652 -11.722  14.528 -0.13 +0.00    +0.038 C  
DOCKED: BRANCH  12  13
DOCKED: ATOM     13  C   UNL     1     -39.249 -13.192  14.425 -0.23 +0.00    +0.038 C  
DOCKED: BRANCH  13  14
DOCKED: ATOM     14  C   UNL     1     -37.765 -13.379  14.735 -0.16 +0.00    +0.251 C  
DOCKED: BRANCH  14  15
DOCKED: ATOM     15  N   UNL     1     -36.955 -13.017  13.578 -0.25 +0.00    +0.141 N  
DOCKED: ATOM     16  C   UNL     1     -35.783 -12.244  13.990 -0.15 +0.00    +0.285 C  
DOCKED: ATOM     17  C   UNL     1     -36.542 -14.214  12.844 -0.23 +0.00    +0.285 C  
DOCKED: ENDBRANCH  14  15
DOCKED: ENDBRANCH  13  14
DOCKED: ENDBRANCH  12  13
DOCKED: ENDBRANCH   2  12
DOCKED: BRANCH   2  18
DOCKED: ATOM     18  C   UNL     1     -40.020 -12.116  12.099 -0.27 +0.00    +0.006 A  
DOCKED: ATOM     19  C   UNL     1     -40.909 -13.105  11.679 -0.32 +0.00    +0.001 A  
DOCKED: ATOM     20  C   UNL     1     -40.586 -13.913  10.588 -0.31 +0.00    +0.029 A  
DOCKED: ATOM     21  C   UNL     1     -39.377 -13.732   9.920 -0.36 +0.00    +0.140 A  
DOCKED: ATOM     22  C   UNL     1     -38.488 -12.743  10.340 -0.42 +0.00    +0.029 A  
DOCKED: ATOM     23  F   UNL     1     -39.068 -14.507   8.872 -0.05 -0.00    -0.204 F  
DOCKED: ATOM     24  C   UNL     1     -38.809 -11.934  11.431 -0.35 +0.00    +0.001 A  
DOCKED: ENDBRANCH   2  18
DOCKED: TORSDOF 5
DOCKED: TER
DOCKED: ENDMDL
________________________________________________________________________________


    FINAL DOCKED STATE:
    ________________________


Run:   298 / 512
Time taken for this run:   0.002s

DOCKED: MODEL        298
DOCKED: USER    Run = 298
DOCKED: USER
DOCKED: USER    Estimated Free Energy of Binding    =  -4.65 kcal/mol  [=(1)+(2)+(3)-(4)]
DOCKED: USER
DOCKED: USER    (1) Final Intermolecular Energy     =  -6.14 kcal/mol
DOCKED: USER        vdW + Hbond + desolv Energy     =  -6.14 kcal/mol
DOCKED: USER        Electrostatic Energy            =  +0.00 kcal/mol
DOCKED: USER        Moving Ligand-Fixed Receptor    =  -6.14 kcal/mol
DOCKED: USER        Moving Ligand-Moving Receptor   =  +0.00 kcal/mol
DOCKED: USER    (2) Final Total Internal Energy     =  -1.36 kcal/mol
DOCKED: USER    (3) Torsional Free Energy           =  +1.49 kcal/mol
DOCKED: USER    (4) Unbound System's Energy         =  -1.36 kcal/mol
DOCKED: USER
DOCKED: USER
DOCKED: REMARK  5 active torsions:
DOCKED: REMARK  status: ('A' for Active; 'I' for Inactive)
DOCKED: REMARK    1  A    between atoms: C_2  and  C_19 
DOCKED: REMARK    2  A    between atoms: C_2  and  C_11 
DOCKED: REMARK    3  A    between atoms: C_19  and  C_20 
DOCKED: REMARK    4  A    between atoms: C_20  and  C_21 
DOCKED: REMARK    5  A    between atoms: C_21  and  N_22 
DOCKED: USER                              x       y       z     vdW  Elec       q    Type
DOCKED: USER                           _______ _______ _______ _____ _____    ______ ____
DOCKED: ROOT
DOCKED: ATOM      1  O   UNL     1     -36.819 -13.596  14.699 -0.10 -0.00    -0.346 OA 
DOCKED: ATOM      2  C   UNL     1     -37.372 -12.259  14.479 -0.17 +0.00    +0.130 C  
DOCKED: ATOM      3  C   UNL     1     -37.851 -12.298  13.057 -0.29 +0.00    +0.004 A  
DOCKED: ATOM      4  C   UNL     1     -37.687 -13.577  12.544 -0.38 +0.00    +0.006 A  
DOCKED: ATOM      5  C   UNL     1     -37.110 -14.464  13.579 -0.07 +0.00    +0.169 C  
DOCKED: ATOM      6  C   UNL     1     -38.398 -11.286  12.283 -0.31 -0.00    -0.001 A  
DOCKED: ATOM      7  C   UNL     1     -38.058 -13.886  11.246 -0.46 +0.00    +0.008 A  
DOCKED: ATOM      8  C   UNL     1     -38.773 -11.580  10.971 -0.08 +0.00    +0.010 A  
DOCKED: ATOM      9  C   UNL     1     -38.605 -12.874  10.456 -0.40 +0.00    +0.068 A  
DOCKED: ATOM     10  N   UNL     1     -39.316 -13.388   8.018 -2.23 -0.00    -0.191 NA 
DOCKED: ATOM     11  C   UNL     1     -38.996 -13.157   9.111 -0.50 +0.00    +0.101 C  
DOCKED: ENDROOT
DOCKED: BRANCH   2  12
DOCKED: ATOM     12  C   UNL     1     -38.500 -12.033  15.479 -0.12 +0.00    +0.038 C  
DOCKED: BRANCH  12  13
DOCKED: ATOM     13  C   UNL     1     -38.850 -13.320  16.224 -0.19 +0.00    +0.038 C  
DOCKED: BRANCH  13  14
DOCKED: ATOM     14  C   UNL     1     -39.906 -14.123  15.466 -0.06 +0.00    +0.251 C  
DOCKED: BRANCH  14  15
DOCKED: ATOM     15  N   UNL     1     -40.987 -13.250  15.024 -0.11 +0.00    +0.141 N  
DOCKED: ATOM     16  C   UNL     1     -41.140 -13.315  13.570 -0.09 +0.00    +0.285 C  
DOCKED: ATOM     17  C   UNL     1     -42.243 -13.609  15.683 -0.05 +0.00    +0.285 C  
DOCKED: ENDBRANCH  14  15
DOCKED: ENDBRANCH  13  14
DOCKED: ENDBRANCH  12  13
DOCKED: ENDBRANCH   2  12
DOCKED: BRANCH   2  18
DOCKED: ATOM     18  C   UNL     1     -36.261 -11.287  14.692 -0.16 +0.00    +0.006 A  
DOCKED: ATOM     19  C   UNL     1     -35.075 -11.414  13.969 -0.11 +0.00    +0.001 A  
DOCKED: ATOM     20  C   UNL     1     -34.037 -10.504  14.169 -0.11 +0.00    +0.029 A  
DOCKED: ATOM     21  C   UNL     1     -34.185  -9.469  15.091 -0.05 +0.00    +0.140 A  
DOCKED: ATOM     22  C   UNL     1     -35.371  -9.342  15.814 -0.04 +0.00    +0.029 A  
DOCKED: ATOM     23  F   UNL     1     -33.188  -8.594  15.282 -0.00 -0.00    -0.204 F  
DOCKED: ATOM     24  C   UNL     1     -36.410 -10.252  15.615 -0.06 +0.00    +0.001 A  
DOCKED: ENDBRANCH   2  18
DOCKED: TORSDOF 5
DOCKED: TER
DOCKED: ENDMDL
________________________________________________________________________________


    FINAL DOCKED STATE:
    ________________________


Run:   299 / 512
Time taken for this run:   0.002s

DOCKED: MODEL        299
DOCKED: USER    Run = 299
DOCKED: USER
DOCKED: USER    Estimated Free Energy of Binding    =  -4.26 kcal/mol  [=(1)+(2)+(3)-(4)]
DOCKED: USER
DOCKED: USER    (1) Final Intermolecular Energy     =  -5.75 kcal/mol
DOCKED: USER        vdW + Hbond + desolv Energy     =  -5.75 kcal/mol
DOCKED: USER        Electrostatic Energy            =  +0.00 kcal/mol
DOCKED: USER        Moving Ligand-Fixed Receptor    =  -5.75 kcal/mol
DOCKED: USER        Moving Ligand-Moving Receptor   =  +0.00 kcal/mol
DOCKED: USER    (2) Final Total Internal Energy     =  -1.09 kcal/mol
DOCKED: USER    (3) Torsional Free Energy           =  +1.49 kcal/mol
DOCKED: USER    (4) Unbound System's Energy         =  -1.09 kcal/mol
DOCKED: USER
DOCKED: USER
DOCKED: REMARK  5 active torsions:
DOCKED: REMARK  status: ('A' for Active; 'I' for Inactive)
DOCKED: REMARK    1  A    between atoms: C_2  and  C_19 
DOCKED: REMARK    2  A    between atoms: C_2  and  C_11 
DOCKED: REMARK    3  A    between atoms: C_19  and  C_20 
DOCKED: REMARK    4  A    between atoms: C_20  and  C_21 
DOCKED: REMARK    5  A    between atoms: C_21  and  N_22 
DOCKED: USER                              x       y       z     vdW  Elec       q    Type
DOCKED: USER                           _______ _______ _______ _____ _____    ______ ____
DOCKED: ROOT
DOCKED: ATOM      1  O   UNL     1     -30.650  -4.063   2.985 +0.01 -0.00    -0.346 OA 
DOCKED: ATOM      2  C   UNL     1     -31.661  -4.130   4.042 -0.04 +0.00    +0.130 C  
DOCKED: ATOM      3  C   UNL     1     -32.857  -3.453   3.439 -0.14 +0.00    +0.004 A  
DOCKED: ATOM      4  C   UNL     1     -32.593  -3.128   2.116 -0.13 +0.00    +0.006 A  
DOCKED: ATOM      5  C   UNL     1     -31.228  -3.570   1.754 -0.03 +0.00    +0.169 C  
DOCKED: ATOM      6  C   UNL     1     -34.086  -3.160   4.011 -0.25 -0.00    -0.001 A  
DOCKED: ATOM      7  C   UNL     1     -33.539  -2.498   1.326 -0.23 +0.00    +0.008 A  
DOCKED: ATOM      8  C   UNL     1     -35.049  -2.521   3.229 -0.36 +0.00    +0.010 A  
DOCKED: ATOM      9  C   UNL     1     -34.777  -2.192   1.892 -0.30 +0.00    +0.068 A  
DOCKED: ATOM     10  N   UNL     1     -36.588  -1.011   0.466 -2.52 -0.00    -0.191 NA 
DOCKED: ATOM     11  C   UNL     1     -35.776  -1.540   1.106 -0.37 +0.00    +0.101 C  
DOCKED: ENDROOT
DOCKED: BRANCH   2  12
DOCKED: ATOM     12  C   UNL     1     -31.913  -5.595   4.377 -0.06 +0.00    +0.038 C  
DOCKED: BRANCH  12  13
DOCKED: ATOM     13  C   UNL     1     -31.540  -6.505   3.208 -0.07 +0.00    +0.038 C  
DOCKED: BRANCH  13  14
DOCKED: ATOM     14  C   UNL     1     -32.732  -6.720   2.277 -0.14 +0.00    +0.251 C  
DOCKED: BRANCH  14  15
DOCKED: ATOM     15  N   UNL     1     -33.151  -8.117   2.304 -0.27 +0.00    +0.141 N  
DOCKED: ATOM     16  C   UNL     1     -33.041  -8.714   0.973 -0.22 +0.00    +0.285 C  
DOCKED: ATOM     17  C   UNL     1     -32.354  -8.876   3.269 -0.18 +0.00    +0.285 C  
DOCKED: ENDBRANCH  14  15
DOCKED: ENDBRANCH  13  14
DOCKED: ENDBRANCH  12  13
DOCKED: ENDBRANCH   2  12
DOCKED: BRANCH   2  18
DOCKED: ATOM     18  C   UNL     1     -31.109  -3.396   5.219 -0.06 +0.00    +0.006 A  
DOCKED: ATOM     19  C   UNL     1     -31.124  -2.002   5.240 -0.11 +0.00    +0.001 A  
DOCKED: ATOM     20  C   UNL     1     -30.608  -1.317   6.341 -0.10 +0.00    +0.029 A  
DOCKED: ATOM     21  C   UNL     1     -30.080  -2.026   7.418 -0.07 +0.00    +0.140 A  
DOCKED: ATOM     22  C   UNL     1     -30.066  -3.421   7.397 -0.04 +0.00    +0.029 A  
DOCKED: ATOM     23  F   UNL     1     -29.586  -1.369   8.476 -0.03 -0.00    -0.204 F  
DOCKED: ATOM     24  C   UNL     1     -30.581  -4.107   6.296 -0.03 +0.00    +0.001 A  
DOCKED: ENDBRANCH   2  18
DOCKED: TORSDOF 5
DOCKED: TER
DOCKED: ENDMDL
________________________________________________________________________________


    FINAL DOCKED STATE:
    ________________________


Run:   300 / 512
Time taken for this run:   0.002s

DOCKED: MODEL        300
DOCKED: USER    Run = 300
DOCKED: USER
DOCKED: USER    Estimated Free Energy of Binding    =  -4.74 kcal/mol  [=(1)+(2)+(3)-(4)]
DOCKED: USER
DOCKED: USER    (1) Final Intermolecular Energy     =  -6.23 kcal/mol
DOCKED: USER        vdW + Hbond + desolv Energy     =  -6.23 kcal/mol
DOCKED: USER        Electrostatic Energy            =  +0.00 kcal/mol
DOCKED: USER        Moving Ligand-Fixed Receptor    =  -6.23 kcal/mol
DOCKED: USER        Moving Ligand-Moving Receptor   =  +0.00 kcal/mol
DOCKED: USER    (2) Final Total Internal Energy     =  -1.28 kcal/mol
DOCKED: USER    (3) Torsional Free Energy           =  +1.49 kcal/mol
DOCKED: USER    (4) Unbound System's Energy         =  -1.28 kcal/mol
DOCKED: USER
DOCKED: USER
DOCKED: REMARK  5 active torsions:
DOCKED: REMARK  status: ('A' for Active; 'I' for Inactive)
DOCKED: REMARK    1  A    between atoms: C_2  and  C_19 
DOCKED: REMARK    2  A    between atoms: C_2  and  C_11 
DOCKED: REMARK    3  A    between atoms: C_19  and  C_20 
DOCKED: REMARK    4  A    between atoms: C_20  and  C_21 
DOCKED: REMARK    5  A    between atoms: C_21  and  N_22 
DOCKED: USER                              x       y       z     vdW  Elec       q    Type
DOCKED: USER                           _______ _______ _______ _____ _____    ______ ____
DOCKED: ROOT
DOCKED: ATOM      1  O   UNL     1     -33.138  -4.037   6.001 -0.05 -0.00    -0.346 OA 
DOCKED: ATOM      2  C   UNL     1     -34.572  -4.264   6.182 -0.21 +0.00    +0.130 C  
DOCKED: ATOM      3  C   UNL     1     -35.196  -3.583   4.998 -0.28 +0.00    +0.004 A  
DOCKED: ATOM      4  C   UNL     1     -34.202  -3.105   4.157 -0.24 +0.00    +0.006 A  
DOCKED: ATOM      5  C   UNL     1     -32.871  -3.442   4.710 -0.12 +0.00    +0.169 C  
DOCKED: ATOM      6  C   UNL     1     -36.537  -3.411   4.685 +0.09 -0.00    -0.001 A  
DOCKED: ATOM      7  C   UNL     1     -34.510  -2.438   2.983 -0.32 +0.00    +0.008 A  
DOCKED: ATOM      8  C   UNL     1     -36.864  -2.737   3.507 -0.37 +0.00    +0.010 A  
DOCKED: ATOM      9  C   UNL     1     -35.855  -2.254   2.661 -0.33 +0.00    +0.068 A  
DOCKED: ATOM     10  N   UNL     1     -36.496  -1.011   0.480 -2.48 -0.00    -0.191 NA 
DOCKED: ATOM     11  C   UNL     1     -36.209  -1.568   1.458 -0.23 +0.00    +0.101 C  
DOCKED: ENDROOT
DOCKED: BRANCH   2  12
DOCKED: ATOM     12  C   UNL     1     -34.824  -5.767   6.202 -0.23 +0.00    +0.038 C  
DOCKED: BRANCH  12  13
DOCKED: ATOM     13  C   UNL     1     -34.428  -6.380   7.544 -0.16 +0.00    +0.038 C  
DOCKED: BRANCH  13  14
DOCKED: ATOM     14  C   UNL     1     -33.165  -7.228   7.410 -0.07 +0.00    +0.251 C  
DOCKED: BRANCH  14  15
DOCKED: ATOM     15  N   UNL     1     -32.139  -6.759   8.335 -0.02 +0.00    +0.141 N  
DOCKED: ATOM     16  C   UNL     1     -31.526  -5.524   7.843 -0.01 +0.00    +0.285 C  
DOCKED: ATOM     17  C   UNL     1     -32.704  -6.549   9.669 -0.03 +0.00    +0.285 C  
DOCKED: ENDBRANCH  14  15
DOCKED: ENDBRANCH  13  14
DOCKED: ENDBRANCH  12  13
DOCKED: ENDBRANCH   2  12
DOCKED: BRANCH   2  18
DOCKED: ATOM     18  C   UNL     1     -34.953  -3.637   7.481 -0.20 +0.00    +0.006 A  
DOCKED: ATOM     19  C   UNL     1     -33.973  -3.355   8.432 -0.15 +0.00    +0.001 A  
DOCKED: ATOM     20  C   UNL     1     -34.331  -2.769   9.647 -0.11 +0.00    +0.029 A  
DOCKED: ATOM     21  C   UNL     1     -35.666  -2.465   9.908 -0.16 +0.00    +0.140 A  
DOCKED: ATOM     22  C   UNL     1     -36.645  -2.747   8.956 -0.24 +0.00    +0.029 A  
DOCKED: ATOM     23  F   UNL     1     -36.009  -1.900  11.074 -0.03 -0.00    -0.204 F  
DOCKED: ATOM     24  C   UNL     1     -36.289  -3.334   7.741 -0.28 +0.00    +0.001 A  
DOCKED: ENDBRANCH   2  18
DOCKED: TORSDOF 5
DOCKED: TER
DOCKED: ENDMDL
________________________________________________________________________________


    FINAL DOCKED STATE:
    ________________________


Run:   301 / 512
Time taken for this run:   0.002s

DOCKED: MODEL        301
DOCKED: USER    Run = 301
DOCKED: USER
DOCKED: USER    Estimated Free Energy of Binding    =  -5.88 kcal/mol  [=(1)+(2)+(3)-(4)]
DOCKED: USER
DOCKED: USER    (1) Final Intermolecular Energy     =  -7.37 kcal/mol
DOCKED: USER        vdW + Hbond + desolv Energy     =  -7.37 kcal/mol
DOCKED: USER        Electrostatic Energy            =  +0.00 kcal/mol
DOCKED: USER        Moving Ligand-Fixed Receptor    =  -7.37 kcal/mol
DOCKED: USER        Moving Ligand-Moving Receptor   =  +0.00 kcal/mol
DOCKED: USER    (2) Final Total Internal Energy     =  -1.02 kcal/mol
DOCKED: USER    (3) Torsional Free Energy           =  +1.49 kcal/mol
DOCKED: USER    (4) Unbound System's Energy         =  -1.02 kcal/mol
DOCKED: USER
DOCKED: USER
DOCKED: REMARK  5 active torsions:
DOCKED: REMARK  status: ('A' for Active; 'I' for Inactive)
DOCKED: REMARK    1  A    between atoms: C_2  and  C_19 
DOCKED: REMARK    2  A    between atoms: C_2  and  C_11 
DOCKED: REMARK    3  A    between atoms: C_19  and  C_20 
DOCKED: REMARK    4  A    between atoms: C_20  and  C_21 
DOCKED: REMARK    5  A    between atoms: C_21  and  N_22 
DOCKED: USER                              x       y       z     vdW  Elec       q    Type
DOCKED: USER                           _______ _______ _______ _____ _____    ______ ____
DOCKED: ROOT
DOCKED: ATOM      1  O   UNL     1     -37.446 -10.709  13.924 -0.05 -0.00    -0.346 OA 
DOCKED: ATOM      2  C   UNL     1     -37.100 -12.131  13.910 -0.22 +0.00    +0.130 C  
DOCKED: ATOM      3  C   UNL     1     -37.600 -12.610  12.577 -0.34 +0.00    +0.004 A  
DOCKED: ATOM      4  C   UNL     1     -38.088 -11.535  11.848 -0.35 +0.00    +0.006 A  
DOCKED: ATOM      5  C   UNL     1     -37.937 -10.287  12.630 -0.23 +0.00    +0.169 C  
DOCKED: ATOM      6  C   UNL     1     -37.610 -13.892  12.048 -0.37 -0.00    -0.001 A  
DOCKED: ATOM      7  C   UNL     1     -38.606 -11.703  10.575 -0.02 +0.00    +0.008 A  
DOCKED: ATOM      8  C   UNL     1     -38.133 -14.079  10.768 -0.46 +0.00    +0.010 A  
DOCKED: ATOM      9  C   UNL     1     -38.627 -12.990  10.035 -0.42 +0.00    +0.068 A  
DOCKED: ATOM     10  N   UNL     1     -39.586 -13.371   7.658 -2.91 -0.00    -0.191 NA 
DOCKED: ATOM     11  C   UNL     1     -39.156 -13.200   8.724 -0.44 +0.00    +0.101 C  
DOCKED: ENDROOT
DOCKED: BRANCH   2  12
DOCKED: ATOM     12  C   UNL     1     -35.589 -12.261  14.058 -0.24 +0.00    +0.038 C  
DOCKED: BRANCH  12  13
DOCKED: ATOM     13  C   UNL     1     -34.927 -10.896  14.237 -0.17 +0.00    +0.038 C  
DOCKED: BRANCH  13  14
DOCKED: ATOM     14  C   UNL     1     -33.826 -10.953  15.293 -0.09 +0.00    +0.251 C  
DOCKED: BRANCH  14  15
DOCKED: ATOM     15  N   UNL     1     -32.537 -11.226  14.669 -0.11 +0.00    +0.141 N  
DOCKED: ATOM     16  C   UNL     1     -32.390 -12.656  14.392 -0.12 +0.00    +0.285 C  
DOCKED: ATOM     17  C   UNL     1     -32.388 -10.452  13.435 -0.03 +0.00    +0.285 C  
DOCKED: ENDBRANCH  14  15
DOCKED: ENDBRANCH  13  14
DOCKED: ENDBRANCH  12  13
DOCKED: ENDBRANCH   2  12
DOCKED: BRANCH   2  18
DOCKED: ATOM     18  C   UNL     1     -37.810 -12.764  15.059 -0.18 +0.00    +0.006 A  
DOCKED: ATOM     19  C   UNL     1     -37.148 -13.692  15.862 -0.15 +0.00    +0.001 A  
DOCKED: ATOM     20  C   UNL     1     -37.813 -14.284  16.936 -0.15 +0.00    +0.029 A  
DOCKED: ATOM     21  C   UNL     1     -39.139 -13.947  17.206 -0.06 +0.00    +0.140 A  
DOCKED: ATOM     22  C   UNL     1     -39.800 -13.019  16.403 -0.12 +0.00    +0.029 A  
DOCKED: ATOM     23  F   UNL     1     -39.776 -14.514  18.239 -0.04 -0.00    -0.204 F  
DOCKED: ATOM     24  C   UNL     1     -39.136 -12.426  15.328 -0.12 +0.00    +0.001 A  
DOCKED: ENDBRANCH   2  18
DOCKED: TORSDOF 5
DOCKED: TER
DOCKED: ENDMDL
________________________________________________________________________________


    FINAL DOCKED STATE:
    ________________________


Run:   302 / 512
Time taken for this run:   0.002s

DOCKED: MODEL        302
DOCKED: USER    Run = 302
DOCKED: USER
DOCKED: USER    Estimated Free Energy of Binding    =  -4.50 kcal/mol  [=(1)+(2)+(3)-(4)]
DOCKED: USER
DOCKED: USER    (1) Final Intermolecular Energy     =  -5.99 kcal/mol
DOCKED: USER        vdW + Hbond + desolv Energy     =  -5.99 kcal/mol
DOCKED: USER        Electrostatic Energy            =  +0.00 kcal/mol
DOCKED: USER        Moving Ligand-Fixed Receptor    =  -5.99 kcal/mol
DOCKED: USER        Moving Ligand-Moving Receptor   =  +0.00 kcal/mol
DOCKED: USER    (2) Final Total Internal Energy     =  -1.40 kcal/mol
DOCKED: USER    (3) Torsional Free Energy           =  +1.49 kcal/mol
DOCKED: USER    (4) Unbound System's Energy         =  -1.40 kcal/mol
DOCKED: USER
DOCKED: USER
DOCKED: REMARK  5 active torsions:
DOCKED: REMARK  status: ('A' for Active; 'I' for Inactive)
DOCKED: REMARK    1  A    between atoms: C_2  and  C_19 
DOCKED: REMARK    2  A    between atoms: C_2  and  C_11 
DOCKED: REMARK    3  A    between atoms: C_19  and  C_20 
DOCKED: REMARK    4  A    between atoms: C_20  and  C_21 
DOCKED: REMARK    5  A    between atoms: C_21  and  N_22 
DOCKED: USER                              x       y       z     vdW  Elec       q    Type
DOCKED: USER                           _______ _______ _______ _____ _____    ______ ____
DOCKED: ROOT
DOCKED: ATOM      1  O   UNL     1     -37.185  -8.183  12.828 -0.08 -0.00    -0.346 OA 
DOCKED: ATOM      2  C   UNL     1     -38.379  -8.473  13.623 -0.13 +0.00    +0.130 C  
DOCKED: ATOM      3  C   UNL     1     -38.736  -9.879  13.237 -0.21 +0.00    +0.004 A  
DOCKED: ATOM      4  C   UNL     1     -37.769 -10.388  12.381 -0.28 +0.00    +0.006 A  
DOCKED: ATOM      5  C   UNL     1     -36.715  -9.374  12.155 -0.11 +0.00    +0.169 C  
DOCKED: ATOM      6  C   UNL     1     -39.823 -10.651  13.621 -0.16 -0.00    -0.001 A  
DOCKED: ATOM      7  C   UNL     1     -37.856 -11.675  11.879 -0.33 +0.00    +0.008 A  
DOCKED: ATOM      8  C   UNL     1     -39.928 -11.949  13.120 -0.20 +0.00    +0.010 A  
DOCKED: ATOM      9  C   UNL     1     -38.949 -12.459  12.254 -0.26 +0.00    +0.068 A  
DOCKED: ATOM     10  N   UNL     1     -39.171 -14.875  11.346 -2.61 -0.00    -0.191 NA 
DOCKED: ATOM     11  C   UNL     1     -39.072 -13.791  11.753 -0.35 +0.00    +0.101 C  
DOCKED: ENDROOT
DOCKED: BRANCH   2  12
DOCKED: ATOM     12  C   UNL     1     -38.022  -8.335  15.099 -0.04 +0.00    +0.038 C  
DOCKED: BRANCH  12  13
DOCKED: ATOM     13  C   UNL     1     -37.018  -9.403  15.530 -0.05 +0.00    +0.038 C  
DOCKED: BRANCH  13  14
DOCKED: ATOM     14  C   UNL     1     -37.690 -10.474  16.388 -0.01 +0.00    +0.251 C  
DOCKED: BRANCH  14  15
DOCKED: ATOM     15  N   UNL     1     -36.875 -11.683  16.420 -0.06 +0.00    +0.141 N  
DOCKED: ATOM     16  C   UNL     1     -37.718 -12.876  16.328 -0.09 +0.00    +0.285 C  
DOCKED: ATOM     17  C   UNL     1     -35.892 -11.671  15.335 -0.09 +0.00    +0.285 C  
DOCKED: ENDBRANCH  14  15
DOCKED: ENDBRANCH  13  14
DOCKED: ENDBRANCH  12  13
DOCKED: ENDBRANCH   2  12
DOCKED: BRANCH   2  18
DOCKED: ATOM     18  C   UNL     1     -39.419  -7.479  13.226 -0.18 +0.00    +0.006 A  
DOCKED: ATOM     19  C   UNL     1     -39.103  -6.461  12.329 -0.18 +0.00    +0.001 A  
DOCKED: ATOM     20  C   UNL     1     -40.076  -5.532  11.959 -0.16 +0.00    +0.029 A  
DOCKED: ATOM     21  C   UNL     1     -41.363  -5.623  12.486 -0.11 +0.00    +0.140 A  
DOCKED: ATOM     22  C   UNL     1     -41.679  -6.642  13.384 -0.14 +0.00    +0.029 A  
DOCKED: ATOM     23  F   UNL     1     -42.298  -4.732  12.129 -0.01 -0.00    -0.204 F  
DOCKED: ATOM     24  C   UNL     1     -40.706  -7.572  13.755 -0.14 +0.00    +0.001 A  
DOCKED: ENDBRANCH   2  18
DOCKED: TORSDOF 5
DOCKED: TER
DOCKED: ENDMDL
________________________________________________________________________________


    FINAL DOCKED STATE:
    ________________________


Run:   303 / 512
Time taken for this run:   0.002s

DOCKED: MODEL        303
DOCKED: USER    Run = 303
DOCKED: USER
DOCKED: USER    Estimated Free Energy of Binding    =  -4.66 kcal/mol  [=(1)+(2)+(3)-(4)]
DOCKED: USER
DOCKED: USER    (1) Final Intermolecular Energy     =  -6.15 kcal/mol
DOCKED: USER        vdW + Hbond + desolv Energy     =  -6.15 kcal/mol
DOCKED: USER        Electrostatic Energy            =  +0.00 kcal/mol
DOCKED: USER        Moving Ligand-Fixed Receptor    =  -6.15 kcal/mol
DOCKED: USER        Moving Ligand-Moving Receptor   =  +0.00 kcal/mol
DOCKED: USER    (2) Final Total Internal Energy     =  -1.36 kcal/mol
DOCKED: USER    (3) Torsional Free Energy           =  +1.49 kcal/mol
DOCKED: USER    (4) Unbound System's Energy         =  -1.36 kcal/mol
DOCKED: USER
DOCKED: USER
DOCKED: REMARK  5 active torsions:
DOCKED: REMARK  status: ('A' for Active; 'I' for Inactive)
DOCKED: REMARK    1  A    between atoms: C_2  and  C_19 
DOCKED: REMARK    2  A    between atoms: C_2  and  C_11 
DOCKED: REMARK    3  A    between atoms: C_19  and  C_20 
DOCKED: REMARK    4  A    between atoms: C_20  and  C_21 
DOCKED: REMARK    5  A    between atoms: C_21  and  N_22 
DOCKED: USER                              x       y       z     vdW  Elec       q    Type
DOCKED: USER                           _______ _______ _______ _____ _____    ______ ____
DOCKED: ROOT
DOCKED: ATOM      1  O   UNL     1     -38.390 -10.713  15.272 -0.00 -0.00    -0.346 OA 
DOCKED: ATOM      2  C   UNL     1     -37.393 -11.772  15.110 -0.11 +0.00    +0.130 C  
DOCKED: ATOM      3  C   UNL     1     -37.639 -12.288  13.722 -0.24 +0.00    +0.004 A  
DOCKED: ATOM      4  C   UNL     1     -38.615 -11.520  13.104 -0.23 +0.00    +0.006 A  
DOCKED: ATOM      5  C   UNL     1     -39.068 -10.450  14.021 -0.10 +0.00    +0.169 C  
DOCKED: ATOM      6  C   UNL     1     -37.038 -13.346  13.055 -0.38 -0.00    -0.001 A  
DOCKED: ATOM      7  C   UNL     1     -39.026 -11.783  11.809 -0.31 +0.00    +0.008 A  
DOCKED: ATOM      8  C   UNL     1     -37.445 -13.627  11.750 -0.37 +0.00    +0.010 A  
DOCKED: ATOM      9  C   UNL     1     -38.434 -12.848  11.130 -0.38 +0.00    +0.068 A  
DOCKED: ATOM     10  N   UNL     1     -39.162 -13.393   8.703 -1.93 -0.00    -0.191 NA 
DOCKED: ATOM     11  C   UNL     1     -38.836 -13.149   9.792 -0.51 +0.00    +0.101 C  
DOCKED: ENDROOT
DOCKED: BRANCH   2  12
DOCKED: ATOM     12  C   UNL     1     -36.007 -11.160  15.279 -0.14 +0.00    +0.038 C  
DOCKED: BRANCH  12  13
DOCKED: ATOM     13  C   UNL     1     -35.444 -10.681  13.942 -0.17 +0.00    +0.038 C  
DOCKED: BRANCH  13  14
DOCKED: ATOM     14  C   UNL     1     -34.771  -9.317  14.087 -0.08 +0.00    +0.251 C  
DOCKED: BRANCH  14  15
DOCKED: ATOM     15  N   UNL     1     -35.626  -8.269  13.541 -0.08 +0.00    +0.141 N  
DOCKED: ATOM     16  C   UNL     1     -36.442  -8.789  12.443 -0.14 +0.00    +0.285 C  
DOCKED: ATOM     17  C   UNL     1     -36.482  -7.706  14.587 -0.02 +0.00    +0.285 C  
DOCKED: ENDBRANCH  14  15
DOCKED: ENDBRANCH  13  14
DOCKED: ENDBRANCH  12  13
DOCKED: ENDBRANCH   2  12
DOCKED: BRANCH   2  18
DOCKED: ATOM     18  C   UNL     1     -37.663 -12.791  16.166 -0.15 +0.00    +0.006 A  
DOCKED: ATOM     19  C   UNL     1     -36.602 -13.385  16.849 -0.16 +0.00    +0.001 A  
DOCKED: ATOM     20  C   UNL     1     -36.856 -14.338  17.836 -0.24 +0.00    +0.029 A  
DOCKED: ATOM     21  C   UNL     1     -38.169 -14.696  18.139 -0.09 +0.00    +0.140 A  
DOCKED: ATOM     22  C   UNL     1     -39.230 -14.101  17.455 -0.11 +0.00    +0.029 A  
DOCKED: ATOM     23  F   UNL     1     -38.413 -15.609  19.087 -0.06 -0.00    -0.204 F  
DOCKED: ATOM     24  C   UNL     1     -38.977 -13.148  16.467 -0.15 +0.00    +0.001 A  
DOCKED: ENDBRANCH   2  18
DOCKED: TORSDOF 5
DOCKED: TER
DOCKED: ENDMDL
________________________________________________________________________________


    FINAL DOCKED STATE:
    ________________________


Run:   304 / 512
Time taken for this run:   0.002s

DOCKED: MODEL        304
DOCKED: USER    Run = 304
DOCKED: USER
DOCKED: USER    Estimated Free Energy of Binding    =  -5.34 kcal/mol  [=(1)+(2)+(3)-(4)]
DOCKED: USER
DOCKED: USER    (1) Final Intermolecular Energy     =  -6.83 kcal/mol
DOCKED: USER        vdW + Hbond + desolv Energy     =  -6.83 kcal/mol
DOCKED: USER        Electrostatic Energy            =  +0.00 kcal/mol
DOCKED: USER        Moving Ligand-Fixed Receptor    =  -6.83 kcal/mol
DOCKED: USER        Moving Ligand-Moving Receptor   =  +0.00 kcal/mol
DOCKED: USER    (2) Final Total Internal Energy     =  -1.20 kcal/mol
DOCKED: USER    (3) Torsional Free Energy           =  +1.49 kcal/mol
DOCKED: USER    (4) Unbound System's Energy         =  -1.20 kcal/mol
DOCKED: USER
DOCKED: USER
DOCKED: REMARK  5 active torsions:
DOCKED: REMARK  status: ('A' for Active; 'I' for Inactive)
DOCKED: REMARK    1  A    between atoms: C_2  and  C_19 
DOCKED: REMARK    2  A    between atoms: C_2  and  C_11 
DOCKED: REMARK    3  A    between atoms: C_19  and  C_20 
DOCKED: REMARK    4  A    between atoms: C_20  and  C_21 
DOCKED: REMARK    5  A    between atoms: C_21  and  N_22 
DOCKED: USER                              x       y       z     vdW  Elec       q    Type
DOCKED: USER                           _______ _______ _______ _____ _____    ______ ____
DOCKED: ROOT
DOCKED: ATOM      1  O   UNL     1     -37.632 -10.590  14.056 -0.03 -0.00    -0.346 OA 
DOCKED: ATOM      2  C   UNL     1     -36.936 -11.875  13.977 -0.21 +0.00    +0.130 C  
DOCKED: ATOM      3  C   UNL     1     -37.428 -12.471  12.689 -0.33 +0.00    +0.004 A  
DOCKED: ATOM      4  C   UNL     1     -38.245 -11.560  12.035 -0.34 +0.00    +0.006 A  
DOCKED: ATOM      5  C   UNL     1     -38.340 -10.313  12.825 -0.21 +0.00    +0.169 C  
DOCKED: ATOM      6  C   UNL     1     -37.163 -13.715  12.136 -0.39 -0.00    -0.001 A  
DOCKED: ATOM      7  C   UNL     1     -38.826 -11.861  10.815 -0.21 +0.00    +0.008 A  
DOCKED: ATOM      8  C   UNL     1     -37.745 -14.035  10.908 -0.29 +0.00    +0.010 A  
DOCKED: ATOM      9  C   UNL     1     -38.572 -13.111  10.251 -0.42 +0.00    +0.068 A  
DOCKED: ATOM     10  N   UNL     1     -39.633 -13.734   7.970 -2.38 -0.00    -0.191 NA 
DOCKED: ATOM     11  C   UNL     1     -39.158 -13.455   8.994 -0.48 +0.00    +0.101 C  
DOCKED: ENDROOT
DOCKED: BRANCH   2  12
DOCKED: ATOM     12  C   UNL     1     -35.435 -11.613  13.975 -0.21 +0.00    +0.038 C  
DOCKED: BRANCH  12  13
DOCKED: ATOM     13  C   UNL     1     -35.117 -10.195  14.445 -0.14 +0.00    +0.038 C  
DOCKED: BRANCH  13  14
DOCKED: ATOM     14  C   UNL     1     -33.898  -9.634  13.714 -0.07 +0.00    +0.251 C  
DOCKED: BRANCH  14  15
DOCKED: ATOM     15  N   UNL     1     -34.190  -8.307  13.185 -0.08 +0.00    +0.141 N  
DOCKED: ATOM     16  C   UNL     1     -34.519  -8.381  11.760 -0.07 +0.00    +0.285 C  
DOCKED: ATOM     17  C   UNL     1     -35.288  -7.686  13.928 -0.04 +0.00    +0.285 C  
DOCKED: ENDBRANCH  14  15
DOCKED: ENDBRANCH  13  14
DOCKED: ENDBRANCH  12  13
DOCKED: ENDBRANCH   2  12
DOCKED: BRANCH   2  18
DOCKED: ATOM     18  C   UNL     1     -37.343 -12.666  15.176 -0.18 +0.00    +0.006 A  
DOCKED: ATOM     19  C   UNL     1     -38.582 -13.304  15.201 -0.21 +0.00    +0.001 A  
DOCKED: ATOM     20  C   UNL     1     -38.961 -14.043  16.323 -0.04 +0.00    +0.029 A  
DOCKED: ATOM     21  C   UNL     1     -38.102 -14.141  17.416 -0.14 +0.00    +0.140 A  
DOCKED: ATOM     22  C   UNL     1     -36.862 -13.502  17.390 -0.19 +0.00    +0.029 A  
DOCKED: ATOM     23  F   UNL     1     -38.465 -14.852  18.492 -0.05 -0.00    -0.204 F  
DOCKED: ATOM     24  C   UNL     1     -36.482 -12.763  16.268 -0.13 +0.00    +0.001 A  
DOCKED: ENDBRANCH   2  18
DOCKED: TORSDOF 5
DOCKED: TER
DOCKED: ENDMDL
________________________________________________________________________________


    FINAL DOCKED STATE:
    ________________________


Run:   305 / 512
Time taken for this run:   0.002s

DOCKED: MODEL        305
DOCKED: USER    Run = 305
DOCKED: USER
DOCKED: USER    Estimated Free Energy of Binding    =  -4.41 kcal/mol  [=(1)+(2)+(3)-(4)]
DOCKED: USER
DOCKED: USER    (1) Final Intermolecular Energy     =  -5.90 kcal/mol
DOCKED: USER        vdW + Hbond + desolv Energy     =  -5.90 kcal/mol
DOCKED: USER        Electrostatic Energy            =  +0.00 kcal/mol
DOCKED: USER        Moving Ligand-Fixed Receptor    =  -5.90 kcal/mol
DOCKED: USER        Moving Ligand-Moving Receptor   =  +0.00 kcal/mol
DOCKED: USER    (2) Final Total Internal Energy     =  -1.38 kcal/mol
DOCKED: USER    (3) Torsional Free Energy           =  +1.49 kcal/mol
DOCKED: USER    (4) Unbound System's Energy         =  -1.38 kcal/mol
DOCKED: USER
DOCKED: USER
DOCKED: REMARK  5 active torsions:
DOCKED: REMARK  status: ('A' for Active; 'I' for Inactive)
DOCKED: REMARK    1  A    between atoms: C_2  and  C_19 
DOCKED: REMARK    2  A    between atoms: C_2  and  C_11 
DOCKED: REMARK    3  A    between atoms: C_19  and  C_20 
DOCKED: REMARK    4  A    between atoms: C_20  and  C_21 
DOCKED: REMARK    5  A    between atoms: C_21  and  N_22 
DOCKED: USER                              x       y       z     vdW  Elec       q    Type
DOCKED: USER                           _______ _______ _______ _____ _____    ______ ____
DOCKED: ROOT
DOCKED: ATOM      1  O   UNL     1     -36.986  -8.061  12.928 -0.06 -0.00    -0.346 OA 
DOCKED: ATOM      2  C   UNL     1     -38.392  -8.091  13.334 -0.15 +0.00    +0.130 C  
DOCKED: ATOM      3  C   UNL     1     -38.848  -9.468  12.947 -0.22 +0.00    +0.004 A  
DOCKED: ATOM      4  C   UNL     1     -37.771 -10.199  12.466 -0.27 +0.00    +0.006 A  
DOCKED: ATOM      5  C   UNL     1     -36.543  -9.374  12.511 -0.18 +0.00    +0.169 C  
DOCKED: ATOM      6  C   UNL     1     -40.113 -10.033  13.026 -0.22 -0.00    -0.001 A  
DOCKED: ATOM      7  C   UNL     1     -37.920 -11.509  12.045 -0.34 +0.00    +0.008 A  
DOCKED: ATOM      8  C   UNL     1     -40.280 -11.352  12.602 -0.22 +0.00    +0.010 A  
DOCKED: ATOM      9  C   UNL     1     -39.189 -12.086  12.114 -0.26 +0.00    +0.068 A  
DOCKED: ATOM     10  N   UNL     1     -39.533 -14.535  11.339 -2.56 -0.00    -0.191 NA 
DOCKED: ATOM     11  C   UNL     1     -39.379 -13.436  11.686 -0.36 +0.00    +0.101 C  
DOCKED: ENDROOT
DOCKED: BRANCH   2  12
DOCKED: ATOM     12  C   UNL     1     -38.466  -7.841  14.835 -0.05 +0.00    +0.038 C  
DOCKED: BRANCH  12  13
DOCKED: ATOM     13  C   UNL     1     -37.167  -7.237  15.365 -0.02 +0.00    +0.038 C  
DOCKED: BRANCH  13  14
DOCKED: ATOM     14  C   UNL     1     -36.991  -5.799  14.881 -0.01 +0.00    +0.251 C  
DOCKED: BRANCH  14  15
DOCKED: ATOM     15  N   UNL     1     -35.582  -5.427  14.897 -0.00 +0.00    +0.141 N  
DOCKED: ATOM     16  C   UNL     1     -34.830  -6.292  15.808 -0.00 +0.00    +0.285 C  
DOCKED: ATOM     17  C   UNL     1     -35.015  -5.495  13.549 -0.01 +0.00    +0.285 C  
DOCKED: ENDBRANCH  14  15
DOCKED: ENDBRANCH  13  14
DOCKED: ENDBRANCH  12  13
DOCKED: ENDBRANCH   2  12
DOCKED: BRANCH   2  18
DOCKED: ATOM     18  C   UNL     1     -39.088  -7.013  12.573 -0.19 +0.00    +0.006 A  
DOCKED: ATOM     19  C   UNL     1     -40.463  -6.832  12.721 -0.21 +0.00    +0.001 A  
DOCKED: ATOM     20  C   UNL     1     -41.113  -5.824  12.008 -0.15 +0.00    +0.029 A  
DOCKED: ATOM     21  C   UNL     1     -40.388  -4.998  11.150 -0.09 +0.00    +0.140 A  
DOCKED: ATOM     22  C   UNL     1     -39.013  -5.179  11.003 -0.15 +0.00    +0.029 A  
DOCKED: ATOM     23  F   UNL     1     -41.012  -4.029  10.468 -0.02 -0.00    -0.204 F  
DOCKED: ATOM     24  C   UNL     1     -38.362  -6.187  11.715 -0.14 +0.00    +0.001 A  
DOCKED: ENDBRANCH   2  18
DOCKED: TORSDOF 5
DOCKED: TER
DOCKED: ENDMDL
________________________________________________________________________________


    FINAL DOCKED STATE:
    ________________________


Run:   306 / 512
Time taken for this run:   0.002s

DOCKED: MODEL        306
DOCKED: USER    Run = 306
DOCKED: USER
DOCKED: USER    Estimated Free Energy of Binding    =  -4.24 kcal/mol  [=(1)+(2)+(3)-(4)]
DOCKED: USER
DOCKED: USER    (1) Final Intermolecular Energy     =  -5.73 kcal/mol
DOCKED: USER        vdW + Hbond + desolv Energy     =  -5.73 kcal/mol
DOCKED: USER        Electrostatic Energy            =  +0.00 kcal/mol
DOCKED: USER        Moving Ligand-Fixed Receptor    =  -5.73 kcal/mol
DOCKED: USER        Moving Ligand-Moving Receptor   =  +0.00 kcal/mol
DOCKED: USER    (2) Final Total Internal Energy     =  -1.27 kcal/mol
DOCKED: USER    (3) Torsional Free Energy           =  +1.49 kcal/mol
DOCKED: USER    (4) Unbound System's Energy         =  -1.27 kcal/mol
DOCKED: USER
DOCKED: USER
DOCKED: REMARK  5 active torsions:
DOCKED: REMARK  status: ('A' for Active; 'I' for Inactive)
DOCKED: REMARK    1  A    between atoms: C_2  and  C_19 
DOCKED: REMARK    2  A    between atoms: C_2  and  C_11 
DOCKED: REMARK    3  A    between atoms: C_19  and  C_20 
DOCKED: REMARK    4  A    between atoms: C_20  and  C_21 
DOCKED: REMARK    5  A    between atoms: C_21  and  N_22 
DOCKED: USER                              x       y       z     vdW  Elec       q    Type
DOCKED: USER                           _______ _______ _______ _____ _____    ______ ____
DOCKED: ROOT
DOCKED: ATOM      1  O   UNL     1     -35.733  -9.848  15.038 -0.03 -0.00    -0.346 OA 
DOCKED: ATOM      2  C   UNL     1     -36.634  -9.161  14.111 -0.10 +0.00    +0.130 C  
DOCKED: ATOM      3  C   UNL     1     -37.292 -10.278  13.354 -0.21 +0.00    +0.004 A  
DOCKED: ATOM      4  C   UNL     1     -36.887 -11.498  13.877 -0.22 +0.00    +0.006 A  
DOCKED: ATOM      5  C   UNL     1     -35.957 -11.277  15.007 -0.13 +0.00    +0.169 C  
DOCKED: ATOM      6  C   UNL     1     -38.186 -10.219  12.295 -0.25 -0.00    -0.001 A  
DOCKED: ATOM      7  C   UNL     1     -37.355 -12.694  13.361 -0.31 +0.00    +0.008 A  
DOCKED: ATOM      8  C   UNL     1     -38.663 -11.417  11.761 -0.31 +0.00    +0.010 A  
DOCKED: ATOM      9  C   UNL     1     -38.250 -12.648  12.291 -0.30 +0.00    +0.068 A  
DOCKED: ATOM     10  N   UNL     1     -39.160 -14.853  11.278 -2.56 -0.00    -0.191 NA 
DOCKED: ATOM     11  C   UNL     1     -38.751 -13.864  11.732 -0.32 +0.00    +0.101 C  
DOCKED: ENDROOT
DOCKED: BRANCH   2  12
DOCKED: ATOM     12  C   UNL     1     -37.622  -8.332  14.923 -0.05 +0.00    +0.038 C  
DOCKED: BRANCH  12  13
DOCKED: ATOM     13  C   UNL     1     -38.677  -7.688  14.027 -0.10 +0.00    +0.038 C  
DOCKED: BRANCH  13  14
DOCKED: ATOM     14  C   UNL     1     -38.467  -6.178  13.929 -0.04 +0.00    +0.251 C  
DOCKED: BRANCH  14  15
DOCKED: ATOM     15  N   UNL     1     -38.876  -5.693  12.616 -0.10 +0.00    +0.141 N  
DOCKED: ATOM     16  C   UNL     1     -37.793  -5.859  11.645 -0.09 +0.00    +0.285 C  
DOCKED: ATOM     17  C   UNL     1     -40.078  -6.392  12.159 -0.12 +0.00    +0.285 C  
DOCKED: ENDBRANCH  14  15
DOCKED: ENDBRANCH  13  14
DOCKED: ENDBRANCH  12  13
DOCKED: ENDBRANCH   2  12
DOCKED: BRANCH   2  18
DOCKED: ATOM     18  C   UNL     1     -35.786  -8.291  13.244 -0.13 +0.00    +0.006 A  
DOCKED: ATOM     19  C   UNL     1     -35.179  -7.155  13.778 -0.05 +0.00    +0.001 A  
DOCKED: ATOM     20  C   UNL     1     -34.387  -6.342  12.966 -0.04 +0.00    +0.029 A  
DOCKED: ATOM     21  C   UNL     1     -34.203  -6.666  11.623 -0.06 +0.00    +0.140 A  
DOCKED: ATOM     22  C   UNL     1     -34.811  -7.803  11.089 -0.14 +0.00    +0.029 A  
DOCKED: ATOM     23  F   UNL     1     -33.442  -5.887  10.844 -0.00 -0.00    -0.204 F  
DOCKED: ATOM     24  C   UNL     1     -35.604  -8.616  11.901 -0.09 +0.00    +0.001 A  
DOCKED: ENDBRANCH   2  18
DOCKED: TORSDOF 5
DOCKED: TER
DOCKED: ENDMDL
________________________________________________________________________________


    FINAL DOCKED STATE:
    ________________________


Run:   307 / 512
Time taken for this run:   0.002s

DOCKED: MODEL        307
DOCKED: USER    Run = 307
DOCKED: USER
DOCKED: USER    Estimated Free Energy of Binding    =  -4.40 kcal/mol  [=(1)+(2)+(3)-(4)]
DOCKED: USER
DOCKED: USER    (1) Final Intermolecular Energy     =  -5.89 kcal/mol
DOCKED: USER        vdW + Hbond + desolv Energy     =  -5.89 kcal/mol
DOCKED: USER        Electrostatic Energy            =  +0.00 kcal/mol
DOCKED: USER        Moving Ligand-Fixed Receptor    =  -5.89 kcal/mol
DOCKED: USER        Moving Ligand-Moving Receptor   =  +0.00 kcal/mol
DOCKED: USER    (2) Final Total Internal Energy     =  -1.35 kcal/mol
DOCKED: USER    (3) Torsional Free Energy           =  +1.49 kcal/mol
DOCKED: USER    (4) Unbound System's Energy         =  -1.35 kcal/mol
DOCKED: USER
DOCKED: USER
DOCKED: REMARK  5 active torsions:
DOCKED: REMARK  status: ('A' for Active; 'I' for Inactive)
DOCKED: REMARK    1  A    between atoms: C_2  and  C_19 
DOCKED: REMARK    2  A    between atoms: C_2  and  C_11 
DOCKED: REMARK    3  A    between atoms: C_19  and  C_20 
DOCKED: REMARK    4  A    between atoms: C_20  and  C_21 
DOCKED: REMARK    5  A    between atoms: C_21  and  N_22 
DOCKED: USER                              x       y       z     vdW  Elec       q    Type
DOCKED: USER                           _______ _______ _______ _____ _____    ______ ____
DOCKED: ROOT
DOCKED: ATOM      1  O   UNL     1     -36.783  -8.114  12.785 -0.07 -0.00    -0.346 OA 
DOCKED: ATOM      2  C   UNL     1     -38.161  -8.118  13.277 -0.15 +0.00    +0.130 C  
DOCKED: ATOM      3  C   UNL     1     -38.668  -9.485  12.918 -0.22 +0.00    +0.004 A  
DOCKED: ATOM      4  C   UNL     1     -37.638 -10.235  12.369 -0.27 +0.00    +0.006 A  
DOCKED: ATOM      5  C   UNL     1     -36.393  -9.434  12.338 -0.09 +0.00    +0.169 C  
DOCKED: ATOM      6  C   UNL     1     -39.936 -10.025  13.075 -0.22 -0.00    -0.001 A  
DOCKED: ATOM      7  C   UNL     1     -37.838 -11.541  11.956 -0.33 +0.00    +0.008 A  
DOCKED: ATOM      8  C   UNL     1     -40.155 -11.339  12.659 -0.22 +0.00    +0.010 A  
DOCKED: ATOM      9  C   UNL     1     -39.111 -12.093  12.103 -0.26 +0.00    +0.068 A  
DOCKED: ATOM     10  N   UNL     1     -39.551 -14.532  11.347 -2.55 -0.00    -0.191 NA 
DOCKED: ATOM     11  C   UNL     1     -39.354 -13.438  11.685 -0.36 +0.00    +0.101 C  
DOCKED: ENDROOT
DOCKED: BRANCH   2  12
DOCKED: ATOM     12  C   UNL     1     -38.137  -7.870  14.781 -0.05 +0.00    +0.038 C  
DOCKED: BRANCH  12  13
DOCKED: ATOM     13  C   UNL     1     -36.763  -7.390  15.244 -0.03 +0.00    +0.038 C  
DOCKED: BRANCH  13  14
DOCKED: ATOM     14  C   UNL     1     -36.076  -8.444  16.111 -0.01 +0.00    +0.251 C  
DOCKED: BRANCH  14  15
DOCKED: ATOM     15  N   UNL     1     -36.882  -9.658  16.168 -0.02 +0.00    +0.141 N  
DOCKED: ATOM     16  C   UNL     1     -36.170 -10.779  15.551 -0.05 +0.00    +0.285 C  
DOCKED: ATOM     17  C   UNL     1     -37.233  -9.980  17.552 -0.00 +0.00    +0.285 C  
DOCKED: ENDBRANCH  14  15
DOCKED: ENDBRANCH  13  14
DOCKED: ENDBRANCH  12  13
DOCKED: ENDBRANCH   2  12
DOCKED: BRANCH   2  18
DOCKED: ATOM     18  C   UNL     1     -38.882  -7.024  12.563 -0.19 +0.00    +0.006 A  
DOCKED: ATOM     19  C   UNL     1     -40.257  -6.869  12.735 -0.21 +0.00    +0.001 A  
DOCKED: ATOM     20  C   UNL     1     -40.931  -5.845  12.066 -0.17 +0.00    +0.029 A  
DOCKED: ATOM     21  C   UNL     1     -40.229  -4.980  11.229 -0.11 +0.00    +0.140 A  
DOCKED: ATOM     22  C   UNL     1     -38.854  -5.135  11.058 -0.16 +0.00    +0.029 A  
DOCKED: ATOM     23  F   UNL     1     -40.875  -3.996  10.588 -0.02 -0.00    -0.204 F  
DOCKED: ATOM     24  C   UNL     1     -38.179  -6.159  11.726 -0.14 +0.00    +0.001 A  
DOCKED: ENDBRANCH   2  18
DOCKED: TORSDOF 5
DOCKED: TER
DOCKED: ENDMDL
________________________________________________________________________________


    FINAL DOCKED STATE:
    ________________________


Run:   308 / 512
Time taken for this run:   0.002s

DOCKED: MODEL        308
DOCKED: USER    Run = 308
DOCKED: USER
DOCKED: USER    Estimated Free Energy of Binding    =  -3.84 kcal/mol  [=(1)+(2)+(3)-(4)]
DOCKED: USER
DOCKED: USER    (1) Final Intermolecular Energy     =  -5.33 kcal/mol
DOCKED: USER        vdW + Hbond + desolv Energy     =  -5.33 kcal/mol
DOCKED: USER        Electrostatic Energy            =  +0.00 kcal/mol
DOCKED: USER        Moving Ligand-Fixed Receptor    =  -5.33 kcal/mol
DOCKED: USER        Moving Ligand-Moving Receptor   =  +0.00 kcal/mol
DOCKED: USER    (2) Final Total Internal Energy     =  -1.24 kcal/mol
DOCKED: USER    (3) Torsional Free Energy           =  +1.49 kcal/mol
DOCKED: USER    (4) Unbound System's Energy         =  -1.24 kcal/mol
DOCKED: USER
DOCKED: USER
DOCKED: REMARK  5 active torsions:
DOCKED: REMARK  status: ('A' for Active; 'I' for Inactive)
DOCKED: REMARK    1  A    between atoms: C_2  and  C_19 
DOCKED: REMARK    2  A    between atoms: C_2  and  C_11 
DOCKED: REMARK    3  A    between atoms: C_19  and  C_20 
DOCKED: REMARK    4  A    between atoms: C_20  and  C_21 
DOCKED: REMARK    5  A    between atoms: C_21  and  N_22 
DOCKED: USER                              x       y       z     vdW  Elec       q    Type
DOCKED: USER                           _______ _______ _______ _____ _____    ______ ____
DOCKED: ROOT
DOCKED: ATOM      1  O   UNL     1     -38.635  -7.994  13.146 -0.08 -0.00    -0.346 OA 
DOCKED: ATOM      2  C   UNL     1     -37.327  -8.645  13.235 -0.16 +0.00    +0.130 C  
DOCKED: ATOM      3  C   UNL     1     -37.610 -10.072  12.867 -0.25 +0.00    +0.004 A  
DOCKED: ATOM      4  C   UNL     1     -38.940 -10.203  12.492 -0.24 +0.00    +0.006 A  
DOCKED: ATOM      5  C   UNL     1     -39.616  -8.889  12.574 -0.16 +0.00    +0.169 C  
DOCKED: ATOM      6  C   UNL     1     -36.756 -11.165  12.852 -0.20 -0.00    -0.001 A  
DOCKED: ATOM      7  C   UNL     1     -39.461 -11.424  12.098 -0.24 +0.00    +0.008 A  
DOCKED: ATOM      8  C   UNL     1     -37.267 -12.404  12.461 -0.33 +0.00    +0.010 A  
DOCKED: ATOM      9  C   UNL     1     -38.613 -12.532  12.085 -0.30 +0.00    +0.068 A  
DOCKED: ATOM     10  N   UNL     1     -39.528 -14.845  11.359 -2.55 -0.00    -0.191 NA 
DOCKED: ATOM     11  C   UNL     1     -39.118 -13.807  11.686 -0.36 +0.00    +0.101 C  
DOCKED: ENDROOT
DOCKED: BRANCH   2  12
DOCKED: ATOM     12  C   UNL     1     -36.378  -7.957  12.261 -0.15 +0.00    +0.038 C  
DOCKED: BRANCH  12  13
DOCKED: ATOM     13  C   UNL     1     -36.902  -6.582  11.850 -0.09 +0.00    +0.038 C  
DOCKED: BRANCH  13  14
DOCKED: ATOM     14  C   UNL     1     -36.807  -5.590  13.007 -0.04 +0.00    +0.251 C  
DOCKED: BRANCH  14  15
DOCKED: ATOM     15  N   UNL     1     -35.725  -4.640  12.773 -0.02 +0.00    +0.141 N  
DOCKED: ATOM     16  C   UNL     1     -36.253  -3.368  12.278 -0.01 +0.00    +0.285 C  
DOCKED: ATOM     17  C   UNL     1     -34.953  -4.427  13.998 -0.00 +0.00    +0.285 C  
DOCKED: ENDBRANCH  14  15
DOCKED: ENDBRANCH  13  14
DOCKED: ENDBRANCH  12  13
DOCKED: ENDBRANCH   2  12
DOCKED: BRANCH   2  18
DOCKED: ATOM     18  C   UNL     1     -36.857  -8.490  14.643 -0.06 +0.00    +0.006 A  
DOCKED: ATOM     19  C   UNL     1     -37.783  -8.319  15.672 -0.02 +0.00    +0.001 A  
DOCKED: ATOM     20  C   UNL     1     -37.343  -8.174  16.988 -0.00 +0.00    +0.029 A  
DOCKED: ATOM     21  C   UNL     1     -35.979  -8.200  17.273 -0.00 +0.00    +0.140 A  
DOCKED: ATOM     22  C   UNL     1     -35.053  -8.371  16.244 -0.01 +0.00    +0.029 A  
DOCKED: ATOM     23  F   UNL     1     -35.556  -8.063  18.537 +0.00 -0.00    -0.204 F  
DOCKED: ATOM     24  C   UNL     1     -35.493  -8.516  14.927 -0.05 +0.00    +0.001 A  
DOCKED: ENDBRANCH   2  18
DOCKED: TORSDOF 5
DOCKED: TER
DOCKED: ENDMDL
________________________________________________________________________________


    FINAL DOCKED STATE:
    ________________________


Run:   309 / 512
Time taken for this run:   0.002s

DOCKED: MODEL        309
DOCKED: USER    Run = 309
DOCKED: USER
DOCKED: USER    Estimated Free Energy of Binding    =  -4.27 kcal/mol  [=(1)+(2)+(3)-(4)]
DOCKED: USER
DOCKED: USER    (1) Final Intermolecular Energy     =  -5.76 kcal/mol
DOCKED: USER        vdW + Hbond + desolv Energy     =  -5.76 kcal/mol
DOCKED: USER        Electrostatic Energy            =  +0.00 kcal/mol
DOCKED: USER        Moving Ligand-Fixed Receptor    =  -5.76 kcal/mol
DOCKED: USER        Moving Ligand-Moving Receptor   =  +0.00 kcal/mol
DOCKED: USER    (2) Final Total Internal Energy     =  -1.10 kcal/mol
DOCKED: USER    (3) Torsional Free Energy           =  +1.49 kcal/mol
DOCKED: USER    (4) Unbound System's Energy         =  -1.10 kcal/mol
DOCKED: USER
DOCKED: USER
DOCKED: REMARK  5 active torsions:
DOCKED: REMARK  status: ('A' for Active; 'I' for Inactive)
DOCKED: REMARK    1  A    between atoms: C_2  and  C_19 
DOCKED: REMARK    2  A    between atoms: C_2  and  C_11 
DOCKED: REMARK    3  A    between atoms: C_19  and  C_20 
DOCKED: REMARK    4  A    between atoms: C_20  and  C_21 
DOCKED: REMARK    5  A    between atoms: C_21  and  N_22 
DOCKED: USER                              x       y       z     vdW  Elec       q    Type
DOCKED: USER                           _______ _______ _______ _____ _____    ______ ____
DOCKED: ROOT
DOCKED: ATOM      1  O   UNL     1     -38.117 -10.702  14.918 -0.01 -0.00    -0.346 OA 
DOCKED: ATOM      2  C   UNL     1     -37.024 -11.639  14.659 -0.14 +0.00    +0.130 C  
DOCKED: ATOM      3  C   UNL     1     -37.406 -12.288  13.360 -0.29 +0.00    +0.004 A  
DOCKED: ATOM      4  C   UNL     1     -38.558 -11.696  12.863 -0.26 +0.00    +0.006 A  
DOCKED: ATOM      5  C   UNL     1     -39.005 -10.621  13.778 -0.12 +0.00    +0.169 C  
DOCKED: ATOM      6  C   UNL     1     -36.777 -13.312  12.667 -0.33 -0.00    -0.001 A  
DOCKED: ATOM      7  C   UNL     1     -39.122 -12.106  11.668 -0.33 +0.00    +0.008 A  
DOCKED: ATOM      8  C   UNL     1     -37.336 -13.741  11.462 -0.17 +0.00    +0.010 A  
DOCKED: ATOM      9  C   UNL     1     -38.502 -13.141  10.965 -0.40 +0.00    +0.068 A  
DOCKED: ATOM     10  N   UNL     1     -39.510 -13.957   8.722 -1.63 -0.00    -0.191 NA 
DOCKED: ATOM     11  C   UNL     1     -39.058 -13.591   9.728 -0.52 +0.00    +0.101 C  
DOCKED: ENDROOT
DOCKED: BRANCH   2  12
DOCKED: ATOM     12  C   UNL     1     -35.723 -10.850  14.568 -0.17 +0.00    +0.038 C  
DOCKED: BRANCH  12  13
DOCKED: ATOM     13  C   UNL     1     -35.666 -10.015  13.291 -0.11 +0.00    +0.038 C  
DOCKED: BRANCH  13  14
DOCKED: ATOM     14  C   UNL     1     -35.242  -8.579  13.592 -0.09 +0.00    +0.251 C  
DOCKED: BRANCH  14  15
DOCKED: ATOM     15  N   UNL     1     -35.955  -7.647  12.726 -0.10 +0.00    +0.141 N  
DOCKED: ATOM     16  C   UNL     1     -35.334  -7.594  11.402 -0.07 +0.00    +0.285 C  
DOCKED: ATOM     17  C   UNL     1     -37.364  -8.025  12.611 -0.11 +0.00    +0.285 C  
DOCKED: ENDBRANCH  14  15
DOCKED: ENDBRANCH  13  14
DOCKED: ENDBRANCH  12  13
DOCKED: ENDBRANCH   2  12
DOCKED: BRANCH   2  18
DOCKED: ATOM     18  C   UNL     1     -36.992 -12.599  15.801 -0.16 +0.00    +0.006 A  
DOCKED: ATOM     19  C   UNL     1     -36.636 -12.156  17.074 -0.10 +0.00    +0.001 A  
DOCKED: ATOM     20  C   UNL     1     -36.607 -13.054  18.141 -0.12 +0.00    +0.029 A  
DOCKED: ATOM     21  C   UNL     1     -36.934 -14.393  17.934 -0.19 +0.00    +0.140 A  
DOCKED: ATOM     22  C   UNL     1     -37.291 -14.836  16.661 -0.03 +0.00    +0.029 A  
DOCKED: ATOM     23  F   UNL     1     -36.908 -15.255  18.959 -0.08 -0.00    -0.204 F  
DOCKED: ATOM     24  C   UNL     1     -37.320 -13.938  15.593 -0.21 +0.00    +0.001 A  
DOCKED: ENDBRANCH   2  18
DOCKED: TORSDOF 5
DOCKED: TER
DOCKED: ENDMDL
________________________________________________________________________________


    FINAL DOCKED STATE:
    ________________________


Run:   310 / 512
Time taken for this run:   0.002s

DOCKED: MODEL        310
DOCKED: USER    Run = 310
DOCKED: USER
DOCKED: USER    Estimated Free Energy of Binding    =  -6.18 kcal/mol  [=(1)+(2)+(3)-(4)]
DOCKED: USER
DOCKED: USER    (1) Final Intermolecular Energy     =  -7.67 kcal/mol
DOCKED: USER        vdW + Hbond + desolv Energy     =  -7.67 kcal/mol
DOCKED: USER        Electrostatic Energy            =  +0.00 kcal/mol
DOCKED: USER        Moving Ligand-Fixed Receptor    =  -7.67 kcal/mol
DOCKED: USER        Moving Ligand-Moving Receptor   =  +0.00 kcal/mol
DOCKED: USER    (2) Final Total Internal Energy     =  -1.03 kcal/mol
DOCKED: USER    (3) Torsional Free Energy           =  +1.49 kcal/mol
DOCKED: USER    (4) Unbound System's Energy         =  -1.03 kcal/mol
DOCKED: USER
DOCKED: USER
DOCKED: REMARK  5 active torsions:
DOCKED: REMARK  status: ('A' for Active; 'I' for Inactive)
DOCKED: REMARK    1  A    between atoms: C_2  and  C_19 
DOCKED: REMARK    2  A    between atoms: C_2  and  C_11 
DOCKED: REMARK    3  A    between atoms: C_19  and  C_20 
DOCKED: REMARK    4  A    between atoms: C_20  and  C_21 
DOCKED: REMARK    5  A    between atoms: C_21  and  N_22 
DOCKED: USER                              x       y       z     vdW  Elec       q    Type
DOCKED: USER                           _______ _______ _______ _____ _____    ______ ____
DOCKED: ROOT
DOCKED: ATOM      1  O   UNL     1     -36.191 -14.233  13.581 -0.23 -0.00    -0.346 OA 
DOCKED: ATOM      2  C   UNL     1     -36.939 -12.981  13.707 -0.29 +0.00    +0.130 C  
DOCKED: ATOM      3  C   UNL     1     -37.667 -12.864  12.400 -0.37 +0.00    +0.004 A  
DOCKED: ATOM      4  C   UNL     1     -37.444 -14.002  11.637 -0.36 +0.00    +0.006 A  
DOCKED: ATOM      5  C   UNL     1     -36.576 -14.943  12.381 -0.21 +0.00    +0.169 C  
DOCKED: ATOM      6  C   UNL     1     -38.473 -11.838  11.928 -0.35 -0.00    -0.001 A  
DOCKED: ATOM      7  C   UNL     1     -38.010 -14.151  10.383 -0.33 +0.00    +0.008 A  
DOCKED: ATOM      8  C   UNL     1     -39.047 -11.972  10.663 -0.09 +0.00    +0.010 A  
DOCKED: ATOM      9  C   UNL     1     -38.817 -13.123   9.895 -0.45 +0.00    +0.068 A  
DOCKED: ATOM     10  N   UNL     1     -39.903 -13.342   7.552 -3.10 -0.00    -0.191 NA 
DOCKED: ATOM     11  C   UNL     1     -39.415 -13.243   8.603 -0.30 +0.00    +0.101 C  
DOCKED: ENDROOT
DOCKED: BRANCH   2  12
DOCKED: ATOM     12  C   UNL     1     -37.878 -13.099  14.902 -0.24 +0.00    +0.038 C  
DOCKED: BRANCH  12  13
DOCKED: ATOM     13  C   UNL     1     -39.236 -13.663  14.488 -0.26 +0.00    +0.038 C  
DOCKED: BRANCH  13  14
DOCKED: ATOM     14  C   UNL     1     -40.287 -13.410  15.568 -0.09 +0.00    +0.251 C  
DOCKED: BRANCH  14  15
DOCKED: ATOM     15  N   UNL     1     -40.507 -11.979  15.737 -0.04 +0.00    +0.141 N  
DOCKED: ATOM     16  C   UNL     1     -40.974 -11.377  14.487 -0.03 +0.00    +0.285 C  
DOCKED: ATOM     17  C   UNL     1     -41.469 -11.728  16.811 -0.00 +0.00    +0.285 C  
DOCKED: ENDBRANCH  14  15
DOCKED: ENDBRANCH  13  14
DOCKED: ENDBRANCH  12  13
DOCKED: ENDBRANCH   2  12
DOCKED: BRANCH   2  18
DOCKED: ATOM     18  C   UNL     1     -35.938 -11.894  13.915 -0.23 +0.00    +0.006 A  
DOCKED: ATOM     19  C   UNL     1     -36.244 -10.585  13.545 -0.19 +0.00    +0.001 A  
DOCKED: ATOM     20  C   UNL     1     -35.308  -9.569  13.739 -0.13 +0.00    +0.029 A  
DOCKED: ATOM     21  C   UNL     1     -34.067  -9.863  14.303 -0.09 +0.00    +0.140 A  
DOCKED: ATOM     22  C   UNL     1     -33.761 -11.173  14.673 -0.15 +0.00    +0.029 A  
DOCKED: ATOM     23  F   UNL     1     -33.169  -8.888  14.491 -0.01 -0.00    -0.204 F  
DOCKED: ATOM     24  C   UNL     1     -34.698 -12.190  14.479 -0.12 +0.00    +0.001 A  
DOCKED: ENDBRANCH   2  18
DOCKED: TORSDOF 5
DOCKED: TER
DOCKED: ENDMDL
________________________________________________________________________________


    FINAL DOCKED STATE:
    ________________________


Run:   311 / 512
Time taken for this run:   0.002s

DOCKED: MODEL        311
DOCKED: USER    Run = 311
DOCKED: USER
DOCKED: USER    Estimated Free Energy of Binding    =  -4.10 kcal/mol  [=(1)+(2)+(3)-(4)]
DOCKED: USER
DOCKED: USER    (1) Final Intermolecular Energy     =  -5.59 kcal/mol
DOCKED: USER        vdW + Hbond + desolv Energy     =  -5.59 kcal/mol
DOCKED: USER        Electrostatic Energy            =  +0.00 kcal/mol
DOCKED: USER        Moving Ligand-Fixed Receptor    =  -5.59 kcal/mol
DOCKED: USER        Moving Ligand-Moving Receptor   =  +0.00 kcal/mol
DOCKED: USER    (2) Final Total Internal Energy     =  -1.33 kcal/mol
DOCKED: USER    (3) Torsional Free Energy           =  +1.49 kcal/mol
DOCKED: USER    (4) Unbound System's Energy         =  -1.33 kcal/mol
DOCKED: USER
DOCKED: USER
DOCKED: REMARK  5 active torsions:
DOCKED: REMARK  status: ('A' for Active; 'I' for Inactive)
DOCKED: REMARK    1  A    between atoms: C_2  and  C_19 
DOCKED: REMARK    2  A    between atoms: C_2  and  C_11 
DOCKED: REMARK    3  A    between atoms: C_19  and  C_20 
DOCKED: REMARK    4  A    between atoms: C_20  and  C_21 
DOCKED: REMARK    5  A    between atoms: C_21  and  N_22 
DOCKED: USER                              x       y       z     vdW  Elec       q    Type
DOCKED: USER                           _______ _______ _______ _____ _____    ______ ____
DOCKED: ROOT
DOCKED: ATOM      1  O   UNL     1     -39.783  -8.284  14.018 -0.03 -0.00    -0.346 OA 
DOCKED: ATOM      2  C   UNL     1     -38.404  -8.492  13.574 -0.14 +0.00    +0.130 C  
DOCKED: ATOM      3  C   UNL     1     -38.403  -9.898  13.049 -0.22 +0.00    +0.004 A  
DOCKED: ATOM      4  C   UNL     1     -39.692 -10.411  13.087 -0.21 +0.00    +0.006 A  
DOCKED: ATOM      5  C   UNL     1     -40.623  -9.391  13.619 -0.15 +0.00    +0.169 C  
DOCKED: ATOM      6  C   UNL     1     -37.348 -10.659  12.567 -0.28 -0.00    -0.001 A  
DOCKED: ATOM      7  C   UNL     1     -39.969 -11.696  12.651 -0.23 +0.00    +0.008 A  
DOCKED: ATOM      8  C   UNL     1     -37.611 -11.958  12.127 -0.33 +0.00    +0.010 A  
DOCKED: ATOM      9  C   UNL     1     -38.915 -12.473  12.168 -0.27 +0.00    +0.068 A  
DOCKED: ATOM     10  N   UNL     1     -39.369 -14.885  11.340 -2.57 -0.00    -0.191 NA 
DOCKED: ATOM     11  C   UNL     1     -39.166 -13.804  11.712 -0.36 +0.00    +0.101 C  
DOCKED: ENDROOT
DOCKED: BRANCH   2  12
DOCKED: ATOM     12  C   UNL     1     -38.081  -7.458  12.501 -0.18 +0.00    +0.038 C  
DOCKED: BRANCH  12  13
DOCKED: ATOM     13  C   UNL     1     -38.878  -6.172  12.709 -0.16 +0.00    +0.038 C  
DOCKED: BRANCH  13  14
DOCKED: ATOM     14  C   UNL     1     -40.270  -6.283  12.090 -0.13 +0.00    +0.251 C  
DOCKED: BRANCH  14  15
DOCKED: ATOM     15  N   UNL     1     -41.296  -6.119  13.114 -0.10 +0.00    +0.141 N  
DOCKED: ATOM     16  C   UNL     1     -40.755  -5.414  14.277 -0.01 +0.00    +0.285 C  
DOCKED: ATOM     17  C   UNL     1     -42.452  -5.400  12.576 -0.07 +0.00    +0.285 C  
DOCKED: ENDBRANCH  14  15
DOCKED: ENDBRANCH  13  14
DOCKED: ENDBRANCH  12  13
DOCKED: ENDBRANCH   2  12
DOCKED: BRANCH   2  18
DOCKED: ATOM     18  C   UNL     1     -37.529  -8.317  14.771 -0.05 +0.00    +0.006 A  
DOCKED: ATOM     19  C   UNL     1     -36.187  -7.974  14.609 -0.05 +0.00    +0.001 A  
DOCKED: ATOM     20  C   UNL     1     -35.371  -7.812  15.729 -0.01 +0.00    +0.029 A  
DOCKED: ATOM     21  C   UNL     1     -35.897  -7.991  17.007 -0.00 +0.00    +0.140 A  
DOCKED: ATOM     22  C   UNL     1     -37.239  -8.333  17.168 -0.00 +0.00    +0.029 A  
DOCKED: ATOM     23  F   UNL     1     -35.113  -7.833  18.082 -0.00 -0.00    -0.204 F  
DOCKED: ATOM     24  C   UNL     1     -38.057  -8.497  16.049 -0.02 +0.00    +0.001 A  
DOCKED: ENDBRANCH   2  18
DOCKED: TORSDOF 5
DOCKED: TER
DOCKED: ENDMDL
________________________________________________________________________________


    FINAL DOCKED STATE:
    ________________________


Run:   312 / 512
Time taken for this run:   0.002s

DOCKED: MODEL        312
DOCKED: USER    Run = 312
DOCKED: USER
DOCKED: USER    Estimated Free Energy of Binding    =  -5.71 kcal/mol  [=(1)+(2)+(3)-(4)]
DOCKED: USER
DOCKED: USER    (1) Final Intermolecular Energy     =  -7.20 kcal/mol
DOCKED: USER        vdW + Hbond + desolv Energy     =  -7.20 kcal/mol
DOCKED: USER        Electrostatic Energy            =  +0.00 kcal/mol
DOCKED: USER        Moving Ligand-Fixed Receptor    =  -7.20 kcal/mol
DOCKED: USER        Moving Ligand-Moving Receptor   =  +0.00 kcal/mol
DOCKED: USER    (2) Final Total Internal Energy     =  -0.86 kcal/mol
DOCKED: USER    (3) Torsional Free Energy           =  +1.49 kcal/mol
DOCKED: USER    (4) Unbound System's Energy         =  -0.86 kcal/mol
DOCKED: USER
DOCKED: USER
DOCKED: REMARK  5 active torsions:
DOCKED: REMARK  status: ('A' for Active; 'I' for Inactive)
DOCKED: REMARK    1  A    between atoms: C_2  and  C_19 
DOCKED: REMARK    2  A    between atoms: C_2  and  C_11 
DOCKED: REMARK    3  A    between atoms: C_19  and  C_20 
DOCKED: REMARK    4  A    between atoms: C_20  and  C_21 
DOCKED: REMARK    5  A    between atoms: C_21  and  N_22 
DOCKED: USER                              x       y       z     vdW  Elec       q    Type
DOCKED: USER                           _______ _______ _______ _____ _____    ______ ____
DOCKED: ROOT
DOCKED: ATOM      1  O   UNL     1     -41.253 -12.762  14.251 -0.03 -0.00    -0.346 OA 
DOCKED: ATOM      2  C   UNL     1     -39.989 -12.050  14.061 -0.12 +0.00    +0.130 C  
DOCKED: ATOM      3  C   UNL     1     -39.685 -12.239  12.603 -0.25 +0.00    +0.004 A  
DOCKED: ATOM      4  C   UNL     1     -40.737 -12.905  11.989 -0.30 +0.00    +0.006 A  
DOCKED: ATOM      5  C   UNL     1     -41.799 -13.187  12.981 -0.17 +0.00    +0.169 C  
DOCKED: ATOM      6  C   UNL     1     -38.572 -11.843  11.875 -0.35 -0.00    -0.001 A  
DOCKED: ATOM      7  C   UNL     1     -40.711 -13.201  10.637 -0.28 +0.00    +0.008 A  
DOCKED: ATOM      8  C   UNL     1     -38.530 -12.138  10.511 -0.34 +0.00    +0.010 A  
DOCKED: ATOM      9  C   UNL     1     -39.594 -12.813   9.896 -0.31 +0.00    +0.068 A  
DOCKED: ATOM     10  N   UNL     1     -39.486 -13.341   7.361 -2.94 -0.00    -0.191 NA 
DOCKED: ATOM     11  C   UNL     1     -39.534 -13.105   8.498 -0.27 +0.00    +0.101 C  
DOCKED: ENDROOT
DOCKED: BRANCH   2  12
DOCKED: ATOM     12  C   UNL     1     -40.197 -10.588  14.439 -0.11 +0.00    +0.038 C  
DOCKED: BRANCH  12  13
DOCKED: ATOM     13  C   UNL     1     -39.609  -9.651  13.385 -0.21 +0.00    +0.038 C  
DOCKED: BRANCH  13  14
DOCKED: ATOM     14  C   UNL     1     -40.674  -8.706  12.834 -0.17 +0.00    +0.251 C  
DOCKED: BRANCH  14  15
DOCKED: ATOM     15  N   UNL     1     -40.118  -7.372  12.639 -0.20 +0.00    +0.141 N  
DOCKED: ATOM     16  C   UNL     1     -40.448  -6.505  13.771 -0.06 +0.00    +0.285 C  
DOCKED: ATOM     17  C   UNL     1     -38.667  -7.441  12.459 -0.14 +0.00    +0.285 C  
DOCKED: ENDBRANCH  14  15
DOCKED: ENDBRANCH  13  14
DOCKED: ENDBRANCH  12  13
DOCKED: ENDBRANCH   2  12
DOCKED: BRANCH   2  18
DOCKED: ATOM     18  C   UNL     1     -38.984 -12.698  14.953 -0.15 +0.00    +0.006 A  
DOCKED: ATOM     19  C   UNL     1     -38.374 -13.891  14.565 -0.27 +0.00    +0.001 A  
DOCKED: ATOM     20  C   UNL     1     -37.435 -14.497  15.400 -0.13 +0.00    +0.029 A  
DOCKED: ATOM     21  C   UNL     1     -37.107 -13.910  16.621 -0.14 +0.00    +0.140 A  
DOCKED: ATOM     22  C   UNL     1     -37.717 -12.717  17.009 -0.12 +0.00    +0.029 A  
DOCKED: ATOM     23  F   UNL     1     -36.204 -14.490  17.422 -0.06 -0.00    -0.204 F  
DOCKED: ATOM     24  C   UNL     1     -38.657 -12.110  16.174 -0.09 +0.00    +0.001 A  
DOCKED: ENDBRANCH   2  18
DOCKED: TORSDOF 5
DOCKED: TER
DOCKED: ENDMDL
________________________________________________________________________________


    FINAL DOCKED STATE:
    ________________________


Run:   313 / 512
Time taken for this run:   0.002s

DOCKED: MODEL        313
DOCKED: USER    Run = 313
DOCKED: USER
DOCKED: USER    Estimated Free Energy of Binding    =  -4.73 kcal/mol  [=(1)+(2)+(3)-(4)]
DOCKED: USER
DOCKED: USER    (1) Final Intermolecular Energy     =  -6.22 kcal/mol
DOCKED: USER        vdW + Hbond + desolv Energy     =  -6.22 kcal/mol
DOCKED: USER        Electrostatic Energy            =  +0.00 kcal/mol
DOCKED: USER        Moving Ligand-Fixed Receptor    =  -6.22 kcal/mol
DOCKED: USER        Moving Ligand-Moving Receptor   =  +0.00 kcal/mol
DOCKED: USER    (2) Final Total Internal Energy     =  -1.42 kcal/mol
DOCKED: USER    (3) Torsional Free Energy           =  +1.49 kcal/mol
DOCKED: USER    (4) Unbound System's Energy         =  -1.42 kcal/mol
DOCKED: USER
DOCKED: USER
DOCKED: REMARK  5 active torsions:
DOCKED: REMARK  status: ('A' for Active; 'I' for Inactive)
DOCKED: REMARK    1  A    between atoms: C_2  and  C_19 
DOCKED: REMARK    2  A    between atoms: C_2  and  C_11 
DOCKED: REMARK    3  A    between atoms: C_19  and  C_20 
DOCKED: REMARK    4  A    between atoms: C_20  and  C_21 
DOCKED: REMARK    5  A    between atoms: C_21  and  N_22 
DOCKED: USER                              x       y       z     vdW  Elec       q    Type
DOCKED: USER                           _______ _______ _______ _____ _____    ______ ____
DOCKED: ROOT
DOCKED: ATOM      1  O   UNL     1     -37.188  -8.177  12.760 -0.08 -0.00    -0.346 OA 
DOCKED: ATOM      2  C   UNL     1     -38.482  -8.401  13.408 -0.15 +0.00    +0.130 C  
DOCKED: ATOM      3  C   UNL     1     -38.827  -9.815  13.042 -0.22 +0.00    +0.004 A  
DOCKED: ATOM      4  C   UNL     1     -37.774 -10.386  12.341 -0.28 +0.00    +0.006 A  
DOCKED: ATOM      5  C   UNL     1     -36.671  -9.409  12.207 -0.12 +0.00    +0.169 C  
DOCKED: ATOM      6  C   UNL     1     -39.976 -10.542  13.317 -0.19 -0.00    -0.001 A  
DOCKED: ATOM      7  C   UNL     1     -37.834 -11.694  11.890 -0.33 +0.00    +0.008 A  
DOCKED: ATOM      8  C   UNL     1     -40.053 -11.860  12.865 -0.22 +0.00    +0.010 A  
DOCKED: ATOM      9  C   UNL     1     -38.987 -12.433  12.156 -0.27 +0.00    +0.068 A  
DOCKED: ATOM     10  N   UNL     1     -39.162 -14.885  11.335 -2.61 -0.00    -0.191 NA 
DOCKED: ATOM     11  C   UNL     1     -39.084 -13.785  11.703 -0.37 +0.00    +0.101 C  
DOCKED: ENDROOT
DOCKED: BRANCH   2  12
DOCKED: ATOM     12  C   UNL     1     -38.311  -8.201  14.909 -0.05 +0.00    +0.038 C  
DOCKED: BRANCH  12  13
DOCKED: ATOM     13  C   UNL     1     -36.849  -8.345  15.327 -0.04 +0.00    +0.038 C  
DOCKED: BRANCH  13  14
DOCKED: ATOM     14  C   UNL     1     -36.634  -9.619  16.142 -0.01 +0.00    +0.251 C  
DOCKED: BRANCH  14  15
DOCKED: ATOM     15  N   UNL     1     -36.721 -10.793  15.280 -0.06 +0.00    +0.141 N  
DOCKED: ATOM     16  C   UNL     1     -35.385 -11.296  14.958 -0.11 +0.00    +0.285 C  
DOCKED: ATOM     17  C   UNL     1     -37.519 -11.842  15.916 -0.05 +0.00    +0.285 C  
DOCKED: ENDBRANCH  14  15
DOCKED: ENDBRANCH  13  14
DOCKED: ENDBRANCH  12  13
DOCKED: ENDBRANCH   2  12
DOCKED: BRANCH   2  18
DOCKED: ATOM     18  C   UNL     1     -39.434  -7.403  12.837 -0.21 +0.00    +0.006 A  
DOCKED: ATOM     19  C   UNL     1     -38.950  -6.311  12.117 -0.18 +0.00    +0.001 A  
DOCKED: ATOM     20  C   UNL     1     -39.842  -5.379  11.584 -0.15 +0.00    +0.029 A  
DOCKED: ATOM     21  C   UNL     1     -41.214  -5.541  11.770 -0.10 +0.00    +0.140 A  
DOCKED: ATOM     22  C   UNL     1     -41.696  -6.634  12.490 -0.19 +0.00    +0.029 A  
DOCKED: ATOM     23  F   UNL     1     -42.069  -4.647  11.257 -0.03 -0.00    -0.204 F  
DOCKED: ATOM     24  C   UNL     1     -40.806  -7.566  13.024 -0.21 +0.00    +0.001 A  
DOCKED: ENDBRANCH   2  18
DOCKED: TORSDOF 5
DOCKED: TER
DOCKED: ENDMDL
________________________________________________________________________________


    FINAL DOCKED STATE:
    ________________________


Run:   314 / 512
Time taken for this run:   0.002s

DOCKED: MODEL        314
DOCKED: USER    Run = 314
DOCKED: USER
DOCKED: USER    Estimated Free Energy of Binding    =  -4.08 kcal/mol  [=(1)+(2)+(3)-(4)]
DOCKED: USER
DOCKED: USER    (1) Final Intermolecular Energy     =  -5.57 kcal/mol
DOCKED: USER        vdW + Hbond + desolv Energy     =  -5.57 kcal/mol
DOCKED: USER        Electrostatic Energy            =  +0.00 kcal/mol
DOCKED: USER        Moving Ligand-Fixed Receptor    =  -5.57 kcal/mol
DOCKED: USER        Moving Ligand-Moving Receptor   =  +0.00 kcal/mol
DOCKED: USER    (2) Final Total Internal Energy     =  -1.46 kcal/mol
DOCKED: USER    (3) Torsional Free Energy           =  +1.49 kcal/mol
DOCKED: USER    (4) Unbound System's Energy         =  -1.46 kcal/mol
DOCKED: USER
DOCKED: USER
DOCKED: REMARK  5 active torsions:
DOCKED: REMARK  status: ('A' for Active; 'I' for Inactive)
DOCKED: REMARK    1  A    between atoms: C_2  and  C_19 
DOCKED: REMARK    2  A    between atoms: C_2  and  C_11 
DOCKED: REMARK    3  A    between atoms: C_19  and  C_20 
DOCKED: REMARK    4  A    between atoms: C_20  and  C_21 
DOCKED: REMARK    5  A    between atoms: C_21  and  N_22 
DOCKED: USER                              x       y       z     vdW  Elec       q    Type
DOCKED: USER                           _______ _______ _______ _____ _____    ______ ____
DOCKED: ROOT
DOCKED: ATOM      1  O   UNL     1     -38.833  -8.322  14.445 -0.01 -0.00    -0.346 OA 
DOCKED: ATOM      2  C   UNL     1     -40.249  -8.519  14.135 -0.10 +0.00    +0.130 C  
DOCKED: ATOM      3  C   UNL     1     -40.288  -9.866  13.473 -0.19 +0.00    +0.004 A  
DOCKED: ATOM      4  C   UNL     1     -39.024 -10.437  13.501 -0.18 +0.00    +0.006 A  
DOCKED: ATOM      5  C   UNL     1     -38.077  -9.528  14.185 -0.09 +0.00    +0.169 C  
DOCKED: ATOM      6  C   UNL     1     -41.359 -10.537  12.901 -0.23 -0.00    -0.001 A  
DOCKED: ATOM      7  C   UNL     1     -38.786 -11.689  12.959 -0.23 +0.00    +0.008 A  
DOCKED: ATOM      8  C   UNL     1     -41.135 -11.798  12.346 -0.25 +0.00    +0.010 A  
DOCKED: ATOM      9  C   UNL     1     -39.855 -12.371  12.375 -0.22 +0.00    +0.068 A  
DOCKED: ATOM     10  N   UNL     1     -39.474 -14.716  11.341 -2.55 -0.00    -0.191 NA 
DOCKED: ATOM     11  C   UNL     1     -39.644 -13.664  11.804 -0.32 +0.00    +0.101 C  
DOCKED: ENDROOT
DOCKED: BRANCH   2  12
DOCKED: ATOM     12  C   UNL     1     -41.039  -8.475  15.438 -0.05 +0.00    +0.038 C  
DOCKED: BRANCH  12  13
DOCKED: ATOM     13  C   UNL     1     -40.296  -9.191  16.564 -0.02 +0.00    +0.038 C  
DOCKED: BRANCH  13  14
DOCKED: ATOM     14  C   UNL     1     -40.774 -10.634  16.708 -0.00 +0.00    +0.251 C  
DOCKED: BRANCH  14  15
DOCKED: ATOM     15  N   UNL     1     -39.698 -11.560  16.374 -0.03 +0.00    +0.141 N  
DOCKED: ATOM     16  C   UNL     1     -38.776 -11.708  17.500 -0.01 +0.00    +0.285 C  
DOCKED: ATOM     17  C   UNL     1     -40.242 -12.864  15.989 -0.05 +0.00    +0.285 C  
DOCKED: ENDBRANCH  14  15
DOCKED: ENDBRANCH  13  14
DOCKED: ENDBRANCH  12  13
DOCKED: ENDBRANCH   2  12
DOCKED: BRANCH   2  18
DOCKED: ATOM     18  C   UNL     1     -40.654  -7.410  13.222 -0.19 +0.00    +0.006 A  
DOCKED: ATOM     19  C   UNL     1     -42.005  -7.180  12.962 -0.20 +0.00    +0.001 A  
DOCKED: ATOM     20  C   UNL     1     -42.382  -6.143  12.108 -0.20 +0.00    +0.029 A  
DOCKED: ATOM     21  C   UNL     1     -41.410  -5.338  11.516 -0.05 +0.00    +0.140 A  
DOCKED: ATOM     22  C   UNL     1     -40.059  -5.569  11.777 -0.16 +0.00    +0.029 A  
DOCKED: ATOM     23  F   UNL     1     -41.772  -4.342  10.698 -0.03 -0.00    -0.204 F  
DOCKED: ATOM     24  C   UNL     1     -39.681  -6.607  12.631 -0.19 +0.00    +0.001 A  
DOCKED: ENDBRANCH   2  18
DOCKED: TORSDOF 5
DOCKED: TER
DOCKED: ENDMDL
________________________________________________________________________________


    FINAL DOCKED STATE:
    ________________________


Run:   315 / 512
Time taken for this run:   0.002s

DOCKED: MODEL        315
DOCKED: USER    Run = 315
DOCKED: USER
DOCKED: USER    Estimated Free Energy of Binding    =  -3.29 kcal/mol  [=(1)+(2)+(3)-(4)]
DOCKED: USER
DOCKED: USER    (1) Final Intermolecular Energy     =  -4.78 kcal/mol
DOCKED: USER        vdW + Hbond + desolv Energy     =  -4.78 kcal/mol
DOCKED: USER        Electrostatic Energy            =  +0.00 kcal/mol
DOCKED: USER        Moving Ligand-Fixed Receptor    =  -4.78 kcal/mol
DOCKED: USER        Moving Ligand-Moving Receptor   =  +0.00 kcal/mol
DOCKED: USER    (2) Final Total Internal Energy     =  -1.17 kcal/mol
DOCKED: USER    (3) Torsional Free Energy           =  +1.49 kcal/mol
DOCKED: USER    (4) Unbound System's Energy         =  -1.17 kcal/mol
DOCKED: USER
DOCKED: USER
DOCKED: REMARK  5 active torsions:
DOCKED: REMARK  status: ('A' for Active; 'I' for Inactive)
DOCKED: REMARK    1  A    between atoms: C_2  and  C_19 
DOCKED: REMARK    2  A    between atoms: C_2  and  C_11 
DOCKED: REMARK    3  A    between atoms: C_19  and  C_20 
DOCKED: REMARK    4  A    between atoms: C_20  and  C_21 
DOCKED: REMARK    5  A    between atoms: C_21  and  N_22 
DOCKED: USER                              x       y       z     vdW  Elec       q    Type
DOCKED: USER                           _______ _______ _______ _____ _____    ______ ____
DOCKED: ROOT
DOCKED: ATOM      1  O   UNL     1     -33.579  -8.847   7.327 -0.06 -0.00    -0.346 OA 
DOCKED: ATOM      2  C   UNL     1     -32.712  -8.640   8.488 -0.13 +0.00    +0.130 C  
DOCKED: ATOM      3  C   UNL     1     -32.301 -10.029   8.882 -0.18 +0.00    +0.004 A  
DOCKED: ATOM      4  C   UNL     1     -32.798 -10.942   7.962 -0.30 +0.00    +0.006 A  
DOCKED: ATOM      5  C   UNL     1     -33.550 -10.230   6.904 -0.23 +0.00    +0.169 C  
DOCKED: ATOM      6  C   UNL     1     -31.539 -10.451   9.961 -0.13 -0.00    -0.001 A  
DOCKED: ATOM      7  C   UNL     1     -32.555 -12.299   8.090 -0.31 +0.00    +0.008 A  
DOCKED: ATOM      8  C   UNL     1     -31.289 -11.816  10.107 -0.17 +0.00    +0.010 A  
DOCKED: ATOM      9  C   UNL     1     -31.795 -12.735   9.175 -0.19 +0.00    +0.068 A  
DOCKED: ATOM     10  N   UNL     1     -31.309 -15.263   9.472 -1.72 -0.00    -0.191 NA 
DOCKED: ATOM     11  C   UNL     1     -31.527 -14.129   9.340 -0.37 +0.00    +0.101 C  
DOCKED: ENDROOT
DOCKED: BRANCH   2  12
DOCKED: ATOM     12  C   UNL     1     -31.535  -7.771   8.063 -0.05 +0.00    +0.038 C  
DOCKED: BRANCH  12  13
DOCKED: ATOM     13  C   UNL     1     -30.478  -8.588   7.322 -0.03 +0.00    +0.038 C  
DOCKED: BRANCH  13  14
DOCKED: ATOM     14  C   UNL     1     -30.012  -7.866   6.059 -0.00 +0.00    +0.251 C  
DOCKED: BRANCH  14  15
DOCKED: ATOM     15  N   UNL     1     -30.667  -8.427   4.883 -0.04 +0.00    +0.141 N  
DOCKED: ATOM     16  C   UNL     1     -30.527  -9.884   4.860 -0.07 +0.00    +0.285 C  
DOCKED: ATOM     17  C   UNL     1     -32.082  -8.052   4.854 -0.11 +0.00    +0.285 C  
DOCKED: ENDBRANCH  14  15
DOCKED: ENDBRANCH  13  14
DOCKED: ENDBRANCH  12  13
DOCKED: ENDBRANCH   2  12
DOCKED: BRANCH   2  18
DOCKED: ATOM     18  C   UNL     1     -33.535  -7.959   9.531 -0.15 +0.00    +0.006 A  
DOCKED: ATOM     19  C   UNL     1     -33.427  -8.347  10.866 -0.11 +0.00    +0.001 A  
DOCKED: ATOM     20  C   UNL     1     -34.197  -7.710  11.840 -0.12 +0.00    +0.029 A  
DOCKED: ATOM     21  C   UNL     1     -35.073  -6.687  11.478 -0.08 +0.00    +0.140 A  
DOCKED: ATOM     22  C   UNL     1     -35.180  -6.300  10.142 -0.07 +0.00    +0.029 A  
DOCKED: ATOM     23  F   UNL     1     -35.810  -6.075  12.413 -0.01 -0.00    -0.204 F  
DOCKED: ATOM     24  C   UNL     1     -34.410  -6.937   9.167 -0.12 +0.00    +0.001 A  
DOCKED: ENDBRANCH   2  18
DOCKED: TORSDOF 5
DOCKED: TER
DOCKED: ENDMDL
________________________________________________________________________________


    FINAL DOCKED STATE:
    ________________________


Run:   316 / 512
Time taken for this run:   0.002s

DOCKED: MODEL        316
DOCKED: USER    Run = 316
DOCKED: USER
DOCKED: USER    Estimated Free Energy of Binding    =  -3.87 kcal/mol  [=(1)+(2)+(3)-(4)]
DOCKED: USER
DOCKED: USER    (1) Final Intermolecular Energy     =  -5.36 kcal/mol
DOCKED: USER        vdW + Hbond + desolv Energy     =  -5.36 kcal/mol
DOCKED: USER        Electrostatic Energy            =  +0.00 kcal/mol
DOCKED: USER        Moving Ligand-Fixed Receptor    =  -5.36 kcal/mol
DOCKED: USER        Moving Ligand-Moving Receptor   =  +0.00 kcal/mol
DOCKED: USER    (2) Final Total Internal Energy     =  -1.51 kcal/mol
DOCKED: USER    (3) Torsional Free Energy           =  +1.49 kcal/mol
DOCKED: USER    (4) Unbound System's Energy         =  -1.51 kcal/mol
DOCKED: USER
DOCKED: USER
DOCKED: REMARK  5 active torsions:
DOCKED: REMARK  status: ('A' for Active; 'I' for Inactive)
DOCKED: REMARK    1  A    between atoms: C_2  and  C_19 
DOCKED: REMARK    2  A    between atoms: C_2  and  C_11 
DOCKED: REMARK    3  A    between atoms: C_19  and  C_20 
DOCKED: REMARK    4  A    between atoms: C_20  and  C_21 
DOCKED: REMARK    5  A    between atoms: C_21  and  N_22 
DOCKED: USER                              x       y       z     vdW  Elec       q    Type
DOCKED: USER                           _______ _______ _______ _____ _____    ______ ____
DOCKED: ROOT
DOCKED: ATOM      1  O   UNL     1     -32.164  -7.955   8.297 -0.01 -0.00    -0.346 OA 
DOCKED: ATOM      2  C   UNL     1     -32.909  -8.776   7.341 -0.18 +0.00    +0.130 C  
DOCKED: ATOM      3  C   UNL     1     -32.659 -10.183   7.803 -0.26 +0.00    +0.004 A  
DOCKED: ATOM      4  C   UNL     1     -31.929 -10.163   8.983 -0.18 +0.00    +0.006 A  
DOCKED: ATOM      5  C   UNL     1     -31.659  -8.764   9.385 -0.09 +0.00    +0.169 C  
DOCKED: ATOM      6  C   UNL     1     -33.056 -11.383   7.232 -0.24 -0.00    -0.001 A  
DOCKED: ATOM      7  C   UNL     1     -31.569 -11.335   9.627 -0.16 +0.00    +0.008 A  
DOCKED: ATOM      8  C   UNL     1     -32.697 -12.573   7.867 -0.24 +0.00    +0.010 A  
DOCKED: ATOM      9  C   UNL     1     -31.957 -12.549   9.058 -0.20 +0.00    +0.068 A  
DOCKED: ATOM     10  N   UNL     1     -31.312 -14.776  10.214 -1.96 -0.00    -0.191 NA 
DOCKED: ATOM     11  C   UNL     1     -31.601 -13.777   9.695 -0.29 +0.00    +0.101 C  
DOCKED: ENDROOT
DOCKED: BRANCH   2  12
DOCKED: ATOM     12  C   UNL     1     -34.379  -8.381   7.408 -0.29 +0.00    +0.038 C  
DOCKED: BRANCH  12  13
DOCKED: ATOM     13  C   UNL     1     -34.555  -6.990   8.013 -0.17 +0.00    +0.038 C  
DOCKED: BRANCH  13  14
DOCKED: ATOM     14  C   UNL     1     -35.087  -6.003   6.975 -0.15 +0.00    +0.251 C  
DOCKED: BRANCH  14  15
DOCKED: ATOM     15  N   UNL     1     -34.046  -5.671   6.010 -0.12 +0.00    +0.141 N  
DOCKED: ATOM     16  C   UNL     1     -34.562  -4.761   4.987 -0.17 +0.00    +0.285 C  
DOCKED: ATOM     17  C   UNL     1     -32.891  -5.074   6.684 -0.05 +0.00    +0.285 C  
DOCKED: ENDBRANCH  14  15
DOCKED: ENDBRANCH  13  14
DOCKED: ENDBRANCH  12  13
DOCKED: ENDBRANCH   2  12
DOCKED: BRANCH   2  18
DOCKED: ATOM     18  C   UNL     1     -32.338  -8.498   5.990 -0.15 +0.00    +0.006 A  
DOCKED: ATOM     19  C   UNL     1     -31.009  -8.095   5.865 -0.05 +0.00    +0.001 A  
DOCKED: ATOM     20  C   UNL     1     -30.477  -7.835   4.601 -0.03 +0.00    +0.029 A  
DOCKED: ATOM     21  C   UNL     1     -31.273  -7.980   3.466 -0.07 +0.00    +0.140 A  
DOCKED: ATOM     22  C   UNL     1     -32.602  -8.384   3.592 -0.22 +0.00    +0.029 A  
DOCKED: ATOM     23  F   UNL     1     -30.761  -7.732   2.253 +0.00 -0.00    -0.204 F  
DOCKED: ATOM     24  C   UNL     1     -33.135  -8.643   4.856 -0.11 +0.00    +0.001 A  
DOCKED: ENDBRANCH   2  18
DOCKED: TORSDOF 5
DOCKED: TER
DOCKED: ENDMDL
________________________________________________________________________________


    FINAL DOCKED STATE:
    ________________________


Run:   317 / 512
Time taken for this run:   0.002s

DOCKED: MODEL        317
DOCKED: USER    Run = 317
DOCKED: USER
DOCKED: USER    Estimated Free Energy of Binding    =  -3.68 kcal/mol  [=(1)+(2)+(3)-(4)]
DOCKED: USER
DOCKED: USER    (1) Final Intermolecular Energy     =  -5.17 kcal/mol
DOCKED: USER        vdW + Hbond + desolv Energy     =  -5.17 kcal/mol
DOCKED: USER        Electrostatic Energy            =  +0.00 kcal/mol
DOCKED: USER        Moving Ligand-Fixed Receptor    =  -5.17 kcal/mol
DOCKED: USER        Moving Ligand-Moving Receptor   =  +0.00 kcal/mol
DOCKED: USER    (2) Final Total Internal Energy     =  -1.38 kcal/mol
DOCKED: USER    (3) Torsional Free Energy           =  +1.49 kcal/mol
DOCKED: USER    (4) Unbound System's Energy         =  -1.38 kcal/mol
DOCKED: USER
DOCKED: USER
DOCKED: REMARK  5 active torsions:
DOCKED: REMARK  status: ('A' for Active; 'I' for Inactive)
DOCKED: REMARK    1  A    between atoms: C_2  and  C_19 
DOCKED: REMARK    2  A    between atoms: C_2  and  C_11 
DOCKED: REMARK    3  A    between atoms: C_19  and  C_20 
DOCKED: REMARK    4  A    between atoms: C_20  and  C_21 
DOCKED: REMARK    5  A    between atoms: C_21  and  N_22 
DOCKED: USER                              x       y       z     vdW  Elec       q    Type
DOCKED: USER                           _______ _______ _______ _____ _____    ______ ____
DOCKED: ROOT
DOCKED: ATOM      1  O   UNL     1     -32.139  -3.975   5.235 -0.02 -0.00    -0.346 OA 
DOCKED: ATOM      2  C   UNL     1     -31.593  -4.252   3.906 -0.04 +0.00    +0.130 C  
DOCKED: ATOM      3  C   UNL     1     -32.581  -3.617   2.971 -0.12 +0.00    +0.004 A  
DOCKED: ATOM      4  C   UNL     1     -33.549  -2.942   3.703 -0.21 +0.00    +0.006 A  
DOCKED: ATOM      5  C   UNL     1     -33.265  -3.070   5.149 -0.08 +0.00    +0.169 C  
DOCKED: ATOM      6  C   UNL     1     -32.616  -3.627   1.585 -0.15 -0.00    -0.001 A  
DOCKED: ATOM      7  C   UNL     1     -34.580  -2.262   3.078 -0.33 +0.00    +0.008 A  
DOCKED: ATOM      8  C   UNL     1     -33.652  -2.949   0.940 -0.22 +0.00    +0.010 A  
DOCKED: ATOM      9  C   UNL     1     -34.628  -2.269   1.683 -0.28 +0.00    +0.068 A  
DOCKED: ATOM     10  N   UNL     1     -36.535  -1.016   0.455 -2.56 -0.00    -0.191 NA 
DOCKED: ATOM     11  C   UNL     1     -35.680  -1.579   1.006 -0.35 +0.00    +0.101 C  
DOCKED: ENDROOT
DOCKED: BRANCH   2  12
DOCKED: ATOM     12  C   UNL     1     -30.205  -3.628   3.815 -0.02 +0.00    +0.038 C  
DOCKED: BRANCH  12  13
DOCKED: ATOM     13  C   UNL     1     -29.815  -2.945   5.125 -0.03 +0.00    +0.038 C  
DOCKED: BRANCH  13  14
DOCKED: ATOM     14  C   UNL     1     -29.455  -1.479   4.894 -0.02 +0.00    +0.251 C  
DOCKED: BRANCH  14  15
DOCKED: ATOM     15  N   UNL     1     -30.602  -0.752   4.363 -0.06 +0.00    +0.141 N  
DOCKED: ATOM     16  C   UNL     1     -30.820   0.487   5.112 -0.08 +0.00    +0.285 C  
DOCKED: ATOM     17  C   UNL     1     -30.414  -0.460   2.941 -0.02 +0.00    +0.285 C  
DOCKED: ENDBRANCH  14  15
DOCKED: ENDBRANCH  13  14
DOCKED: ENDBRANCH  12  13
DOCKED: ENDBRANCH   2  12
DOCKED: BRANCH   2  18
DOCKED: ATOM     18  C   UNL     1     -31.526  -5.736   3.762 -0.04 +0.00    +0.006 A  
DOCKED: ATOM     19  C   UNL     1     -32.639  -6.517   4.071 -0.14 +0.00    +0.001 A  
DOCKED: ATOM     20  C   UNL     1     -32.574  -7.904   3.937 -0.19 +0.00    +0.029 A  
DOCKED: ATOM     21  C   UNL     1     -31.399  -8.508   3.493 -0.11 +0.00    +0.140 A  
DOCKED: ATOM     22  C   UNL     1     -30.286  -7.726   3.183 -0.02 +0.00    +0.029 A  
DOCKED: ATOM     23  F   UNL     1     -31.338  -9.840   3.362 -0.07 -0.00    -0.204 F  
DOCKED: ATOM     24  C   UNL     1     -30.349  -6.338   3.318 -0.01 +0.00    +0.001 A  
DOCKED: ENDBRANCH   2  18
DOCKED: TORSDOF 5
DOCKED: TER
DOCKED: ENDMDL
________________________________________________________________________________


    FINAL DOCKED STATE:
    ________________________


Run:   318 / 512
Time taken for this run:   0.002s

DOCKED: MODEL        318
DOCKED: USER    Run = 318
DOCKED: USER
DOCKED: USER    Estimated Free Energy of Binding    =  -3.66 kcal/mol  [=(1)+(2)+(3)-(4)]
DOCKED: USER
DOCKED: USER    (1) Final Intermolecular Energy     =  -5.15 kcal/mol
DOCKED: USER        vdW + Hbond + desolv Energy     =  -5.15 kcal/mol
DOCKED: USER        Electrostatic Energy            =  +0.00 kcal/mol
DOCKED: USER        Moving Ligand-Fixed Receptor    =  -5.15 kcal/mol
DOCKED: USER        Moving Ligand-Moving Receptor   =  +0.00 kcal/mol
DOCKED: USER    (2) Final Total Internal Energy     =  -1.44 kcal/mol
DOCKED: USER    (3) Torsional Free Energy           =  +1.49 kcal/mol
DOCKED: USER    (4) Unbound System's Energy         =  -1.44 kcal/mol
DOCKED: USER
DOCKED: USER
DOCKED: REMARK  5 active torsions:
DOCKED: REMARK  status: ('A' for Active; 'I' for Inactive)
DOCKED: REMARK    1  A    between atoms: C_2  and  C_19 
DOCKED: REMARK    2  A    between atoms: C_2  and  C_11 
DOCKED: REMARK    3  A    between atoms: C_19  and  C_20 
DOCKED: REMARK    4  A    between atoms: C_20  and  C_21 
DOCKED: REMARK    5  A    between atoms: C_21  and  N_22 
DOCKED: USER                              x       y       z     vdW  Elec       q    Type
DOCKED: USER                           _______ _______ _______ _____ _____    ______ ____
DOCKED: ROOT
DOCKED: ATOM      1  O   UNL     1     -31.133  -7.991   7.151 +0.01 -0.00    -0.346 OA 
DOCKED: ATOM      2  C   UNL     1     -32.156  -8.857   6.565 -0.13 +0.00    +0.130 C  
DOCKED: ATOM      3  C   UNL     1     -32.060 -10.122   7.367 -0.20 +0.00    +0.004 A  
DOCKED: ATOM      4  C   UNL     1     -31.141  -9.955   8.393 -0.11 +0.00    +0.006 A  
DOCKED: ATOM      5  C   UNL     1     -30.583  -8.585   8.350 -0.03 +0.00    +0.169 C  
DOCKED: ATOM      6  C   UNL     1     -32.740 -11.320   7.209 -0.25 -0.00    -0.001 A  
DOCKED: ATOM      7  C   UNL     1     -30.868 -10.975   9.288 -0.15 +0.00    +0.008 A  
DOCKED: ATOM      8  C   UNL     1     -32.473 -12.360   8.101 -0.32 +0.00    +0.010 A  
DOCKED: ATOM      9  C   UNL     1     -31.541 -12.188   9.136 -0.22 +0.00    +0.068 A  
DOCKED: ATOM     10  N   UNL     1     -31.071 -14.136  10.778 -2.03 -0.00    -0.191 NA 
DOCKED: ATOM     11  C   UNL     1     -31.281 -13.263  10.041 -0.26 +0.00    +0.101 C  
DOCKED: ENDROOT
DOCKED: BRANCH   2  12
DOCKED: ATOM     12  C   UNL     1     -33.509  -8.168   6.703 -0.22 +0.00    +0.038 C  
DOCKED: BRANCH  12  13
DOCKED: ATOM     13  C   UNL     1     -33.364  -6.647   6.685 -0.12 +0.00    +0.038 C  
DOCKED: BRANCH  13  14
DOCKED: ATOM     14  C   UNL     1     -34.069  -6.042   5.473 -0.14 +0.00    +0.251 C  
DOCKED: BRANCH  14  15
DOCKED: ATOM     15  N   UNL     1     -33.116  -5.318   4.640 -0.10 +0.00    +0.141 N  
DOCKED: ATOM     16  C   UNL     1     -31.757  -5.463   5.165 -0.02 +0.00    +0.285 C  
DOCKED: ATOM     17  C   UNL     1     -33.178  -5.791   3.256 -0.13 +0.00    +0.285 C  
DOCKED: ENDBRANCH  14  15
DOCKED: ENDBRANCH  13  14
DOCKED: ENDBRANCH  12  13
DOCKED: ENDBRANCH   2  12
DOCKED: BRANCH   2  18
DOCKED: ATOM     18  C   UNL     1     -31.794  -9.049   5.130 -0.15 +0.00    +0.006 A  
DOCKED: ATOM     19  C   UNL     1     -30.472  -9.311   4.774 -0.08 +0.00    +0.001 A  
DOCKED: ATOM     20  C   UNL     1     -30.135  -9.490   3.432 -0.07 +0.00    +0.029 A  
DOCKED: ATOM     21  C   UNL     1     -31.120  -9.409   2.448 -0.13 +0.00    +0.140 A  
DOCKED: ATOM     22  C   UNL     1     -32.442  -9.148   2.805 -0.21 +0.00    +0.029 A  
DOCKED: ATOM     23  F   UNL     1     -30.796  -9.583   1.160 -0.01 -0.00    -0.204 F  
DOCKED: ATOM     24  C   UNL     1     -32.781  -8.967   4.147 -0.06 +0.00    +0.001 A  
DOCKED: ENDBRANCH   2  18
DOCKED: TORSDOF 5
DOCKED: TER
DOCKED: ENDMDL
________________________________________________________________________________


    FINAL DOCKED STATE:
    ________________________


Run:   319 / 512
Time taken for this run:   0.002s

DOCKED: MODEL        319
DOCKED: USER    Run = 319
DOCKED: USER
DOCKED: USER    Estimated Free Energy of Binding    =  -5.40 kcal/mol  [=(1)+(2)+(3)-(4)]
DOCKED: USER
DOCKED: USER    (1) Final Intermolecular Energy     =  -6.89 kcal/mol
DOCKED: USER        vdW + Hbond + desolv Energy     =  -6.89 kcal/mol
DOCKED: USER        Electrostatic Energy            =  +0.00 kcal/mol
DOCKED: USER        Moving Ligand-Fixed Receptor    =  -6.89 kcal/mol
DOCKED: USER        Moving Ligand-Moving Receptor   =  +0.00 kcal/mol
DOCKED: USER    (2) Final Total Internal Energy     =  -1.11 kcal/mol
DOCKED: USER    (3) Torsional Free Energy           =  +1.49 kcal/mol
DOCKED: USER    (4) Unbound System's Energy         =  -1.11 kcal/mol
DOCKED: USER
DOCKED: USER
DOCKED: REMARK  5 active torsions:
DOCKED: REMARK  status: ('A' for Active; 'I' for Inactive)
DOCKED: REMARK    1  A    between atoms: C_2  and  C_19 
DOCKED: REMARK    2  A    between atoms: C_2  and  C_11 
DOCKED: REMARK    3  A    between atoms: C_19  and  C_20 
DOCKED: REMARK    4  A    between atoms: C_20  and  C_21 
DOCKED: REMARK    5  A    between atoms: C_21  and  N_22 
DOCKED: USER                              x       y       z     vdW  Elec       q    Type
DOCKED: USER                           _______ _______ _______ _____ _____    ______ ____
DOCKED: ROOT
DOCKED: ATOM      1  O   UNL     1     -40.586 -11.598  14.165 -0.01 -0.00    -0.346 OA 
DOCKED: ATOM      2  C   UNL     1     -39.146 -11.616  13.904 -0.12 +0.00    +0.130 C  
DOCKED: ATOM      3  C   UNL     1     -39.045 -12.087  12.483 -0.28 +0.00    +0.004 A  
DOCKED: ATOM      4  C   UNL     1     -40.316 -12.221  11.943 -0.28 +0.00    +0.006 A  
DOCKED: ATOM      5  C   UNL     1     -41.332 -11.841  12.950 -0.17 +0.00    +0.169 C  
DOCKED: ATOM      6  C   UNL     1     -37.917 -12.364  11.724 -0.37 -0.00    -0.001 A  
DOCKED: ATOM      7  C   UNL     1     -40.503 -12.638  10.636 -0.25 +0.00    +0.008 A  
DOCKED: ATOM      8  C   UNL     1     -38.089 -12.790  10.406 -0.17 +0.00    +0.010 A  
DOCKED: ATOM      9  C   UNL     1     -39.376 -12.926   9.865 -0.39 +0.00    +0.068 A  
DOCKED: ATOM     10  N   UNL     1     -39.662 -13.713   7.413 -2.77 -0.00    -0.191 NA 
DOCKED: ATOM     11  C   UNL     1     -39.534 -13.361   8.513 -0.29 +0.00    +0.101 C  
DOCKED: ENDROOT
DOCKED: BRANCH   2  12
DOCKED: ATOM     12  C   UNL     1     -38.603 -10.205  14.102 -0.13 +0.00    +0.038 C  
DOCKED: BRANCH  12  13
DOCKED: ATOM     13  C   UNL     1     -38.189  -9.577  12.773 -0.25 +0.00    +0.038 C  
DOCKED: BRANCH  13  14
DOCKED: ATOM     14  C   UNL     1     -39.025  -8.335  12.469 -0.14 +0.00    +0.251 C  
DOCKED: BRANCH  14  15
DOCKED: ATOM     15  N   UNL     1     -39.830  -7.969  13.628 -0.11 +0.00    +0.141 N  
DOCKED: ATOM     16  C   UNL     1     -39.233  -6.835  14.334 -0.03 +0.00    +0.285 C  
DOCKED: ATOM     17  C   UNL     1     -41.201  -7.650  13.224 -0.13 +0.00    +0.285 C  
DOCKED: ENDBRANCH  14  15
DOCKED: ENDBRANCH  13  14
DOCKED: ENDBRANCH  12  13
DOCKED: ENDBRANCH   2  12
DOCKED: BRANCH   2  18
DOCKED: ATOM     18  C   UNL     1     -38.538 -12.569  14.878 -0.15 +0.00    +0.006 A  
DOCKED: ATOM     19  C   UNL     1     -38.172 -13.849  14.464 -0.28 +0.00    +0.001 A  
DOCKED: ATOM     20  C   UNL     1     -37.604 -14.739  15.376 -0.05 +0.00    +0.029 A  
DOCKED: ATOM     21  C   UNL     1     -37.401 -14.348  16.699 -0.15 +0.00    +0.140 A  
DOCKED: ATOM     22  C   UNL     1     -37.767 -13.068  17.112 -0.14 +0.00    +0.029 A  
DOCKED: ATOM     23  F   UNL     1     -36.854 -15.203  17.573 -0.11 -0.00    -0.204 F  
DOCKED: ATOM     24  C   UNL     1     -38.336 -12.176  16.201 -0.10 +0.00    +0.001 A  
DOCKED: ENDBRANCH   2  18
DOCKED: TORSDOF 5
DOCKED: TER
DOCKED: ENDMDL
________________________________________________________________________________


    FINAL DOCKED STATE:
    ________________________


Run:   320 / 512
Time taken for this run:   0.002s

DOCKED: MODEL        320
DOCKED: USER    Run = 320
DOCKED: USER
DOCKED: USER    Estimated Free Energy of Binding    =  -4.32 kcal/mol  [=(1)+(2)+(3)-(4)]
DOCKED: USER
DOCKED: USER    (1) Final Intermolecular Energy     =  -5.81 kcal/mol
DOCKED: USER        vdW + Hbond + desolv Energy     =  -5.81 kcal/mol
DOCKED: USER        Electrostatic Energy            =  +0.00 kcal/mol
DOCKED: USER        Moving Ligand-Fixed Receptor    =  -5.81 kcal/mol
DOCKED: USER        Moving Ligand-Moving Receptor   =  +0.00 kcal/mol
DOCKED: USER    (2) Final Total Internal Energy     =  -1.36 kcal/mol
DOCKED: USER    (3) Torsional Free Energy           =  +1.49 kcal/mol
DOCKED: USER    (4) Unbound System's Energy         =  -1.36 kcal/mol
DOCKED: USER
DOCKED: USER
DOCKED: REMARK  5 active torsions:
DOCKED: REMARK  status: ('A' for Active; 'I' for Inactive)
DOCKED: REMARK    1  A    between atoms: C_2  and  C_19 
DOCKED: REMARK    2  A    between atoms: C_2  and  C_11 
DOCKED: REMARK    3  A    between atoms: C_19  and  C_20 
DOCKED: REMARK    4  A    between atoms: C_20  and  C_21 
DOCKED: REMARK    5  A    between atoms: C_21  and  N_22 
DOCKED: USER                              x       y       z     vdW  Elec       q    Type
DOCKED: USER                           _______ _______ _______ _____ _____    ______ ____
DOCKED: ROOT
DOCKED: ATOM      1  O   UNL     1     -34.723 -10.484  14.574 -0.07 -0.00    -0.346 OA 
DOCKED: ATOM      2  C   UNL     1     -35.678  -9.605  13.898 -0.13 +0.00    +0.130 C  
DOCKED: ATOM      3  C   UNL     1     -36.633 -10.555  13.233 -0.22 +0.00    +0.004 A  
DOCKED: ATOM      4  C   UNL     1     -36.317 -11.859  13.589 -0.25 +0.00    +0.006 A  
DOCKED: ATOM      5  C   UNL     1     -35.158 -11.862  14.509 -0.17 +0.00    +0.169 C  
DOCKED: ATOM      6  C   UNL     1     -37.701 -10.285  12.391 -0.28 -0.00    -0.001 A  
DOCKED: ATOM      7  C   UNL     1     -37.052 -12.932  13.115 -0.34 +0.00    +0.008 A  
DOCKED: ATOM      8  C   UNL     1     -38.449 -11.358  11.901 -0.32 +0.00    +0.010 A  
DOCKED: ATOM      9  C   UNL     1     -38.125 -12.674  12.262 -0.31 +0.00    +0.068 A  
DOCKED: ATOM     10  N   UNL     1     -39.536 -14.641  11.338 -2.55 -0.00    -0.191 NA 
DOCKED: ATOM     11  C   UNL     1     -38.903 -13.759  11.752 -0.37 +0.00    +0.101 C  
DOCKED: ENDROOT
DOCKED: BRANCH   2  12
DOCKED: ATOM     12  C   UNL     1     -36.350  -8.725  14.945 -0.06 +0.00    +0.038 C  
DOCKED: BRANCH  12  13
DOCKED: ATOM     13  C   UNL     1     -35.388  -8.377  16.080 -0.02 +0.00    +0.038 C  
DOCKED: BRANCH  13  14
DOCKED: ATOM     14  C   UNL     1     -35.824  -9.032  17.389 -0.00 +0.00    +0.251 C  
DOCKED: BRANCH  14  15
DOCKED: ATOM     15  N   UNL     1     -34.777  -9.916  17.888 -0.01 +0.00    +0.141 N  
DOCKED: ATOM     16  C   UNL     1     -35.173 -11.318  17.743 -0.03 +0.00    +0.285 C  
DOCKED: ATOM     17  C   UNL     1     -33.516  -9.670  17.185 -0.01 +0.00    +0.285 C  
DOCKED: ENDBRANCH  14  15
DOCKED: ENDBRANCH  13  14
DOCKED: ENDBRANCH  12  13
DOCKED: ENDBRANCH   2  12
DOCKED: BRANCH   2  18
DOCKED: ATOM     18  C   UNL     1     -34.901  -8.785  12.923 -0.14 +0.00    +0.006 A  
DOCKED: ATOM     19  C   UNL     1     -35.555  -7.847  12.125 -0.16 +0.00    +0.001 A  
DOCKED: ATOM     20  C   UNL     1     -34.827  -7.080  11.213 -0.12 +0.00    +0.029 A  
DOCKED: ATOM     21  C   UNL     1     -33.448  -7.252  11.102 -0.08 +0.00    +0.140 A  
DOCKED: ATOM     22  C   UNL     1     -32.795  -8.190  11.901 -0.10 +0.00    +0.029 A  
DOCKED: ATOM     23  F   UNL     1     -32.750  -6.515  10.229 -0.00 -0.00    -0.204 F  
DOCKED: ATOM     24  C   UNL     1     -33.522  -8.958  12.813 -0.08 +0.00    +0.001 A  
DOCKED: ENDBRANCH   2  18
DOCKED: TORSDOF 5
DOCKED: TER
DOCKED: ENDMDL
________________________________________________________________________________


    FINAL DOCKED STATE:
    ________________________


Run:   321 / 512
Time taken for this run:   0.002s

DOCKED: MODEL        321
DOCKED: USER    Run = 321
DOCKED: USER
DOCKED: USER    Estimated Free Energy of Binding    =  -3.49 kcal/mol  [=(1)+(2)+(3)-(4)]
DOCKED: USER
DOCKED: USER    (1) Final Intermolecular Energy     =  -4.98 kcal/mol
DOCKED: USER        vdW + Hbond + desolv Energy     =  -4.98 kcal/mol
DOCKED: USER        Electrostatic Energy            =  +0.00 kcal/mol
DOCKED: USER        Moving Ligand-Fixed Receptor    =  -4.98 kcal/mol
DOCKED: USER        Moving Ligand-Moving Receptor   =  +0.00 kcal/mol
DOCKED: USER    (2) Final Total Internal Energy     =  -1.06 kcal/mol
DOCKED: USER    (3) Torsional Free Energy           =  +1.49 kcal/mol
DOCKED: USER    (4) Unbound System's Energy         =  -1.06 kcal/mol
DOCKED: USER
DOCKED: USER
DOCKED: REMARK  5 active torsions:
DOCKED: REMARK  status: ('A' for Active; 'I' for Inactive)
DOCKED: REMARK    1  A    between atoms: C_2  and  C_19 
DOCKED: REMARK    2  A    between atoms: C_2  and  C_11 
DOCKED: REMARK    3  A    between atoms: C_19  and  C_20 
DOCKED: REMARK    4  A    between atoms: C_20  and  C_21 
DOCKED: REMARK    5  A    between atoms: C_21  and  N_22 
DOCKED: USER                              x       y       z     vdW  Elec       q    Type
DOCKED: USER                           _______ _______ _______ _____ _____    ______ ____
DOCKED: ROOT
DOCKED: ATOM      1  O   UNL     1     -30.109  -3.295   1.833 +0.01 -0.00    -0.346 OA 
DOCKED: ATOM      2  C   UNL     1     -30.687  -2.991   3.143 -0.02 +0.00    +0.130 C  
DOCKED: ATOM      3  C   UNL     1     -32.097  -2.583   2.828 -0.09 +0.00    +0.004 A  
DOCKED: ATOM      4  C   UNL     1     -32.338  -2.746   1.471 -0.11 +0.00    +0.006 A  
DOCKED: ATOM      5  C   UNL     1     -31.127  -3.276   0.806 -0.03 +0.00    +0.169 C  
DOCKED: ATOM      6  C   UNL     1     -33.091  -2.117   3.677 -0.18 -0.00    -0.001 A  
DOCKED: ATOM      7  C   UNL     1     -33.571  -2.446   0.917 -0.24 +0.00    +0.008 A  
DOCKED: ATOM      8  C   UNL     1     -34.338  -1.806   3.133 -0.31 +0.00    +0.010 A  
DOCKED: ATOM      9  C   UNL     1     -34.577  -1.970   1.760 -0.32 +0.00    +0.068 A  
DOCKED: ATOM     10  N   UNL     1     -36.905  -1.388   0.783 -2.56 -0.00    -0.191 NA 
DOCKED: ATOM     11  C   UNL     1     -35.860  -1.648   1.221 -0.36 +0.00    +0.101 C  
DOCKED: ENDROOT
DOCKED: BRANCH   2  12
DOCKED: ATOM     12  C   UNL     1     -30.610  -4.244   4.007 -0.02 +0.00    +0.038 C  
DOCKED: BRANCH  12  13
DOCKED: ATOM     13  C   UNL     1     -31.849  -5.120   3.829 -0.06 +0.00    +0.038 C  
DOCKED: BRANCH  13  14
DOCKED: ATOM     14  C   UNL     1     -31.492  -6.450   3.169 -0.04 +0.00    +0.251 C  
DOCKED: BRANCH  14  15
DOCKED: ATOM     15  N   UNL     1     -32.583  -7.404   3.327 -0.16 +0.00    +0.141 N  
DOCKED: ATOM     16  C   UNL     1     -32.936  -8.003   2.039 -0.20 +0.00    +0.285 C  
DOCKED: ATOM     17  C   UNL     1     -32.221  -8.446   4.289 -0.15 +0.00    +0.285 C  
DOCKED: ENDBRANCH  14  15
DOCKED: ENDBRANCH  13  14
DOCKED: ENDBRANCH  12  13
DOCKED: ENDBRANCH   2  12
DOCKED: BRANCH   2  18
DOCKED: ATOM     18  C   UNL     1     -29.878  -1.882   3.730 -0.03 +0.00    +0.006 A  
DOCKED: ATOM     19  C   UNL     1     -30.174  -0.558   3.408 -0.05 +0.00    +0.001 A  
DOCKED: ATOM     20  C   UNL     1     -29.417   0.477   3.957 -0.03 +0.00    +0.029 A  
DOCKED: ATOM     21  C   UNL     1     -28.367   0.188   4.828 -0.01 +0.00    +0.140 A  
DOCKED: ATOM     22  C   UNL     1     -28.073  -1.137   5.150 -0.01 +0.00    +0.029 A  
DOCKED: ATOM     23  F   UNL     1     -27.642   1.182   5.357 +0.00 -0.00    -0.204 F  
DOCKED: ATOM     24  C   UNL     1     -28.829  -2.174   4.601 -0.01 +0.00    +0.001 A  
DOCKED: ENDBRANCH   2  18
DOCKED: TORSDOF 5
DOCKED: TER
DOCKED: ENDMDL
________________________________________________________________________________


    FINAL DOCKED STATE:
    ________________________


Run:   322 / 512
Time taken for this run:   0.002s

DOCKED: MODEL        322
DOCKED: USER    Run = 322
DOCKED: USER
DOCKED: USER    Estimated Free Energy of Binding    =  -4.04 kcal/mol  [=(1)+(2)+(3)-(4)]
DOCKED: USER
DOCKED: USER    (1) Final Intermolecular Energy     =  -5.53 kcal/mol
DOCKED: USER        vdW + Hbond + desolv Energy     =  -5.53 kcal/mol
DOCKED: USER        Electrostatic Energy            =  +0.00 kcal/mol
DOCKED: USER        Moving Ligand-Fixed Receptor    =  -5.53 kcal/mol
DOCKED: USER        Moving Ligand-Moving Receptor   =  +0.00 kcal/mol
DOCKED: USER    (2) Final Total Internal Energy     =  -1.23 kcal/mol
DOCKED: USER    (3) Torsional Free Energy           =  +1.49 kcal/mol
DOCKED: USER    (4) Unbound System's Energy         =  -1.23 kcal/mol
DOCKED: USER
DOCKED: USER
DOCKED: REMARK  5 active torsions:
DOCKED: REMARK  status: ('A' for Active; 'I' for Inactive)
DOCKED: REMARK    1  A    between atoms: C_2  and  C_19 
DOCKED: REMARK    2  A    between atoms: C_2  and  C_11 
DOCKED: REMARK    3  A    between atoms: C_19  and  C_20 
DOCKED: REMARK    4  A    between atoms: C_20  and  C_21 
DOCKED: REMARK    5  A    between atoms: C_21  and  N_22 
DOCKED: USER                              x       y       z     vdW  Elec       q    Type
DOCKED: USER                           _______ _______ _______ _____ _____    ______ ____
DOCKED: ROOT
DOCKED: ATOM      1  O   UNL     1     -41.528  -8.513  13.518 -0.07 -0.00    -0.346 OA 
DOCKED: ATOM      2  C   UNL     1     -40.067  -8.447  13.469 -0.18 +0.00    +0.130 C  
DOCKED: ATOM      3  C   UNL     1     -39.661  -9.823  13.024 -0.22 +0.00    +0.004 A  
DOCKED: ATOM      4  C   UNL     1     -40.791 -10.574  12.738 -0.20 +0.00    +0.006 A  
DOCKED: ATOM      5  C   UNL     1     -42.006  -9.758  12.957 -0.20 +0.00    +0.169 C  
DOCKED: ATOM      6  C   UNL     1     -38.391 -10.362  12.874 -0.25 -0.00    -0.001 A  
DOCKED: ATOM      7  C   UNL     1     -40.694 -11.884  12.299 -0.25 +0.00    +0.008 A  
DOCKED: ATOM      8  C   UNL     1     -38.277 -11.682  12.437 -0.31 +0.00    +0.010 A  
DOCKED: ATOM      9  C   UNL     1     -39.423 -12.439  12.150 -0.25 +0.00    +0.068 A  
DOCKED: ATOM     10  N   UNL     1     -39.174 -14.886  11.335 -2.61 -0.00    -0.191 NA 
DOCKED: ATOM     11  C   UNL     1     -39.286 -13.788  11.701 -0.36 +0.00    +0.101 C  
DOCKED: ENDROOT
DOCKED: BRANCH   2  12
DOCKED: ATOM     12  C   UNL     1     -39.666  -7.361  12.478 -0.23 +0.00    +0.038 C  
DOCKED: BRANCH  12  13
DOCKED: ATOM     13  C   UNL     1     -40.834  -6.424  12.176 -0.19 +0.00    +0.038 C  
DOCKED: BRANCH  13  14
DOCKED: ATOM     14  C   UNL     1     -41.187  -5.575  13.395 -0.05 +0.00    +0.251 C  
DOCKED: BRANCH  14  15
DOCKED: ATOM     15  N   UNL     1     -40.938  -4.165  13.121 -0.04 +0.00    +0.141 N  
DOCKED: ATOM     16  C   UNL     1     -41.586  -3.321  14.126 +0.00 +0.00    +0.285 C  
DOCKED: ATOM     17  C   UNL     1     -39.500  -3.893  13.081 -0.01 +0.00    +0.285 C  
DOCKED: ENDBRANCH  14  15
DOCKED: ENDBRANCH  13  14
DOCKED: ENDBRANCH  12  13
DOCKED: ENDBRANCH   2  12
DOCKED: BRANCH   2  18
DOCKED: ATOM     18  C   UNL     1     -39.598  -8.119  14.847 -0.05 +0.00    +0.006 A  
DOCKED: ATOM     19  C   UNL     1     -40.277  -8.628  15.953 -0.02 +0.00    +0.001 A  
DOCKED: ATOM     20  C   UNL     1     -39.837  -8.320  17.242 -0.00 +0.00    +0.029 A  
DOCKED: ATOM     21  C   UNL     1     -38.721  -7.505  17.421 +0.00 +0.00    +0.140 A  
DOCKED: ATOM     22  C   UNL     1     -38.042  -6.997  16.314 -0.01 +0.00    +0.029 A  
DOCKED: ATOM     23  F   UNL     1     -38.298  -7.211  18.658 +0.00 -0.00    -0.204 F  
DOCKED: ATOM     24  C   UNL     1     -38.481  -7.304  15.025 -0.03 +0.00    +0.001 A  
DOCKED: ENDBRANCH   2  18
DOCKED: TORSDOF 5
DOCKED: TER
DOCKED: ENDMDL
________________________________________________________________________________


    FINAL DOCKED STATE:
    ________________________


Run:   323 / 512
Time taken for this run:   0.002s

DOCKED: MODEL        323
DOCKED: USER    Run = 323
DOCKED: USER
DOCKED: USER    Estimated Free Energy of Binding    =  -5.11 kcal/mol  [=(1)+(2)+(3)-(4)]
DOCKED: USER
DOCKED: USER    (1) Final Intermolecular Energy     =  -6.61 kcal/mol
DOCKED: USER        vdW + Hbond + desolv Energy     =  -6.61 kcal/mol
DOCKED: USER        Electrostatic Energy            =  +0.00 kcal/mol
DOCKED: USER        Moving Ligand-Fixed Receptor    =  -6.61 kcal/mol
DOCKED: USER        Moving Ligand-Moving Receptor   =  +0.00 kcal/mol
DOCKED: USER    (2) Final Total Internal Energy     =  -1.09 kcal/mol
DOCKED: USER    (3) Torsional Free Energy           =  +1.49 kcal/mol
DOCKED: USER    (4) Unbound System's Energy         =  -1.09 kcal/mol
DOCKED: USER
DOCKED: USER
DOCKED: REMARK  5 active torsions:
DOCKED: REMARK  status: ('A' for Active; 'I' for Inactive)
DOCKED: REMARK    1  A    between atoms: C_2  and  C_19 
DOCKED: REMARK    2  A    between atoms: C_2  and  C_11 
DOCKED: REMARK    3  A    between atoms: C_19  and  C_20 
DOCKED: REMARK    4  A    between atoms: C_20  and  C_21 
DOCKED: REMARK    5  A    between atoms: C_21  and  N_22 
DOCKED: USER                              x       y       z     vdW  Elec       q    Type
DOCKED: USER                           _______ _______ _______ _____ _____    ______ ____
DOCKED: ROOT
DOCKED: ATOM      1  O   UNL     1     -33.010  -5.140   5.367 -0.01 -0.00    -0.346 OA 
DOCKED: ATOM      2  C   UNL     1     -34.337  -4.878   5.925 -0.18 +0.00    +0.130 C  
DOCKED: ATOM      3  C   UNL     1     -34.995  -4.004   4.896 -0.29 +0.00    +0.004 A  
DOCKED: ATOM      4  C   UNL     1     -34.159  -3.869   3.796 -0.25 +0.00    +0.006 A  
DOCKED: ATOM      5  C   UNL     1     -32.916  -4.642   4.011 -0.11 +0.00    +0.169 C  
DOCKED: ATOM      6  C   UNL     1     -36.237  -3.388   4.926 -0.15 -0.00    -0.001 A  
DOCKED: ATOM      7  C   UNL     1     -34.532  -3.115   2.697 -0.18 +0.00    +0.008 A  
DOCKED: ATOM      8  C   UNL     1     -36.625  -2.620   3.827 -0.35 +0.00    +0.010 A  
DOCKED: ATOM      9  C   UNL     1     -35.777  -2.485   2.718 -0.24 +0.00    +0.068 A  
DOCKED: ATOM     10  N   UNL     1     -36.531  -1.056   0.692 -2.45 -0.00    -0.191 NA 
DOCKED: ATOM     11  C   UNL     1     -36.192  -1.696   1.601 -0.33 +0.00    +0.101 C  
DOCKED: ENDROOT
DOCKED: BRANCH   2  12
DOCKED: ATOM     12  C   UNL     1     -35.052  -6.211   6.115 -0.25 +0.00    +0.038 C  
DOCKED: BRANCH  12  13
DOCKED: ATOM     13  C   UNL     1     -34.524  -6.956   7.340 -0.20 +0.00    +0.038 C  
DOCKED: BRANCH  13  14
DOCKED: ATOM     14  C   UNL     1     -34.092  -8.375   6.976 -0.20 +0.00    +0.251 C  
DOCKED: BRANCH  14  15
DOCKED: ATOM     15  N   UNL     1     -33.556  -9.058   8.148 -0.20 +0.00    +0.141 N  
DOCKED: ATOM     16  C   UNL     1     -32.597 -10.089   7.750 -0.18 +0.00    +0.285 C  
DOCKED: ATOM     17  C   UNL     1     -32.924  -8.101   9.058 -0.09 +0.00    +0.285 C  
DOCKED: ENDBRANCH  14  15
DOCKED: ENDBRANCH  13  14
DOCKED: ENDBRANCH  12  13
DOCKED: ENDBRANCH   2  12
DOCKED: BRANCH   2  18
DOCKED: ATOM     18  C   UNL     1     -34.133  -4.185   7.231 -0.18 +0.00    +0.006 A  
DOCKED: ATOM     19  C   UNL     1     -35.228  -3.685   7.933 -0.23 +0.00    +0.001 A  
DOCKED: ATOM     20  C   UNL     1     -35.036  -3.037   9.154 -0.19 +0.00    +0.029 A  
DOCKED: ATOM     21  C   UNL     1     -33.749  -2.891   9.670 -0.08 +0.00    +0.140 A  
DOCKED: ATOM     22  C   UNL     1     -32.654  -3.393   8.968 -0.11 +0.00    +0.029 A  
DOCKED: ATOM     23  F   UNL     1     -33.564  -2.271  10.843 -0.04 -0.00    -0.204 F  
DOCKED: ATOM     24  C   UNL     1     -32.845  -4.040   7.746 -0.13 +0.00    +0.001 A  
DOCKED: ENDBRANCH   2  18
DOCKED: TORSDOF 5
DOCKED: TER
DOCKED: ENDMDL
________________________________________________________________________________


    FINAL DOCKED STATE:
    ________________________


Run:   324 / 512
Time taken for this run:   0.002s

DOCKED: MODEL        324
DOCKED: USER    Run = 324
DOCKED: USER
DOCKED: USER    Estimated Free Energy of Binding    =  -4.09 kcal/mol  [=(1)+(2)+(3)-(4)]
DOCKED: USER
DOCKED: USER    (1) Final Intermolecular Energy     =  -5.58 kcal/mol
DOCKED: USER        vdW + Hbond + desolv Energy     =  -5.58 kcal/mol
DOCKED: USER        Electrostatic Energy            =  +0.00 kcal/mol
DOCKED: USER        Moving Ligand-Fixed Receptor    =  -5.58 kcal/mol
DOCKED: USER        Moving Ligand-Moving Receptor   =  +0.00 kcal/mol
DOCKED: USER    (2) Final Total Internal Energy     =  -1.37 kcal/mol
DOCKED: USER    (3) Torsional Free Energy           =  +1.49 kcal/mol
DOCKED: USER    (4) Unbound System's Energy         =  -1.37 kcal/mol
DOCKED: USER
DOCKED: USER
DOCKED: REMARK  5 active torsions:
DOCKED: REMARK  status: ('A' for Active; 'I' for Inactive)
DOCKED: REMARK    1  A    between atoms: C_2  and  C_19 
DOCKED: REMARK    2  A    between atoms: C_2  and  C_11 
DOCKED: REMARK    3  A    between atoms: C_19  and  C_20 
DOCKED: REMARK    4  A    between atoms: C_20  and  C_21 
DOCKED: REMARK    5  A    between atoms: C_21  and  N_22 
DOCKED: USER                              x       y       z     vdW  Elec       q    Type
DOCKED: USER                           _______ _______ _______ _____ _____    ______ ____
DOCKED: ROOT
DOCKED: ATOM      1  O   UNL     1     -34.811 -10.792  14.710 -0.08 -0.00    -0.346 OA 
DOCKED: ATOM      2  C   UNL     1     -36.042 -10.023  14.521 -0.11 +0.00    +0.130 C  
DOCKED: ATOM      3  C   UNL     1     -36.920 -10.943  13.723 -0.20 +0.00    +0.004 A  
DOCKED: ATOM      4  C   UNL     1     -36.291 -12.170  13.566 -0.26 +0.00    +0.006 A  
DOCKED: ATOM      5  C   UNL     1     -34.978 -12.152  14.248 -0.10 +0.00    +0.169 C  
DOCKED: ATOM      6  C   UNL     1     -38.180 -10.716  13.189 -0.23 -0.00    -0.001 A  
DOCKED: ATOM      7  C   UNL     1     -36.893 -13.205  12.870 -0.37 +0.00    +0.008 A  
DOCKED: ATOM      8  C   UNL     1     -38.799 -11.748  12.482 -0.28 +0.00    +0.010 A  
DOCKED: ATOM      9  C   UNL     1     -38.158 -12.986  12.323 -0.32 +0.00    +0.068 A  
DOCKED: ATOM     10  N   UNL     1     -39.336 -14.883  11.008 -2.39 -0.00    -0.191 NA 
DOCKED: ATOM     11  C   UNL     1     -38.807 -14.032  11.598 -0.29 +0.00    +0.101 C  
DOCKED: ENDROOT
DOCKED: BRANCH   2  12
DOCKED: ATOM     12  C   UNL     1     -36.620  -9.692  15.891 -0.04 +0.00    +0.038 C  
DOCKED: BRANCH  12  13
DOCKED: ATOM     13  C   UNL     1     -36.775 -10.946  16.749 -0.06 +0.00    +0.038 C  
DOCKED: BRANCH  13  14
DOCKED: ATOM     14  C   UNL     1     -38.144 -11.590  16.537 -0.03 +0.00    +0.251 C  
DOCKED: BRANCH  14  15
DOCKED: ATOM     15  N   UNL     1     -38.033 -13.043  16.575 -0.11 +0.00    +0.141 N  
DOCKED: ATOM     16  C   UNL     1     -37.896 -13.514  17.954 -0.09 +0.00    +0.285 C  
DOCKED: ATOM     17  C   UNL     1     -39.195 -13.666  15.939 -0.09 +0.00    +0.285 C  
DOCKED: ENDBRANCH  14  15
DOCKED: ENDBRANCH  13  14
DOCKED: ENDBRANCH  12  13
DOCKED: ENDBRANCH   2  12
DOCKED: BRANCH   2  18
DOCKED: ATOM     18  C   UNL     1     -35.672  -8.783  13.778 -0.12 +0.00    +0.006 A  
DOCKED: ATOM     19  C   UNL     1     -35.593  -7.565  14.451 -0.04 +0.00    +0.001 A  
DOCKED: ATOM     20  C   UNL     1     -35.247  -6.406  13.755 -0.03 +0.00    +0.029 A  
DOCKED: ATOM     21  C   UNL     1     -34.981  -6.467  12.388 -0.05 +0.00    +0.140 A  
DOCKED: ATOM     22  C   UNL     1     -35.060  -7.686  11.715 -0.14 +0.00    +0.029 A  
DOCKED: ATOM     23  F   UNL     1     -34.647  -5.354  11.721 -0.00 -0.00    -0.204 F  
DOCKED: ATOM     24  C   UNL     1     -35.406  -8.846  12.410 -0.14 +0.00    +0.001 A  
DOCKED: ENDBRANCH   2  18
DOCKED: TORSDOF 5
DOCKED: TER
DOCKED: ENDMDL
________________________________________________________________________________


    FINAL DOCKED STATE:
    ________________________


Run:   325 / 512
Time taken for this run:   0.002s

DOCKED: MODEL        325
DOCKED: USER    Run = 325
DOCKED: USER
DOCKED: USER    Estimated Free Energy of Binding    =  -5.90 kcal/mol  [=(1)+(2)+(3)-(4)]
DOCKED: USER
DOCKED: USER    (1) Final Intermolecular Energy     =  -7.39 kcal/mol
DOCKED: USER        vdW + Hbond + desolv Energy     =  -7.39 kcal/mol
DOCKED: USER        Electrostatic Energy            =  +0.00 kcal/mol
DOCKED: USER        Moving Ligand-Fixed Receptor    =  -7.39 kcal/mol
DOCKED: USER        Moving Ligand-Moving Receptor   =  +0.00 kcal/mol
DOCKED: USER    (2) Final Total Internal Energy     =  -1.37 kcal/mol
DOCKED: USER    (3) Torsional Free Energy           =  +1.49 kcal/mol
DOCKED: USER    (4) Unbound System's Energy         =  -1.37 kcal/mol
DOCKED: USER
DOCKED: USER
DOCKED: REMARK  5 active torsions:
DOCKED: REMARK  status: ('A' for Active; 'I' for Inactive)
DOCKED: REMARK    1  A    between atoms: C_2  and  C_19 
DOCKED: REMARK    2  A    between atoms: C_2  and  C_11 
DOCKED: REMARK    3  A    between atoms: C_19  and  C_20 
DOCKED: REMARK    4  A    between atoms: C_20  and  C_21 
DOCKED: REMARK    5  A    between atoms: C_21  and  N_22 
DOCKED: USER                              x       y       z     vdW  Elec       q    Type
DOCKED: USER                           _______ _______ _______ _____ _____    ______ ____
DOCKED: ROOT
DOCKED: ATOM      1  O   UNL     1     -37.570 -10.763  13.956 -0.04 -0.00    -0.346 OA 
DOCKED: ATOM      2  C   UNL     1     -37.166 -12.169  13.914 -0.22 +0.00    +0.130 C  
DOCKED: ATOM      3  C   UNL     1     -37.644 -12.639  12.571 -0.35 +0.00    +0.004 A  
DOCKED: ATOM      4  C   UNL     1     -38.175 -11.571  11.863 -0.34 +0.00    +0.006 A  
DOCKED: ATOM      5  C   UNL     1     -38.076 -10.334  12.670 -0.23 +0.00    +0.169 C  
DOCKED: ATOM      6  C   UNL     1     -37.601 -13.910  12.015 -0.37 -0.00    -0.001 A  
DOCKED: ATOM      7  C   UNL     1     -38.683 -11.733  10.585 -0.01 +0.00    +0.008 A  
DOCKED: ATOM      8  C   UNL     1     -38.113 -14.091  10.729 -0.45 +0.00    +0.010 A  
DOCKED: ATOM      9  C   UNL     1     -38.651 -13.008  10.018 -0.43 +0.00    +0.068 A  
DOCKED: ATOM     10  N   UNL     1     -39.589 -13.378   7.631 -2.94 -0.00    -0.191 NA 
DOCKED: ATOM     11  C   UNL     1     -39.169 -13.212   8.702 -0.42 +0.00    +0.101 C  
DOCKED: ENDROOT
DOCKED: BRANCH   2  12
DOCKED: ATOM     12  C   UNL     1     -35.651 -12.240  14.063 -0.25 +0.00    +0.038 C  
DOCKED: BRANCH  12  13
DOCKED: ATOM     13  C   UNL     1     -35.108 -11.028  14.819 -0.17 +0.00    +0.038 C  
DOCKED: BRANCH  13  14
DOCKED: ATOM     14  C   UNL     1     -34.689  -9.921  13.853 -0.06 +0.00    +0.251 C  
DOCKED: BRANCH  14  15
DOCKED: ATOM     15  N   UNL     1     -35.123  -8.622  14.352 -0.05 +0.00    +0.141 N  
DOCKED: ATOM     16  C   UNL     1     -35.875  -7.900  13.325 -0.08 +0.00    +0.285 C  
DOCKED: ATOM     17  C   UNL     1     -35.935  -8.778  15.560 -0.01 +0.00    +0.285 C  
DOCKED: ENDBRANCH  14  15
DOCKED: ENDBRANCH  13  14
DOCKED: ENDBRANCH  12  13
DOCKED: ENDBRANCH   2  12
DOCKED: BRANCH   2  18
DOCKED: ATOM     18  C   UNL     1     -37.852 -12.854  15.048 -0.19 +0.00    +0.006 A  
DOCKED: ATOM     19  C   UNL     1     -37.122 -13.245  16.170 -0.18 +0.00    +0.001 A  
DOCKED: ATOM     20  C   UNL     1     -37.764 -13.887  17.229 -0.20 +0.00    +0.029 A  
DOCKED: ATOM     21  C   UNL     1     -39.134 -14.135  17.166 -0.01 +0.00    +0.140 A  
DOCKED: ATOM     22  C   UNL     1     -39.864 -13.744  16.044 -0.16 +0.00    +0.029 A  
DOCKED: ATOM     23  F   UNL     1     -39.751 -14.749  18.185 -0.03 -0.00    -0.204 F  
DOCKED: ATOM     24  C   UNL     1     -39.222 -13.103  14.983 -0.18 +0.00    +0.001 A  
DOCKED: ENDBRANCH   2  18
DOCKED: TORSDOF 5
DOCKED: TER
DOCKED: ENDMDL
________________________________________________________________________________


    FINAL DOCKED STATE:
    ________________________


Run:   326 / 512
Time taken for this run:   0.002s

DOCKED: MODEL        326
DOCKED: USER    Run = 326
DOCKED: USER
DOCKED: USER    Estimated Free Energy of Binding    =  -3.78 kcal/mol  [=(1)+(2)+(3)-(4)]
DOCKED: USER
DOCKED: USER    (1) Final Intermolecular Energy     =  -5.27 kcal/mol
DOCKED: USER        vdW + Hbond + desolv Energy     =  -5.27 kcal/mol
DOCKED: USER        Electrostatic Energy            =  +0.00 kcal/mol
DOCKED: USER        Moving Ligand-Fixed Receptor    =  -5.27 kcal/mol
DOCKED: USER        Moving Ligand-Moving Receptor   =  +0.00 kcal/mol
DOCKED: USER    (2) Final Total Internal Energy     =  -1.36 kcal/mol
DOCKED: USER    (3) Torsional Free Energy           =  +1.49 kcal/mol
DOCKED: USER    (4) Unbound System's Energy         =  -1.36 kcal/mol
DOCKED: USER
DOCKED: USER
DOCKED: REMARK  5 active torsions:
DOCKED: REMARK  status: ('A' for Active; 'I' for Inactive)
DOCKED: REMARK    1  A    between atoms: C_2  and  C_19 
DOCKED: REMARK    2  A    between atoms: C_2  and  C_11 
DOCKED: REMARK    3  A    between atoms: C_19  and  C_20 
DOCKED: REMARK    4  A    between atoms: C_20  and  C_21 
DOCKED: REMARK    5  A    between atoms: C_21  and  N_22 
DOCKED: USER                              x       y       z     vdW  Elec       q    Type
DOCKED: USER                           _______ _______ _______ _____ _____    ______ ____
DOCKED: ROOT
DOCKED: ATOM      1  O   UNL     1     -30.619 -10.430   5.263 -0.01 -0.00    -0.346 OA 
DOCKED: ATOM      2  C   UNL     1     -30.873  -9.794   6.557 -0.08 +0.00    +0.130 C  
DOCKED: ATOM      3  C   UNL     1     -31.141 -10.949   7.478 -0.15 +0.00    +0.004 A  
DOCKED: ATOM      4  C   UNL     1     -30.947 -12.144   6.798 -0.17 +0.00    +0.006 A  
DOCKED: ATOM      5  C   UNL     1     -30.532 -11.867   5.405 -0.07 +0.00    +0.169 C  
DOCKED: ATOM      6  C   UNL     1     -31.515 -10.944   8.814 -0.20 -0.00    -0.001 A  
DOCKED: ATOM      7  C   UNL     1     -31.123 -13.366   7.424 -0.26 +0.00    +0.008 A  
DOCKED: ATOM      8  C   UNL     1     -31.700 -12.168   9.458 -0.18 +0.00    +0.010 A  
DOCKED: ATOM      9  C   UNL     1     -31.505 -13.373   8.766 -0.31 +0.00    +0.068 A  
DOCKED: ATOM     10  N   UNL     1     -31.853 -15.628   9.993 -2.32 -0.00    -0.191 NA 
DOCKED: ATOM     11  C   UNL     1     -31.698 -14.617   9.443 -0.39 +0.00    +0.101 C  
DOCKED: ENDROOT
DOCKED: BRANCH   2  12
DOCKED: ATOM     12  C   UNL     1     -29.639  -8.993   6.953 -0.02 +0.00    +0.038 C  
DOCKED: BRANCH  12  13
DOCKED: ATOM     13  C   UNL     1     -28.731  -9.794   7.884 -0.02 +0.00    +0.038 C  
DOCKED: BRANCH  13  14
DOCKED: ATOM     14  C   UNL     1     -27.723 -10.623   7.090 -0.00 +0.00    +0.251 C  
DOCKED: BRANCH  14  15
DOCKED: ATOM     15  N   UNL     1     -27.875 -12.039   7.401 -0.02 +0.00    +0.141 N  
DOCKED: ATOM     16  C   UNL     1     -27.039 -12.854   6.518 -0.00 +0.00    +0.285 C  
DOCKED: ATOM     17  C   UNL     1     -27.536 -12.298   8.802 -0.00 +0.00    +0.285 C  
DOCKED: ENDBRANCH  14  15
DOCKED: ENDBRANCH  13  14
DOCKED: ENDBRANCH  12  13
DOCKED: ENDBRANCH   2  12
DOCKED: BRANCH   2  18
DOCKED: ATOM     18  C   UNL     1     -32.059  -8.905   6.380 -0.14 +0.00    +0.006 A  
DOCKED: ATOM     19  C   UNL     1     -31.955  -7.753   5.602 -0.09 +0.00    +0.001 A  
DOCKED: ATOM     20  C   UNL     1     -33.064  -6.922   5.437 -0.14 +0.00    +0.029 A  
DOCKED: ATOM     21  C   UNL     1     -34.274  -7.244   6.051 -0.11 +0.00    +0.140 A  
DOCKED: ATOM     22  C   UNL     1     -34.377  -8.397   6.829 -0.24 +0.00    +0.029 A  
DOCKED: ATOM     23  F   UNL     1     -35.338  -6.447   5.892 -0.07 -0.00    -0.204 F  
DOCKED: ATOM     24  C   UNL     1     -33.268  -9.228   6.995 -0.26 +0.00    +0.001 A  
DOCKED: ENDBRANCH   2  18
DOCKED: TORSDOF 5
DOCKED: TER
DOCKED: ENDMDL
________________________________________________________________________________


    FINAL DOCKED STATE:
    ________________________


Run:   327 / 512
Time taken for this run:   0.002s

DOCKED: MODEL        327
DOCKED: USER    Run = 327
DOCKED: USER
DOCKED: USER    Estimated Free Energy of Binding    =  -3.75 kcal/mol  [=(1)+(2)+(3)-(4)]
DOCKED: USER
DOCKED: USER    (1) Final Intermolecular Energy     =  -5.24 kcal/mol
DOCKED: USER        vdW + Hbond + desolv Energy     =  -5.24 kcal/mol
DOCKED: USER        Electrostatic Energy            =  +0.00 kcal/mol
DOCKED: USER        Moving Ligand-Fixed Receptor    =  -5.24 kcal/mol
DOCKED: USER        Moving Ligand-Moving Receptor   =  +0.00 kcal/mol
DOCKED: USER    (2) Final Total Internal Energy     =  -1.25 kcal/mol
DOCKED: USER    (3) Torsional Free Energy           =  +1.49 kcal/mol
DOCKED: USER    (4) Unbound System's Energy         =  -1.25 kcal/mol
DOCKED: USER
DOCKED: USER
DOCKED: REMARK  5 active torsions:
DOCKED: REMARK  status: ('A' for Active; 'I' for Inactive)
DOCKED: REMARK    1  A    between atoms: C_2  and  C_19 
DOCKED: REMARK    2  A    between atoms: C_2  and  C_11 
DOCKED: REMARK    3  A    between atoms: C_19  and  C_20 
DOCKED: REMARK    4  A    between atoms: C_20  and  C_21 
DOCKED: REMARK    5  A    between atoms: C_21  and  N_22 
DOCKED: USER                              x       y       z     vdW  Elec       q    Type
DOCKED: USER                           _______ _______ _______ _____ _____    ______ ____
DOCKED: ROOT
DOCKED: ATOM      1  O   UNL     1     -36.341  -9.704  15.285 -0.01 -0.00    -0.346 OA 
DOCKED: ATOM      2  C   UNL     1     -36.979  -9.067  14.132 -0.09 +0.00    +0.130 C  
DOCKED: ATOM      3  C   UNL     1     -37.522 -10.221  13.339 -0.21 +0.00    +0.004 A  
DOCKED: ATOM      4  C   UNL     1     -37.312 -11.404  14.033 -0.18 +0.00    +0.006 A  
DOCKED: ATOM      5  C   UNL     1     -36.637 -11.120  15.319 -0.09 +0.00    +0.169 C  
DOCKED: ATOM      6  C   UNL     1     -38.162 -10.222  12.109 -0.23 -0.00    -0.001 A  
DOCKED: ATOM      7  C   UNL     1     -37.727 -12.622  13.523 -0.27 +0.00    +0.008 A  
DOCKED: ATOM      8  C   UNL     1     -38.583 -11.443  11.578 -0.29 +0.00    +0.010 A  
DOCKED: ATOM      9  C   UNL     1     -38.366 -12.637  12.282 -0.30 +0.00    +0.068 A  
DOCKED: ATOM     10  N   UNL     1     -39.164 -14.885  11.272 -2.57 -0.00    -0.191 NA 
DOCKED: ATOM     11  C   UNL     1     -38.806 -13.877  11.725 -0.31 +0.00    +0.101 C  
DOCKED: ENDROOT
DOCKED: BRANCH   2  12
DOCKED: ATOM     12  C   UNL     1     -38.068  -8.130  14.639 -0.06 +0.00    +0.038 C  
DOCKED: BRANCH  12  13
DOCKED: ATOM     13  C   UNL     1     -37.690  -7.512  15.983 -0.02 +0.00    +0.038 C  
DOCKED: BRANCH  13  14
DOCKED: ATOM     14  C   UNL     1     -38.170  -6.065  16.077 -0.00 +0.00    +0.251 C  
DOCKED: BRANCH  14  15
DOCKED: ATOM     15  N   UNL     1     -37.489  -5.239  15.087 -0.01 +0.00    +0.141 N  
DOCKED: ATOM     16  C   UNL     1     -38.334  -4.114  14.685 -0.00 +0.00    +0.285 C  
DOCKED: ATOM     17  C   UNL     1     -36.212  -4.753  15.611 +0.00 +0.00    +0.285 C  
DOCKED: ENDBRANCH  14  15
DOCKED: ENDBRANCH  13  14
DOCKED: ENDBRANCH  12  13
DOCKED: ENDBRANCH   2  12
DOCKED: BRANCH   2  18
DOCKED: ATOM     18  C   UNL     1     -35.915  -8.314  13.406 -0.13 +0.00    +0.006 A  
DOCKED: ATOM     19  C   UNL     1     -34.640  -8.862  13.273 -0.13 +0.00    +0.001 A  
DOCKED: ATOM     20  C   UNL     1     -33.646  -8.156  12.594 -0.10 +0.00    +0.029 A  
DOCKED: ATOM     21  C   UNL     1     -33.928  -6.904  12.050 -0.06 +0.00    +0.140 A  
DOCKED: ATOM     22  C   UNL     1     -35.203  -6.356  12.184 -0.07 +0.00    +0.029 A  
DOCKED: ATOM     23  F   UNL     1     -32.974  -6.227  11.397 -0.00 -0.00    -0.204 F  
DOCKED: ATOM     24  C   UNL     1     -36.198  -7.061  12.863 -0.10 +0.00    +0.001 A  
DOCKED: ENDBRANCH   2  18
DOCKED: TORSDOF 5
DOCKED: TER
DOCKED: ENDMDL
________________________________________________________________________________


    FINAL DOCKED STATE:
    ________________________


Run:   328 / 512
Time taken for this run:   0.002s

DOCKED: MODEL        328
DOCKED: USER    Run = 328
DOCKED: USER
DOCKED: USER    Estimated Free Energy of Binding    =  -4.14 kcal/mol  [=(1)+(2)+(3)-(4)]
DOCKED: USER
DOCKED: USER    (1) Final Intermolecular Energy     =  -5.63 kcal/mol
DOCKED: USER        vdW + Hbond + desolv Energy     =  -5.63 kcal/mol
DOCKED: USER        Electrostatic Energy            =  +0.00 kcal/mol
DOCKED: USER        Moving Ligand-Fixed Receptor    =  -5.63 kcal/mol
DOCKED: USER        Moving Ligand-Moving Receptor   =  +0.00 kcal/mol
DOCKED: USER    (2) Final Total Internal Energy     =  -1.29 kcal/mol
DOCKED: USER    (3) Torsional Free Energy           =  +1.49 kcal/mol
DOCKED: USER    (4) Unbound System's Energy         =  -1.29 kcal/mol
DOCKED: USER
DOCKED: USER
DOCKED: REMARK  5 active torsions:
DOCKED: REMARK  status: ('A' for Active; 'I' for Inactive)
DOCKED: REMARK    1  A    between atoms: C_2  and  C_19 
DOCKED: REMARK    2  A    between atoms: C_2  and  C_11 
DOCKED: REMARK    3  A    between atoms: C_19  and  C_20 
DOCKED: REMARK    4  A    between atoms: C_20  and  C_21 
DOCKED: REMARK    5  A    between atoms: C_21  and  N_22 
DOCKED: USER                              x       y       z     vdW  Elec       q    Type
DOCKED: USER                           _______ _______ _______ _____ _____    ______ ____
DOCKED: ROOT
DOCKED: ATOM      1  O   UNL     1     -40.740  -8.393  13.877 -0.04 -0.00    -0.346 OA 
DOCKED: ATOM      2  C   UNL     1     -39.432  -8.303  13.226 -0.19 +0.00    +0.130 C  
DOCKED: ATOM      3  C   UNL     1     -39.172  -9.701  12.746 -0.23 +0.00    +0.004 A  
DOCKED: ATOM      4  C   UNL     1     -40.281 -10.496  13.000 -0.21 +0.00    +0.006 A  
DOCKED: ATOM      5  C   UNL     1     -41.340  -9.689  13.645 -0.14 +0.00    +0.169 C  
DOCKED: ATOM      6  C   UNL     1     -38.049 -10.225  12.123 -0.24 -0.00    -0.001 A  
DOCKED: ATOM      7  C   UNL     1     -40.304 -11.835  12.647 -0.23 +0.00    +0.008 A  
DOCKED: ATOM      8  C   UNL     1     -38.055 -11.574  11.765 -0.35 +0.00    +0.010 A  
DOCKED: ATOM      9  C   UNL     1     -39.177 -12.375  12.025 -0.27 +0.00    +0.068 A  
DOCKED: ATOM     10  N   UNL     1     -39.157 -14.874  11.343 -2.61 -0.00    -0.191 NA 
DOCKED: ATOM     11  C   UNL     1     -39.166 -13.753  11.650 -0.38 +0.00    +0.101 C  
DOCKED: ENDROOT
DOCKED: BRANCH   2  12
DOCKED: ATOM     12  C   UNL     1     -39.528  -7.293  12.089 -0.13 +0.00    +0.038 C  
DOCKED: BRANCH  12  13
DOCKED: ATOM     13  C   UNL     1     -39.653  -5.866  12.620 -0.16 +0.00    +0.038 C  
DOCKED: BRANCH  13  14
DOCKED: ATOM     14  C   UNL     1     -38.755  -4.908  11.839 -0.09 +0.00    +0.251 C  
DOCKED: BRANCH  14  15
DOCKED: ATOM     15  N   UNL     1     -37.351  -5.215  12.083 -0.07 +0.00    +0.141 N  
DOCKED: ATOM     16  C   UNL     1     -36.606  -5.258  10.824 -0.07 +0.00    +0.285 C  
DOCKED: ATOM     17  C   UNL     1     -36.758  -4.232  12.991 -0.01 +0.00    +0.285 C  
DOCKED: ENDBRANCH  14  15
DOCKED: ENDBRANCH  13  14
DOCKED: ENDBRANCH  12  13
DOCKED: ENDBRANCH   2  12
DOCKED: BRANCH   2  18
DOCKED: ATOM     18  C   UNL     1     -38.459  -7.854  14.264 -0.07 +0.00    +0.006 A  
DOCKED: ATOM     19  C   UNL     1     -38.911  -7.488  15.531 -0.02 +0.00    +0.001 A  
DOCKED: ATOM     20  C   UNL     1     -37.999  -7.068  16.501 -0.01 +0.00    +0.029 A  
DOCKED: ATOM     21  C   UNL     1     -36.639  -7.016  16.203 -0.00 +0.00    +0.140 A  
DOCKED: ATOM     22  C   UNL     1     -36.187  -7.383  14.936 -0.03 +0.00    +0.029 A  
DOCKED: ATOM     23  F   UNL     1     -35.764  -6.615  17.135 -0.00 -0.00    -0.204 F  
DOCKED: ATOM     24  C   UNL     1     -37.098  -7.803  13.965 -0.08 +0.00    +0.001 A  
DOCKED: ENDBRANCH   2  18
DOCKED: TORSDOF 5
DOCKED: TER
DOCKED: ENDMDL
________________________________________________________________________________


    FINAL DOCKED STATE:
    ________________________


Run:   329 / 512
Time taken for this run:   0.002s

DOCKED: MODEL        329
DOCKED: USER    Run = 329
DOCKED: USER
DOCKED: USER    Estimated Free Energy of Binding    =  -4.32 kcal/mol  [=(1)+(2)+(3)-(4)]
DOCKED: USER
DOCKED: USER    (1) Final Intermolecular Energy     =  -5.81 kcal/mol
DOCKED: USER        vdW + Hbond + desolv Energy     =  -5.81 kcal/mol
DOCKED: USER        Electrostatic Energy            =  +0.00 kcal/mol
DOCKED: USER        Moving Ligand-Fixed Receptor    =  -5.81 kcal/mol
DOCKED: USER        Moving Ligand-Moving Receptor   =  +0.00 kcal/mol
DOCKED: USER    (2) Final Total Internal Energy     =  -1.31 kcal/mol
DOCKED: USER    (3) Torsional Free Energy           =  +1.49 kcal/mol
DOCKED: USER    (4) Unbound System's Energy         =  -1.31 kcal/mol
DOCKED: USER
DOCKED: USER
DOCKED: REMARK  5 active torsions:
DOCKED: REMARK  status: ('A' for Active; 'I' for Inactive)
DOCKED: REMARK    1  A    between atoms: C_2  and  C_19 
DOCKED: REMARK    2  A    between atoms: C_2  and  C_11 
DOCKED: REMARK    3  A    between atoms: C_19  and  C_20 
DOCKED: REMARK    4  A    between atoms: C_20  and  C_21 
DOCKED: REMARK    5  A    between atoms: C_21  and  N_22 
DOCKED: USER                              x       y       z     vdW  Elec       q    Type
DOCKED: USER                           _______ _______ _______ _____ _____    ______ ____
DOCKED: ROOT
DOCKED: ATOM      1  O   UNL     1     -34.760 -10.582  14.802 -0.07 -0.00    -0.346 OA 
DOCKED: ATOM      2  C   UNL     1     -35.594  -9.685  14.001 -0.13 +0.00    +0.130 C  
DOCKED: ATOM      3  C   UNL     1     -36.545 -10.610  13.299 -0.22 +0.00    +0.004 A  
DOCKED: ATOM      4  C   UNL     1     -36.347 -11.910  13.743 -0.25 +0.00    +0.006 A  
DOCKED: ATOM      5  C   UNL     1     -35.275 -11.933  14.764 -0.15 +0.00    +0.169 C  
DOCKED: ATOM      6  C   UNL     1     -37.516 -10.323  12.351 -0.27 -0.00    -0.001 A  
DOCKED: ATOM      7  C   UNL     1     -37.103 -12.961  13.255 -0.34 +0.00    +0.008 A  
DOCKED: ATOM      8  C   UNL     1     -38.285 -11.373  11.846 -0.33 +0.00    +0.010 A  
DOCKED: ATOM      9  C   UNL     1     -38.080 -12.686  12.297 -0.31 +0.00    +0.068 A  
DOCKED: ATOM     10  N   UNL     1     -39.527 -14.611  11.343 -2.56 -0.00    -0.191 NA 
DOCKED: ATOM     11  C   UNL     1     -38.877 -13.748  11.770 -0.37 +0.00    +0.101 C  
DOCKED: ENDROOT
DOCKED: BRANCH   2  12
DOCKED: ATOM     12  C   UNL     1     -36.297  -8.712  14.940 -0.06 +0.00    +0.038 C  
DOCKED: BRANCH  12  13
DOCKED: ATOM     13  C   UNL     1     -37.423  -9.398  15.711 -0.04 +0.00    +0.038 C  
DOCKED: BRANCH  13  14
DOCKED: ATOM     14  C   UNL     1     -38.790  -9.004  15.154 -0.02 +0.00    +0.251 C  
DOCKED: BRANCH  14  15
DOCKED: ATOM     15  N   UNL     1     -39.762 -10.063  15.399 -0.03 +0.00    +0.141 N  
DOCKED: ATOM     16  C   UNL     1     -39.086 -11.318  15.729 -0.02 +0.00    +0.285 C  
DOCKED: ATOM     17  C   UNL     1     -40.680  -9.682  16.474 +0.00 +0.00    +0.285 C  
DOCKED: ENDBRANCH  14  15
DOCKED: ENDBRANCH  13  14
DOCKED: ENDBRANCH  12  13
DOCKED: ENDBRANCH   2  12
DOCKED: BRANCH   2  18
DOCKED: ATOM     18  C   UNL     1     -34.684  -8.965  13.063 -0.12 +0.00    +0.006 A  
DOCKED: ATOM     19  C   UNL     1     -33.304  -9.144  13.157 -0.10 +0.00    +0.001 A  
DOCKED: ATOM     20  C   UNL     1     -32.454  -8.469  12.279 -0.09 +0.00    +0.029 A  
DOCKED: ATOM     21  C   UNL     1     -32.984  -7.619  11.310 -0.07 +0.00    +0.140 A  
DOCKED: ATOM     22  C   UNL     1     -34.364  -7.441  11.217 -0.13 +0.00    +0.029 A  
DOCKED: ATOM     23  F   UNL     1     -32.168  -6.973  10.467 -0.00 -0.00    -0.204 F  
DOCKED: ATOM     24  C   UNL     1     -35.215  -8.114  12.095 -0.16 +0.00    +0.001 A  
DOCKED: ENDBRANCH   2  18
DOCKED: TORSDOF 5
DOCKED: TER
DOCKED: ENDMDL
________________________________________________________________________________


    FINAL DOCKED STATE:
    ________________________


Run:   330 / 512
Time taken for this run:   0.002s

DOCKED: MODEL        330
DOCKED: USER    Run = 330
DOCKED: USER
DOCKED: USER    Estimated Free Energy of Binding    =  -5.55 kcal/mol  [=(1)+(2)+(3)-(4)]
DOCKED: USER
DOCKED: USER    (1) Final Intermolecular Energy     =  -7.04 kcal/mol
DOCKED: USER        vdW + Hbond + desolv Energy     =  -7.04 kcal/mol
DOCKED: USER        Electrostatic Energy            =  +0.00 kcal/mol
DOCKED: USER        Moving Ligand-Fixed Receptor    =  -7.04 kcal/mol
DOCKED: USER        Moving Ligand-Moving Receptor   =  +0.00 kcal/mol
DOCKED: USER    (2) Final Total Internal Energy     =  -1.05 kcal/mol
DOCKED: USER    (3) Torsional Free Energy           =  +1.49 kcal/mol
DOCKED: USER    (4) Unbound System's Energy         =  -1.05 kcal/mol
DOCKED: USER
DOCKED: USER
DOCKED: REMARK  5 active torsions:
DOCKED: REMARK  status: ('A' for Active; 'I' for Inactive)
DOCKED: REMARK    1  A    between atoms: C_2  and  C_19 
DOCKED: REMARK    2  A    between atoms: C_2  and  C_11 
DOCKED: REMARK    3  A    between atoms: C_19  and  C_20 
DOCKED: REMARK    4  A    between atoms: C_20  and  C_21 
DOCKED: REMARK    5  A    between atoms: C_21  and  N_22 
DOCKED: USER                              x       y       z     vdW  Elec       q    Type
DOCKED: USER                           _______ _______ _______ _____ _____    ______ ____
DOCKED: ROOT
DOCKED: ATOM      1  O   UNL     1     -37.645 -10.639  14.069 -0.03 -0.00    -0.346 OA 
DOCKED: ATOM      2  C   UNL     1     -37.016 -11.959  14.026 -0.21 +0.00    +0.130 C  
DOCKED: ATOM      3  C   UNL     1     -37.501 -12.546  12.732 -0.33 +0.00    +0.004 A  
DOCKED: ATOM      4  C   UNL     1     -38.251 -11.604  12.044 -0.34 +0.00    +0.006 A  
DOCKED: ATOM      5  C   UNL     1     -38.303 -10.342  12.816 -0.22 +0.00    +0.169 C  
DOCKED: ATOM      6  C   UNL     1     -37.286 -13.810  12.202 -0.42 -0.00    -0.001 A  
DOCKED: ATOM      7  C   UNL     1     -38.812 -11.890  10.811 -0.25 +0.00    +0.008 A  
DOCKED: ATOM      8  C   UNL     1     -37.849 -14.116  10.962 -0.38 +0.00    +0.010 A  
DOCKED: ATOM      9  C   UNL     1     -38.608 -13.160  10.270 -0.43 +0.00    +0.068 A  
DOCKED: ATOM     10  N   UNL     1     -39.635 -13.758   7.968 -2.37 -0.00    -0.191 NA 
DOCKED: ATOM     11  C   UNL     1     -39.175 -13.490   9.000 -0.48 +0.00    +0.101 C  
DOCKED: ENDROOT
DOCKED: BRANCH   2  12
DOCKED: ATOM     12  C   UNL     1     -35.503 -11.775  14.064 -0.23 +0.00    +0.038 C  
DOCKED: BRANCH  12  13
DOCKED: ATOM     13  C   UNL     1     -35.126 -10.337  14.416 -0.15 +0.00    +0.038 C  
DOCKED: BRANCH  13  14
DOCKED: ATOM     14  C   UNL     1     -35.159  -9.442  13.178 -0.05 +0.00    +0.251 C  
DOCKED: BRANCH  14  15
DOCKED: ATOM     15  N   UNL     1     -34.057  -8.488  13.213 -0.09 +0.00    +0.141 N  
DOCKED: ATOM     16  C   UNL     1     -32.774  -9.177  13.065 -0.07 +0.00    +0.285 C  
DOCKED: ATOM     17  C   UNL     1     -34.215  -7.479  12.164 -0.08 +0.00    +0.285 C  
DOCKED: ENDBRANCH  14  15
DOCKED: ENDBRANCH  13  14
DOCKED: ENDBRANCH  12  13
DOCKED: ENDBRANCH   2  12
DOCKED: BRANCH   2  18
DOCKED: ATOM     18  C   UNL     1     -37.497 -12.711  15.222 -0.18 +0.00    +0.006 A  
DOCKED: ATOM     19  C   UNL     1     -38.779 -13.259  15.231 -0.20 +0.00    +0.001 A  
DOCKED: ATOM     20  C   UNL     1     -39.227 -13.962  16.351 -0.06 +0.00    +0.029 A  
DOCKED: ATOM     21  C   UNL     1     -38.394 -14.115  17.458 -0.11 +0.00    +0.140 A  
DOCKED: ATOM     22  C   UNL     1     -37.112 -13.566  17.448 -0.19 +0.00    +0.029 A  
DOCKED: ATOM     23  F   UNL     1     -38.824 -14.791  18.531 -0.04 -0.00    -0.204 F  
DOCKED: ATOM     24  C   UNL     1     -36.662 -12.863  16.329 -0.15 +0.00    +0.001 A  
DOCKED: ENDBRANCH   2  18
DOCKED: TORSDOF 5
DOCKED: TER
DOCKED: ENDMDL
________________________________________________________________________________


    FINAL DOCKED STATE:
    ________________________


Run:   331 / 512
Time taken for this run:   0.002s

DOCKED: MODEL        331
DOCKED: USER    Run = 331
DOCKED: USER
DOCKED: USER    Estimated Free Energy of Binding    =  -3.82 kcal/mol  [=(1)+(2)+(3)-(4)]
DOCKED: USER
DOCKED: USER    (1) Final Intermolecular Energy     =  -5.32 kcal/mol
DOCKED: USER        vdW + Hbond + desolv Energy     =  -5.32 kcal/mol
DOCKED: USER        Electrostatic Energy            =  +0.00 kcal/mol
DOCKED: USER        Moving Ligand-Fixed Receptor    =  -5.32 kcal/mol
DOCKED: USER        Moving Ligand-Moving Receptor   =  +0.00 kcal/mol
DOCKED: USER    (2) Final Total Internal Energy     =  -1.36 kcal/mol
DOCKED: USER    (3) Torsional Free Energy           =  +1.49 kcal/mol
DOCKED: USER    (4) Unbound System's Energy         =  -1.36 kcal/mol
DOCKED: USER
DOCKED: USER
DOCKED: REMARK  5 active torsions:
DOCKED: REMARK  status: ('A' for Active; 'I' for Inactive)
DOCKED: REMARK    1  A    between atoms: C_2  and  C_19 
DOCKED: REMARK    2  A    between atoms: C_2  and  C_11 
DOCKED: REMARK    3  A    between atoms: C_19  and  C_20 
DOCKED: REMARK    4  A    between atoms: C_20  and  C_21 
DOCKED: REMARK    5  A    between atoms: C_21  and  N_22 
DOCKED: USER                              x       y       z     vdW  Elec       q    Type
DOCKED: USER                           _______ _______ _______ _____ _____    ______ ____
DOCKED: ROOT
DOCKED: ATOM      1  O   UNL     1     -33.168  -9.327   6.794 -0.06 -0.00    -0.346 OA 
DOCKED: ATOM      2  C   UNL     1     -31.711  -9.463   6.828 -0.12 +0.00    +0.130 C  
DOCKED: ATOM      3  C   UNL     1     -31.490 -10.790   7.494 -0.18 +0.00    +0.004 A  
DOCKED: ATOM      4  C   UNL     1     -32.711 -11.408   7.720 -0.32 +0.00    +0.006 A  
DOCKED: ATOM      5  C   UNL     1     -33.809 -10.553   7.216 -0.22 +0.00    +0.169 C  
DOCKED: ATOM      6  C   UNL     1     -30.302 -11.406   7.861 -0.10 -0.00    -0.001 A  
DOCKED: ATOM      7  C   UNL     1     -32.788 -12.654   8.321 -0.15 +0.00    +0.008 A  
DOCKED: ATOM      8  C   UNL     1     -30.363 -12.660   8.471 -0.17 +0.00    +0.010 A  
DOCKED: ATOM      9  C   UNL     1     -31.600 -13.280   8.699 -0.31 +0.00    +0.068 A  
DOCKED: ATOM     10  N   UNL     1     -31.678 -15.611   9.829 -2.25 -0.00    -0.191 NA 
DOCKED: ATOM     11  C   UNL     1     -31.643 -14.565   9.323 -0.40 +0.00    +0.101 C  
DOCKED: ENDROOT
DOCKED: BRANCH   2  12
DOCKED: ATOM     12  C   UNL     1     -31.189  -9.423   5.397 -0.13 +0.00    +0.038 C  
DOCKED: BRANCH  12  13
DOCKED: ATOM     13  C   UNL     1     -32.248  -8.894   4.432 -0.20 +0.00    +0.038 C  
DOCKED: BRANCH  13  14
DOCKED: ATOM     14  C   UNL     1     -32.205  -7.370   4.350 -0.10 +0.00    +0.251 C  
DOCKED: BRANCH  14  15
DOCKED: ATOM     15  N   UNL     1     -33.553  -6.831   4.206 -0.20 +0.00    +0.141 N  
DOCKED: ATOM     16  C   UNL     1     -34.086  -6.421   5.506 -0.13 +0.00    +0.285 C  
DOCKED: ATOM     17  C   UNL     1     -33.560  -5.702   3.275 -0.13 +0.00    +0.285 C  
DOCKED: ENDBRANCH  14  15
DOCKED: ENDBRANCH  13  14
DOCKED: ENDBRANCH  12  13
DOCKED: ENDBRANCH   2  12
DOCKED: BRANCH   2  18
DOCKED: ATOM     18  C   UNL     1     -31.185  -8.317   7.626 -0.04 +0.00    +0.006 A  
DOCKED: ATOM     19  C   UNL     1     -29.809  -8.133   7.757 -0.02 +0.00    +0.001 A  
DOCKED: ATOM     20  C   UNL     1     -29.318  -7.061   8.503 -0.00 +0.00    +0.029 A  
DOCKED: ATOM     21  C   UNL     1     -30.203  -6.175   9.116 -0.00 +0.00    +0.140 A  
DOCKED: ATOM     22  C   UNL     1     -31.579  -6.359   8.985 -0.02 +0.00    +0.029 A  
DOCKED: ATOM     23  F   UNL     1     -29.731  -5.145   9.831 +0.00 -0.00    -0.204 F  
DOCKED: ATOM     24  C   UNL     1     -32.071  -7.432   8.239 -0.05 +0.00    +0.001 A  
DOCKED: ENDBRANCH   2  18
DOCKED: TORSDOF 5
DOCKED: TER
DOCKED: ENDMDL
________________________________________________________________________________


    FINAL DOCKED STATE:
    ________________________


Run:   332 / 512
Time taken for this run:   0.002s

DOCKED: MODEL        332
DOCKED: USER    Run = 332
DOCKED: USER
DOCKED: USER    Estimated Free Energy of Binding    =  -4.53 kcal/mol  [=(1)+(2)+(3)-(4)]
DOCKED: USER
DOCKED: USER    (1) Final Intermolecular Energy     =  -6.02 kcal/mol
DOCKED: USER        vdW + Hbond + desolv Energy     =  -6.02 kcal/mol
DOCKED: USER        Electrostatic Energy            =  +0.00 kcal/mol
DOCKED: USER        Moving Ligand-Fixed Receptor    =  -6.02 kcal/mol
DOCKED: USER        Moving Ligand-Moving Receptor   =  +0.00 kcal/mol
DOCKED: USER    (2) Final Total Internal Energy     =  -1.11 kcal/mol
DOCKED: USER    (3) Torsional Free Energy           =  +1.49 kcal/mol
DOCKED: USER    (4) Unbound System's Energy         =  -1.11 kcal/mol
DOCKED: USER
DOCKED: USER
DOCKED: REMARK  5 active torsions:
DOCKED: REMARK  status: ('A' for Active; 'I' for Inactive)
DOCKED: REMARK    1  A    between atoms: C_2  and  C_19 
DOCKED: REMARK    2  A    between atoms: C_2  and  C_11 
DOCKED: REMARK    3  A    between atoms: C_19  and  C_20 
DOCKED: REMARK    4  A    between atoms: C_20  and  C_21 
DOCKED: REMARK    5  A    between atoms: C_21  and  N_22 
DOCKED: USER                              x       y       z     vdW  Elec       q    Type
DOCKED: USER                           _______ _______ _______ _____ _____    ______ ____
DOCKED: ROOT
DOCKED: ATOM      1  O   UNL     1     -38.683 -10.451  14.302 -0.01 -0.00    -0.346 OA 
DOCKED: ATOM      2  C   UNL     1     -37.613 -11.442  14.180 -0.14 +0.00    +0.130 C  
DOCKED: ATOM      3  C   UNL     1     -37.886 -12.104  12.860 -0.30 +0.00    +0.004 A  
DOCKED: ATOM      4  C   UNL     1     -38.951 -11.473  12.232 -0.29 +0.00    +0.006 A  
DOCKED: ATOM      5  C   UNL     1     -39.440 -10.358  13.074 -0.18 +0.00    +0.169 C  
DOCKED: ATOM      6  C   UNL     1     -37.237 -13.173  12.259 -0.37 -0.00    -0.001 A  
DOCKED: ATOM      7  C   UNL     1     -39.403 -11.887  10.991 +0.05 +0.00    +0.008 A  
DOCKED: ATOM      8  C   UNL     1     -37.685 -13.605  11.009 -0.23 +0.00    +0.010 A  
DOCKED: ATOM      9  C   UNL     1     -38.762 -12.964  10.379 -0.42 +0.00    +0.068 A  
DOCKED: ATOM     10  N   UNL     1     -39.565 -13.788   8.057 -2.23 -0.00    -0.191 NA 
DOCKED: ATOM     11  C   UNL     1     -39.206 -13.419   9.099 -0.49 +0.00    +0.101 C  
DOCKED: ENDROOT
DOCKED: BRANCH   2  12
DOCKED: ATOM     12  C   UNL     1     -36.274 -10.715  14.213 -0.18 +0.00    +0.038 C  
DOCKED: BRANCH  12  13
DOCKED: ATOM     13  C   UNL     1     -35.716 -10.642  15.633 -0.10 +0.00    +0.038 C  
DOCKED: BRANCH  13  14
DOCKED: ATOM     14  C   UNL     1     -34.234 -10.271  15.622 -0.05 +0.00    +0.251 C  
DOCKED: BRANCH  14  15
DOCKED: ATOM     15  N   UNL     1     -33.413 -11.455  15.849 -0.08 +0.00    +0.141 N  
DOCKED: ATOM     16  C   UNL     1     -33.992 -12.289  16.903 -0.05 +0.00    +0.285 C  
DOCKED: ATOM     17  C   UNL     1     -33.267 -12.226  14.613 -0.08 +0.00    +0.285 C  
DOCKED: ENDBRANCH  14  15
DOCKED: ENDBRANCH  13  14
DOCKED: ENDBRANCH  12  13
DOCKED: ENDBRANCH   2  12
DOCKED: BRANCH   2  18
DOCKED: ATOM     18  C   UNL     1     -37.748 -12.375  15.337 -0.14 +0.00    +0.006 A  
DOCKED: ATOM     19  C   UNL     1     -38.464 -11.983  16.468 -0.08 +0.00    +0.001 A  
DOCKED: ATOM     20  C   UNL     1     -38.589 -12.855  17.550 -0.10 +0.00    +0.029 A  
DOCKED: ATOM     21  C   UNL     1     -38.000 -14.118  17.499 -0.15 +0.00    +0.140 A  
DOCKED: ATOM     22  C   UNL     1     -37.285 -14.509  16.368 -0.17 +0.00    +0.029 A  
DOCKED: ATOM     23  F   UNL     1     -38.122 -14.956  18.537 -0.05 -0.00    -0.204 F  
DOCKED: ATOM     24  C   UNL     1     -37.158 -13.637  15.285 -0.15 +0.00    +0.001 A  
DOCKED: ENDBRANCH   2  18
DOCKED: TORSDOF 5
DOCKED: TER
DOCKED: ENDMDL
________________________________________________________________________________


    FINAL DOCKED STATE:
    ________________________


Run:   333 / 512
Time taken for this run:   0.002s

DOCKED: MODEL        333
DOCKED: USER    Run = 333
DOCKED: USER
DOCKED: USER    Estimated Free Energy of Binding    =  -4.27 kcal/mol  [=(1)+(2)+(3)-(4)]
DOCKED: USER
DOCKED: USER    (1) Final Intermolecular Energy     =  -5.76 kcal/mol
DOCKED: USER        vdW + Hbond + desolv Energy     =  -5.76 kcal/mol
DOCKED: USER        Electrostatic Energy            =  +0.00 kcal/mol
DOCKED: USER        Moving Ligand-Fixed Receptor    =  -5.76 kcal/mol
DOCKED: USER        Moving Ligand-Moving Receptor   =  +0.00 kcal/mol
DOCKED: USER    (2) Final Total Internal Energy     =  -1.44 kcal/mol
DOCKED: USER    (3) Torsional Free Energy           =  +1.49 kcal/mol
DOCKED: USER    (4) Unbound System's Energy         =  -1.44 kcal/mol
DOCKED: USER
DOCKED: USER
DOCKED: REMARK  5 active torsions:
DOCKED: REMARK  status: ('A' for Active; 'I' for Inactive)
DOCKED: REMARK    1  A    between atoms: C_2  and  C_19 
DOCKED: REMARK    2  A    between atoms: C_2  and  C_11 
DOCKED: REMARK    3  A    between atoms: C_19  and  C_20 
DOCKED: REMARK    4  A    between atoms: C_20  and  C_21 
DOCKED: REMARK    5  A    between atoms: C_21  and  N_22 
DOCKED: USER                              x       y       z     vdW  Elec       q    Type
DOCKED: USER                           _______ _______ _______ _____ _____    ______ ____
DOCKED: ROOT
DOCKED: ATOM      1  O   UNL     1     -36.822  -8.826  14.271 -0.02 -0.00    -0.346 OA 
DOCKED: ATOM      2  C   UNL     1     -38.251  -8.659  14.007 -0.10 +0.00    +0.130 C  
DOCKED: ATOM      3  C   UNL     1     -38.655  -9.960  13.375 -0.19 +0.00    +0.004 A  
DOCKED: ATOM      4  C   UNL     1     -37.577 -10.835  13.379 -0.22 +0.00    +0.006 A  
DOCKED: ATOM      5  C   UNL     1     -36.408 -10.188  14.015 -0.13 +0.00    +0.169 C  
DOCKED: ATOM      6  C   UNL     1     -39.880 -10.343  12.849 -0.23 -0.00    -0.001 A  
DOCKED: ATOM      7  C   UNL     1     -37.685 -12.112  12.857 -0.30 +0.00    +0.008 A  
DOCKED: ATOM      8  C   UNL     1     -40.003 -11.626  12.315 -0.23 +0.00    +0.010 A  
DOCKED: ATOM      9  C   UNL     1     -38.911 -12.507  12.320 -0.26 +0.00    +0.068 A  
DOCKED: ATOM     10  N   UNL     1     -39.175 -14.885  11.325 -2.60 -0.00    -0.191 NA 
DOCKED: ATOM     11  C   UNL     1     -39.056 -13.818  11.770 -0.33 +0.00    +0.101 C  
DOCKED: ENDROOT
DOCKED: BRANCH   2  12
DOCKED: ATOM     12  C   UNL     1     -38.960  -8.398  15.331 -0.04 +0.00    +0.038 C  
DOCKED: BRANCH  12  13
DOCKED: ATOM     13  C   UNL     1     -39.527  -9.687  15.923 -0.04 +0.00    +0.038 C  
DOCKED: BRANCH  13  14
DOCKED: ATOM     14  C   UNL     1     -38.573 -10.282  16.957 -0.01 +0.00    +0.251 C  
DOCKED: BRANCH  14  15
DOCKED: ATOM     15  N   UNL     1     -38.697 -11.735  16.984 -0.03 +0.00    +0.141 N  
DOCKED: ATOM     16  C   UNL     1     -39.908 -12.162  16.282 -0.02 +0.00    +0.285 C  
DOCKED: ATOM     17  C   UNL     1     -37.517 -12.365  16.390 -0.06 +0.00    +0.285 C  
DOCKED: ENDBRANCH  14  15
DOCKED: ENDBRANCH  13  14
DOCKED: ENDBRANCH  12  13
DOCKED: ENDBRANCH   2  12
DOCKED: BRANCH   2  18
DOCKED: ATOM     18  C   UNL     1     -38.391  -7.496  13.083 -0.16 +0.00    +0.006 A  
DOCKED: ATOM     19  C   UNL     1     -39.650  -6.948  12.838 -0.20 +0.00    +0.001 A  
DOCKED: ATOM     20  C   UNL     1     -39.779  -5.860  11.973 -0.17 +0.00    +0.029 A  
DOCKED: ATOM     21  C   UNL     1     -38.651  -5.322  11.356 -0.13 +0.00    +0.140 A  
DOCKED: ATOM     22  C   UNL     1     -37.393  -5.870  11.602 -0.12 +0.00    +0.029 A  
DOCKED: ATOM     23  F   UNL     1     -38.775  -4.277  10.527 -0.03 -0.00    -0.204 F  
DOCKED: ATOM     24  C   UNL     1     -37.262  -6.959  12.466 -0.14 +0.00    +0.001 A  
DOCKED: ENDBRANCH   2  18
DOCKED: TORSDOF 5
DOCKED: TER
DOCKED: ENDMDL
________________________________________________________________________________


    FINAL DOCKED STATE:
    ________________________


Run:   334 / 512
Time taken for this run:   0.002s

DOCKED: MODEL        334
DOCKED: USER    Run = 334
DOCKED: USER
DOCKED: USER    Estimated Free Energy of Binding    =  -4.44 kcal/mol  [=(1)+(2)+(3)-(4)]
DOCKED: USER
DOCKED: USER    (1) Final Intermolecular Energy     =  -5.93 kcal/mol
DOCKED: USER        vdW + Hbond + desolv Energy     =  -5.93 kcal/mol
DOCKED: USER        Electrostatic Energy            =  +0.00 kcal/mol
DOCKED: USER        Moving Ligand-Fixed Receptor    =  -5.93 kcal/mol
DOCKED: USER        Moving Ligand-Moving Receptor   =  +0.00 kcal/mol
DOCKED: USER    (2) Final Total Internal Energy     =  -0.90 kcal/mol
DOCKED: USER    (3) Torsional Free Energy           =  +1.49 kcal/mol
DOCKED: USER    (4) Unbound System's Energy         =  -0.90 kcal/mol
DOCKED: USER
DOCKED: USER
DOCKED: REMARK  5 active torsions:
DOCKED: REMARK  status: ('A' for Active; 'I' for Inactive)
DOCKED: REMARK    1  A    between atoms: C_2  and  C_19 
DOCKED: REMARK    2  A    between atoms: C_2  and  C_11 
DOCKED: REMARK    3  A    between atoms: C_19  and  C_20 
DOCKED: REMARK    4  A    between atoms: C_20  and  C_21 
DOCKED: REMARK    5  A    between atoms: C_21  and  N_22 
DOCKED: USER                              x       y       z     vdW  Elec       q    Type
DOCKED: USER                           _______ _______ _______ _____ _____    ______ ____
DOCKED: ROOT
DOCKED: ATOM      1  O   UNL     1     -28.700 -10.478   6.211 +0.01 -0.00    -0.346 OA 
DOCKED: ATOM      2  C   UNL     1     -30.138 -10.223   6.106 -0.06 +0.00    +0.130 C  
DOCKED: ATOM      3  C   UNL     1     -30.755 -11.278   6.978 -0.13 +0.00    +0.004 A  
DOCKED: ATOM      4  C   UNL     1     -29.756 -12.001   7.613 -0.08 +0.00    +0.006 A  
DOCKED: ATOM      5  C   UNL     1     -28.428 -11.476   7.222 -0.02 +0.00    +0.169 C  
DOCKED: ATOM      6  C   UNL     1     -32.093 -11.566   7.200 -0.25 -0.00    -0.001 A  
DOCKED: ATOM      7  C   UNL     1     -30.057 -13.035   8.484 -0.16 +0.00    +0.008 A  
DOCKED: ATOM      8  C   UNL     1     -32.413 -12.608   8.072 -0.33 +0.00    +0.010 A  
DOCKED: ATOM      9  C   UNL     1     -31.400 -13.338   8.711 -0.30 +0.00    +0.068 A  
DOCKED: ATOM     10  N   UNL     1     -32.029 -15.264  10.327 -2.67 -0.00    -0.191 NA 
DOCKED: ATOM     11  C   UNL     1     -31.747 -14.401   9.601 -0.33 +0.00    +0.101 C  
DOCKED: ENDROOT
DOCKED: BRANCH   2  12
DOCKED: ATOM     12  C   UNL     1     -30.415  -8.808   6.600 -0.04 +0.00    +0.038 C  
DOCKED: BRANCH  12  13
DOCKED: ATOM     13  C   UNL     1     -31.741  -8.731   7.354 -0.09 +0.00    +0.038 C  
DOCKED: BRANCH  13  14
DOCKED: ATOM     14  C   UNL     1     -32.499  -7.453   7.002 -0.05 +0.00    +0.251 C  
DOCKED: BRANCH  14  15
DOCKED: ATOM     15  N   UNL     1     -33.938  -7.690   7.039 -0.15 +0.00    +0.141 N  
DOCKED: ATOM     16  C   UNL     1     -34.221  -9.110   7.251 -0.23 +0.00    +0.285 C  
DOCKED: ATOM     17  C   UNL     1     -34.566  -6.885   8.088 -0.09 +0.00    +0.285 C  
DOCKED: ENDBRANCH  14  15
DOCKED: ENDBRANCH  13  14
DOCKED: ENDBRANCH  12  13
DOCKED: ENDBRANCH   2  12
DOCKED: BRANCH   2  18
DOCKED: ATOM     18  C   UNL     1     -30.503 -10.372   4.666 -0.12 +0.00    +0.006 A  
DOCKED: ATOM     19  C   UNL     1     -29.985 -11.431   3.922 -0.11 +0.00    +0.001 A  
DOCKED: ATOM     20  C   UNL     1     -30.327 -11.569   2.576 -0.11 +0.00    +0.029 A  
DOCKED: ATOM     21  C   UNL     1     -31.186 -10.648   1.977 -0.15 +0.00    +0.140 A  
DOCKED: ATOM     22  C   UNL     1     -31.704  -9.589   2.722 -0.21 +0.00    +0.029 A  
DOCKED: ATOM     23  F   UNL     1     -31.515 -10.782   0.686 -0.07 -0.00    -0.204 F  
DOCKED: ATOM     24  C   UNL     1     -31.362  -9.450   4.069 -0.15 +0.00    +0.001 A  
DOCKED: ENDBRANCH   2  18
DOCKED: TORSDOF 5
DOCKED: TER
DOCKED: ENDMDL
________________________________________________________________________________


    FINAL DOCKED STATE:
    ________________________


Run:   335 / 512
Time taken for this run:   0.002s

DOCKED: MODEL        335
DOCKED: USER    Run = 335
DOCKED: USER
DOCKED: USER    Estimated Free Energy of Binding    =  -4.03 kcal/mol  [=(1)+(2)+(3)-(4)]
DOCKED: USER
DOCKED: USER    (1) Final Intermolecular Energy     =  -5.52 kcal/mol
DOCKED: USER        vdW + Hbond + desolv Energy     =  -5.52 kcal/mol
DOCKED: USER        Electrostatic Energy            =  +0.00 kcal/mol
DOCKED: USER        Moving Ligand-Fixed Receptor    =  -5.52 kcal/mol
DOCKED: USER        Moving Ligand-Moving Receptor   =  +0.00 kcal/mol
DOCKED: USER    (2) Final Total Internal Energy     =  -1.24 kcal/mol
DOCKED: USER    (3) Torsional Free Energy           =  +1.49 kcal/mol
DOCKED: USER    (4) Unbound System's Energy         =  -1.24 kcal/mol
DOCKED: USER
DOCKED: USER
DOCKED: REMARK  5 active torsions:
DOCKED: REMARK  status: ('A' for Active; 'I' for Inactive)
DOCKED: REMARK    1  A    between atoms: C_2  and  C_19 
DOCKED: REMARK    2  A    between atoms: C_2  and  C_11 
DOCKED: REMARK    3  A    between atoms: C_19  and  C_20 
DOCKED: REMARK    4  A    between atoms: C_20  and  C_21 
DOCKED: REMARK    5  A    between atoms: C_21  and  N_22 
DOCKED: USER                              x       y       z     vdW  Elec       q    Type
DOCKED: USER                           _______ _______ _______ _____ _____    ______ ____
DOCKED: ROOT
DOCKED: ATOM      1  O   UNL     1     -32.333  -7.443   8.187 -0.00 -0.00    -0.346 OA 
DOCKED: ATOM      2  C   UNL     1     -32.938  -8.483   7.353 -0.16 +0.00    +0.130 C  
DOCKED: ATOM      3  C   UNL     1     -32.487  -9.764   7.992 -0.21 +0.00    +0.004 A  
DOCKED: ATOM      4  C   UNL     1     -31.780  -9.484   9.153 -0.14 +0.00    +0.006 A  
DOCKED: ATOM      5  C   UNL     1     -31.725  -8.020   9.366 -0.06 +0.00    +0.169 C  
DOCKED: ATOM      6  C   UNL     1     -32.697 -11.074   7.586 -0.32 -0.00    -0.001 A  
DOCKED: ATOM      7  C   UNL     1     -31.257 -10.495   9.940 -0.15 +0.00    +0.008 A  
DOCKED: ATOM      8  C   UNL     1     -32.172 -12.105   8.367 -0.30 +0.00    +0.010 A  
DOCKED: ATOM      9  C   UNL     1     -31.456 -11.817   9.538 -0.17 +0.00    +0.068 A  
DOCKED: ATOM     10  N   UNL     1     -30.499 -13.755  10.967 -1.94 -0.00    -0.191 NA 
DOCKED: ATOM     11  C   UNL     1     -30.927 -12.885  10.326 -0.24 +0.00    +0.101 C  
DOCKED: ENDROOT
DOCKED: BRANCH   2  12
DOCKED: ATOM     12  C   UNL     1     -34.451  -8.305   7.382 -0.29 +0.00    +0.038 C  
DOCKED: BRANCH  12  13
DOCKED: ATOM     13  C   UNL     1     -34.836  -6.839   7.571 -0.20 +0.00    +0.038 C  
DOCKED: BRANCH  13  14
DOCKED: ATOM     14  C   UNL     1     -35.607  -6.313   6.361 -0.16 +0.00    +0.251 C  
DOCKED: BRANCH  14  15
DOCKED: ATOM     15  N   UNL     1     -35.460  -4.866   6.256 -0.22 +0.00    +0.141 N  
DOCKED: ATOM     16  C   UNL     1     -34.755  -4.333   7.422 -0.14 +0.00    +0.285 C  
DOCKED: ATOM     17  C   UNL     1     -34.751  -4.508   5.027 -0.17 +0.00    +0.285 C  
DOCKED: ENDBRANCH  14  15
DOCKED: ENDBRANCH  13  14
DOCKED: ENDBRANCH  12  13
DOCKED: ENDBRANCH   2  12
DOCKED: BRANCH   2  18
DOCKED: ATOM     18  C   UNL     1     -32.401  -8.302   5.972 -0.15 +0.00    +0.006 A  
DOCKED: ATOM     19  C   UNL     1     -31.024  -8.316   5.753 -0.06 +0.00    +0.001 A  
DOCKED: ATOM     20  C   UNL     1     -30.524  -8.146   4.461 -0.04 +0.00    +0.029 A  
DOCKED: ATOM     21  C   UNL     1     -31.399  -7.963   3.392 -0.08 +0.00    +0.140 A  
DOCKED: ATOM     22  C   UNL     1     -32.776  -7.949   3.613 -0.22 +0.00    +0.029 A  
DOCKED: ATOM     23  F   UNL     1     -30.919  -7.802   2.153 -0.00 -0.00    -0.204 F  
DOCKED: ATOM     24  C   UNL     1     -33.278  -8.119   4.904 -0.13 +0.00    +0.001 A  
DOCKED: ENDBRANCH   2  18
DOCKED: TORSDOF 5
DOCKED: TER
DOCKED: ENDMDL
________________________________________________________________________________


    FINAL DOCKED STATE:
    ________________________


Run:   336 / 512
Time taken for this run:   0.002s

DOCKED: MODEL        336
DOCKED: USER    Run = 336
DOCKED: USER
DOCKED: USER    Estimated Free Energy of Binding    =  -4.17 kcal/mol  [=(1)+(2)+(3)-(4)]
DOCKED: USER
DOCKED: USER    (1) Final Intermolecular Energy     =  -5.66 kcal/mol
DOCKED: USER        vdW + Hbond + desolv Energy     =  -5.66 kcal/mol
DOCKED: USER        Electrostatic Energy            =  +0.00 kcal/mol
DOCKED: USER        Moving Ligand-Fixed Receptor    =  -5.66 kcal/mol
DOCKED: USER        Moving Ligand-Moving Receptor   =  +0.00 kcal/mol
DOCKED: USER    (2) Final Total Internal Energy     =  -1.58 kcal/mol
DOCKED: USER    (3) Torsional Free Energy           =  +1.49 kcal/mol
DOCKED: USER    (4) Unbound System's Energy         =  -1.58 kcal/mol
DOCKED: USER
DOCKED: USER
DOCKED: REMARK  5 active torsions:
DOCKED: REMARK  status: ('A' for Active; 'I' for Inactive)
DOCKED: REMARK    1  A    between atoms: C_2  and  C_19 
DOCKED: REMARK    2  A    between atoms: C_2  and  C_11 
DOCKED: REMARK    3  A    between atoms: C_19  and  C_20 
DOCKED: REMARK    4  A    between atoms: C_20  and  C_21 
DOCKED: REMARK    5  A    between atoms: C_21  and  N_22 
DOCKED: USER                              x       y       z     vdW  Elec       q    Type
DOCKED: USER                           _______ _______ _______ _____ _____    ______ ____
DOCKED: ROOT
DOCKED: ATOM      1  O   UNL     1     -34.850 -10.321  14.552 -0.07 -0.00    -0.346 OA 
DOCKED: ATOM      2  C   UNL     1     -35.915  -9.482  13.999 -0.12 +0.00    +0.130 C  
DOCKED: ATOM      3  C   UNL     1     -36.836 -10.463  13.332 -0.22 +0.00    +0.004 A  
DOCKED: ATOM      4  C   UNL     1     -36.396 -11.757  13.576 -0.24 +0.00    +0.006 A  
DOCKED: ATOM      5  C   UNL     1     -35.180 -11.723  14.419 -0.17 +0.00    +0.169 C  
DOCKED: ATOM      6  C   UNL     1     -37.977 -10.230  12.579 -0.27 -0.00    -0.001 A  
DOCKED: ATOM      7  C   UNL     1     -37.074 -12.855  13.076 -0.34 +0.00    +0.008 A  
DOCKED: ATOM      8  C   UNL     1     -38.670 -11.327  12.064 -0.31 +0.00    +0.010 A  
DOCKED: ATOM      9  C   UNL     1     -38.221 -12.633  12.312 -0.30 +0.00    +0.068 A  
DOCKED: ATOM     10  N   UNL     1     -39.533 -14.647  11.345 -2.56 -0.00    -0.191 NA 
DOCKED: ATOM     11  C   UNL     1     -38.944 -13.743  11.778 -0.37 +0.00    +0.101 C  
DOCKED: ENDROOT
DOCKED: BRANCH   2  12
DOCKED: ATOM     12  C   UNL     1     -36.580  -8.729  15.145 -0.05 +0.00    +0.038 C  
DOCKED: BRANCH  12  13
DOCKED: ATOM     13  C   UNL     1     -35.656  -8.629  16.357 -0.02 +0.00    +0.038 C  
DOCKED: BRANCH  13  14
DOCKED: ATOM     14  C   UNL     1     -34.690  -7.454  16.215 -0.00 +0.00    +0.251 C  
DOCKED: BRANCH  14  15
DOCKED: ATOM     15  N   UNL     1     -33.426  -7.903  15.642 -0.01 +0.00    +0.141 N  
DOCKED: ATOM     16  C   UNL     1     -32.649  -6.763  15.152 -0.00 +0.00    +0.285 C  
DOCKED: ATOM     17  C   UNL     1     -32.653  -8.660  16.627 -0.00 +0.00    +0.285 C  
DOCKED: ENDBRANCH  14  15
DOCKED: ENDBRANCH  13  14
DOCKED: ENDBRANCH  12  13
DOCKED: ENDBRANCH   2  12
DOCKED: BRANCH   2  18
DOCKED: ATOM     18  C   UNL     1     -35.273  -8.540  13.037 -0.14 +0.00    +0.006 A  
DOCKED: ATOM     19  C   UNL     1     -35.950  -7.390  12.632 -0.12 +0.00    +0.001 A  
DOCKED: ATOM     20  C   UNL     1     -35.348  -6.509  11.731 -0.09 +0.00    +0.029 A  
DOCKED: ATOM     21  C   UNL     1     -34.073  -6.780  11.238 -0.07 +0.00    +0.140 A  
DOCKED: ATOM     22  C   UNL     1     -33.397  -7.930  11.644 -0.11 +0.00    +0.029 A  
DOCKED: ATOM     23  F   UNL     1     -33.495  -5.934  10.375 -0.00 -0.00    -0.204 F  
DOCKED: ATOM     24  C   UNL     1     -33.998  -8.812  12.544 -0.08 +0.00    +0.001 A  
DOCKED: ENDBRANCH   2  18
DOCKED: TORSDOF 5
DOCKED: TER
DOCKED: ENDMDL
________________________________________________________________________________


    FINAL DOCKED STATE:
    ________________________


Run:   337 / 512
Time taken for this run:   0.002s

DOCKED: MODEL        337
DOCKED: USER    Run = 337
DOCKED: USER
DOCKED: USER    Estimated Free Energy of Binding    =  -3.95 kcal/mol  [=(1)+(2)+(3)-(4)]
DOCKED: USER
DOCKED: USER    (1) Final Intermolecular Energy     =  -5.45 kcal/mol
DOCKED: USER        vdW + Hbond + desolv Energy     =  -5.45 kcal/mol
DOCKED: USER        Electrostatic Energy            =  +0.00 kcal/mol
DOCKED: USER        Moving Ligand-Fixed Receptor    =  -5.45 kcal/mol
DOCKED: USER        Moving Ligand-Moving Receptor   =  +0.00 kcal/mol
DOCKED: USER    (2) Final Total Internal Energy     =  -1.13 kcal/mol
DOCKED: USER    (3) Torsional Free Energy           =  +1.49 kcal/mol
DOCKED: USER    (4) Unbound System's Energy         =  -1.13 kcal/mol
DOCKED: USER
DOCKED: USER
DOCKED: REMARK  5 active torsions:
DOCKED: REMARK  status: ('A' for Active; 'I' for Inactive)
DOCKED: REMARK    1  A    between atoms: C_2  and  C_19 
DOCKED: REMARK    2  A    between atoms: C_2  and  C_11 
DOCKED: REMARK    3  A    between atoms: C_19  and  C_20 
DOCKED: REMARK    4  A    between atoms: C_20  and  C_21 
DOCKED: REMARK    5  A    between atoms: C_21  and  N_22 
DOCKED: USER                              x       y       z     vdW  Elec       q    Type
DOCKED: USER                           _______ _______ _______ _____ _____    ______ ____
DOCKED: ROOT
DOCKED: ATOM      1  O   UNL     1     -39.436  -8.713  14.933 -0.01 -0.00    -0.346 OA 
DOCKED: ATOM      2  C   UNL     1     -38.453  -8.564  13.859 -0.11 +0.00    +0.130 C  
DOCKED: ATOM      3  C   UNL     1     -38.462  -9.901  13.175 -0.21 +0.00    +0.004 A  
DOCKED: ATOM      4  C   UNL     1     -39.442 -10.707  13.738 -0.15 +0.00    +0.006 A  
DOCKED: ATOM      5  C   UNL     1     -40.148  -9.967  14.807 -0.05 +0.00    +0.169 C  
DOCKED: ATOM      6  C   UNL     1     -37.673 -10.363  12.132 -0.27 -0.00    -0.001 A  
DOCKED: ATOM      7  C   UNL     1     -39.663 -11.996  13.283 -0.19 +0.00    +0.008 A  
DOCKED: ATOM      8  C   UNL     1     -37.882 -11.662  11.665 -0.32 +0.00    +0.010 A  
DOCKED: ATOM      9  C   UNL     1     -38.872 -12.474  12.238 -0.27 +0.00    +0.068 A  
DOCKED: ATOM     10  N   UNL     1     -39.236 -14.878  11.344 -2.60 -0.00    -0.191 NA 
DOCKED: ATOM     11  C   UNL     1     -39.073 -13.800  11.746 -0.35 +0.00    +0.101 C  
DOCKED: ENDROOT
DOCKED: BRANCH   2  12
DOCKED: ATOM     12  C   UNL     1     -38.903  -7.429  12.947 -0.19 +0.00    +0.038 C  
DOCKED: BRANCH  12  13
DOCKED: ATOM     13  C   UNL     1     -40.348  -7.622  12.489 -0.24 +0.00    +0.038 C  
DOCKED: BRANCH  13  14
DOCKED: ATOM     14  C   UNL     1     -41.322  -6.926  13.438 -0.10 +0.00    +0.251 C  
DOCKED: BRANCH  14  15
DOCKED: ATOM     15  N   UNL     1     -41.342  -5.491  13.182 -0.07 +0.00    +0.141 N  
DOCKED: ATOM     16  C   UNL     1     -40.412  -4.795  14.074 -0.01 +0.00    +0.285 C  
DOCKED: ATOM     17  C   UNL     1     -41.009  -5.211  11.784 -0.09 +0.00    +0.285 C  
DOCKED: ENDBRANCH  14  15
DOCKED: ENDBRANCH  13  14
DOCKED: ENDBRANCH  12  13
DOCKED: ENDBRANCH   2  12
DOCKED: BRANCH   2  18
DOCKED: ATOM     18  C   UNL     1     -37.145  -8.250  14.505 -0.06 +0.00    +0.006 A  
DOCKED: ATOM     19  C   UNL     1     -36.324  -9.283  14.955 -0.06 +0.00    +0.001 A  
DOCKED: ATOM     20  C   UNL     1     -35.102  -8.987  15.559 -0.03 +0.00    +0.029 A  
DOCKED: ATOM     21  C   UNL     1     -34.702  -7.660  15.712 -0.01 +0.00    +0.140 A  
DOCKED: ATOM     22  C   UNL     1     -35.524  -6.628  15.261 -0.01 +0.00    +0.029 A  
DOCKED: ATOM     23  F   UNL     1     -33.528  -7.377  16.290 +0.00 -0.00    -0.204 F  
DOCKED: ATOM     24  C   UNL     1     -36.747  -6.922  14.657 -0.03 +0.00    +0.001 A  
DOCKED: ENDBRANCH   2  18
DOCKED: TORSDOF 5
DOCKED: TER
DOCKED: ENDMDL
________________________________________________________________________________


    FINAL DOCKED STATE:
    ________________________


Run:   338 / 512
Time taken for this run:   0.002s

DOCKED: MODEL        338
DOCKED: USER    Run = 338
DOCKED: USER
DOCKED: USER    Estimated Free Energy of Binding    =  -3.76 kcal/mol  [=(1)+(2)+(3)-(4)]
DOCKED: USER
DOCKED: USER    (1) Final Intermolecular Energy     =  -5.25 kcal/mol
DOCKED: USER        vdW + Hbond + desolv Energy     =  -5.25 kcal/mol
DOCKED: USER        Electrostatic Energy            =  +0.00 kcal/mol
DOCKED: USER        Moving Ligand-Fixed Receptor    =  -5.25 kcal/mol
DOCKED: USER        Moving Ligand-Moving Receptor   =  +0.00 kcal/mol
DOCKED: USER    (2) Final Total Internal Energy     =  -1.52 kcal/mol
DOCKED: USER    (3) Torsional Free Energy           =  +1.49 kcal/mol
DOCKED: USER    (4) Unbound System's Energy         =  -1.52 kcal/mol
DOCKED: USER
DOCKED: USER
DOCKED: REMARK  5 active torsions:
DOCKED: REMARK  status: ('A' for Active; 'I' for Inactive)
DOCKED: REMARK    1  A    between atoms: C_2  and  C_19 
DOCKED: REMARK    2  A    between atoms: C_2  and  C_11 
DOCKED: REMARK    3  A    between atoms: C_19  and  C_20 
DOCKED: REMARK    4  A    between atoms: C_20  and  C_21 
DOCKED: REMARK    5  A    between atoms: C_21  and  N_22 
DOCKED: USER                              x       y       z     vdW  Elec       q    Type
DOCKED: USER                           _______ _______ _______ _____ _____    ______ ____
DOCKED: ROOT
DOCKED: ATOM      1  O   UNL     1     -36.050  -8.685  13.569 -0.05 -0.00    -0.346 OA 
DOCKED: ATOM      2  C   UNL     1     -35.348  -9.846  14.118 -0.12 +0.00    +0.130 C  
DOCKED: ATOM      3  C   UNL     1     -36.156 -11.016  13.634 -0.20 +0.00    +0.004 A  
DOCKED: ATOM      4  C   UNL     1     -37.165 -10.571  12.792 -0.26 +0.00    +0.006 A  
DOCKED: ATOM      5  C   UNL     1     -37.089  -9.099  12.651 -0.19 +0.00    +0.169 C  
DOCKED: ATOM      6  C   UNL     1     -36.002 -12.367  13.908 -0.25 -0.00    -0.001 A  
DOCKED: ATOM      7  C   UNL     1     -38.053 -11.454  12.202 -0.33 +0.00    +0.008 A  
DOCKED: ATOM      8  C   UNL     1     -36.893 -13.270  13.325 -0.36 +0.00    +0.010 A  
DOCKED: ATOM      9  C   UNL     1     -37.912 -12.815  12.475 -0.31 +0.00    +0.068 A  
DOCKED: ATOM     10  N   UNL     1     -39.545 -14.518  11.404 -2.54 -0.00    -0.191 NA 
DOCKED: ATOM     11  C   UNL     1     -38.813 -13.754  11.885 -0.34 +0.00    +0.101 C  
DOCKED: ENDROOT
DOCKED: BRANCH   2  12
DOCKED: ATOM     12  C   UNL     1     -33.922  -9.847  13.580 -0.03 +0.00    +0.038 C  
DOCKED: BRANCH  12  13
DOCKED: ATOM     13  C   UNL     1     -33.406  -8.425  13.369 -0.09 +0.00    +0.038 C  
DOCKED: BRANCH  13  14
DOCKED: ATOM     14  C   UNL     1     -32.465  -8.009  14.498 -0.02 +0.00    +0.251 C  
DOCKED: BRANCH  14  15
DOCKED: ATOM     15  N   UNL     1     -32.904  -6.747  15.084 -0.01 +0.00    +0.141 N  
DOCKED: ATOM     16  C   UNL     1     -34.022  -6.186  14.324 -0.00 +0.00    +0.285 C  
DOCKED: ATOM     17  C   UNL     1     -33.286  -6.935  16.485 -0.00 +0.00    +0.285 C  
DOCKED: ENDBRANCH  14  15
DOCKED: ENDBRANCH  13  14
DOCKED: ENDBRANCH  12  13
DOCKED: ENDBRANCH   2  12
DOCKED: BRANCH   2  18
DOCKED: ATOM     18  C   UNL     1     -35.363  -9.703  15.603 -0.05 +0.00    +0.006 A  
DOCKED: ATOM     19  C   UNL     1     -34.352 -10.282  16.369 -0.05 +0.00    +0.001 A  
DOCKED: ATOM     20  C   UNL     1     -34.368 -10.148  17.758 -0.02 +0.00    +0.029 A  
DOCKED: ATOM     21  C   UNL     1     -35.393  -9.435  18.378 -0.00 +0.00    +0.140 A  
DOCKED: ATOM     22  C   UNL     1     -36.404  -8.856  17.611 -0.00 +0.00    +0.029 A  
DOCKED: ATOM     23  F   UNL     1     -35.407  -9.305  19.711 -0.00 -0.00    -0.204 F  
DOCKED: ATOM     24  C   UNL     1     -36.389  -8.990  16.222 -0.02 +0.00    +0.001 A  
DOCKED: ENDBRANCH   2  18
DOCKED: TORSDOF 5
DOCKED: TER
DOCKED: ENDMDL
________________________________________________________________________________


    FINAL DOCKED STATE:
    ________________________


Run:   339 / 512
Time taken for this run:   0.002s

DOCKED: MODEL        339
DOCKED: USER    Run = 339
DOCKED: USER
DOCKED: USER    Estimated Free Energy of Binding    =  -4.22 kcal/mol  [=(1)+(2)+(3)-(4)]
DOCKED: USER
DOCKED: USER    (1) Final Intermolecular Energy     =  -5.71 kcal/mol
DOCKED: USER        vdW + Hbond + desolv Energy     =  -5.71 kcal/mol
DOCKED: USER        Electrostatic Energy            =  +0.00 kcal/mol
DOCKED: USER        Moving Ligand-Fixed Receptor    =  -5.71 kcal/mol
DOCKED: USER        Moving Ligand-Moving Receptor   =  +0.00 kcal/mol
DOCKED: USER    (2) Final Total Internal Energy     =  -1.28 kcal/mol
DOCKED: USER    (3) Torsional Free Energy           =  +1.49 kcal/mol
DOCKED: USER    (4) Unbound System's Energy         =  -1.28 kcal/mol
DOCKED: USER
DOCKED: USER
DOCKED: REMARK  5 active torsions:
DOCKED: REMARK  status: ('A' for Active; 'I' for Inactive)
DOCKED: REMARK    1  A    between atoms: C_2  and  C_19 
DOCKED: REMARK    2  A    between atoms: C_2  and  C_11 
DOCKED: REMARK    3  A    between atoms: C_19  and  C_20 
DOCKED: REMARK    4  A    between atoms: C_20  and  C_21 
DOCKED: REMARK    5  A    between atoms: C_21  and  N_22 
DOCKED: USER                              x       y       z     vdW  Elec       q    Type
DOCKED: USER                           _______ _______ _______ _____ _____    ______ ____
DOCKED: ROOT
DOCKED: ATOM      1  O   UNL     1     -37.260  -8.276  13.756 -0.03 -0.00    -0.346 OA 
DOCKED: ATOM      2  C   UNL     1     -38.723  -8.235  13.729 -0.12 +0.00    +0.130 C  
DOCKED: ATOM      3  C   UNL     1     -39.111  -9.583  13.195 -0.21 +0.00    +0.004 A  
DOCKED: ATOM      4  C   UNL     1     -37.977 -10.366  13.034 -0.24 +0.00    +0.006 A  
DOCKED: ATOM      5  C   UNL     1     -36.778  -9.607  13.458 -0.16 +0.00    +0.169 C  
DOCKED: ATOM      6  C   UNL     1     -40.368 -10.080  12.885 -0.22 -0.00    -0.001 A  
DOCKED: ATOM      7  C   UNL     1     -38.058 -11.663  12.559 -0.31 +0.00    +0.008 A  
DOCKED: ATOM      8  C   UNL     1     -40.467 -11.385  12.400 -0.21 +0.00    +0.010 A  
DOCKED: ATOM      9  C   UNL     1     -39.317 -12.173  12.238 -0.24 +0.00    +0.068 A  
DOCKED: ATOM     10  N   UNL     1     -39.535 -14.593  11.340 -2.56 -0.00    -0.191 NA 
DOCKED: ATOM     11  C   UNL     1     -39.437 -13.508  11.742 -0.35 +0.00    +0.101 C  
DOCKED: ENDROOT
DOCKED: BRANCH   2  12
DOCKED: ATOM     12  C   UNL     1     -39.225  -7.992  15.148 -0.04 +0.00    +0.038 C  
DOCKED: BRANCH  12  13
DOCKED: ATOM     13  C   UNL     1     -39.284  -9.292  15.948 -0.03 +0.00    +0.038 C  
DOCKED: BRANCH  13  14
DOCKED: ATOM     14  C   UNL     1     -37.959  -9.559  16.659 -0.01 +0.00    +0.251 C  
DOCKED: BRANCH  14  15
DOCKED: ATOM     15  N   UNL     1     -38.060 -10.755  17.487 -0.01 +0.00    +0.141 N  
DOCKED: ATOM     16  C   UNL     1     -39.126 -10.608  18.479 -0.00 +0.00    +0.285 C  
DOCKED: ATOM     17  C   UNL     1     -38.299 -11.938  16.658 -0.03 +0.00    +0.285 C  
DOCKED: ENDBRANCH  14  15
DOCKED: ENDBRANCH  13  14
DOCKED: ENDBRANCH  12  13
DOCKED: ENDBRANCH   2  12
DOCKED: BRANCH   2  18
DOCKED: ATOM     18  C   UNL     1     -39.111  -7.115  12.822 -0.19 +0.00    +0.006 A  
DOCKED: ATOM     19  C   UNL     1     -38.161  -6.542  11.977 -0.12 +0.00    +0.001 A  
DOCKED: ATOM     20  C   UNL     1     -38.526  -5.495  11.129 -0.14 +0.00    +0.029 A  
DOCKED: ATOM     21  C   UNL     1     -39.837  -5.024  11.127 -0.11 +0.00    +0.140 A  
DOCKED: ATOM     22  C   UNL     1     -40.787  -5.598  11.973 -0.16 +0.00    +0.029 A  
DOCKED: ATOM     23  F   UNL     1     -40.187  -4.020  10.312 -0.03 -0.00    -0.204 F  
DOCKED: ATOM     24  C   UNL     1     -40.423  -6.645  12.821 -0.19 +0.00    +0.001 A  
DOCKED: ENDBRANCH   2  18
DOCKED: TORSDOF 5
DOCKED: TER
DOCKED: ENDMDL
________________________________________________________________________________


    FINAL DOCKED STATE:
    ________________________


Run:   340 / 512
Time taken for this run:   0.002s

DOCKED: MODEL        340
DOCKED: USER    Run = 340
DOCKED: USER
DOCKED: USER    Estimated Free Energy of Binding    =  -4.11 kcal/mol  [=(1)+(2)+(3)-(4)]
DOCKED: USER
DOCKED: USER    (1) Final Intermolecular Energy     =  -5.60 kcal/mol
DOCKED: USER        vdW + Hbond + desolv Energy     =  -5.60 kcal/mol
DOCKED: USER        Electrostatic Energy            =  +0.00 kcal/mol
DOCKED: USER        Moving Ligand-Fixed Receptor    =  -5.60 kcal/mol
DOCKED: USER        Moving Ligand-Moving Receptor   =  +0.00 kcal/mol
DOCKED: USER    (2) Final Total Internal Energy     =  -1.05 kcal/mol
DOCKED: USER    (3) Torsional Free Energy           =  +1.49 kcal/mol
DOCKED: USER    (4) Unbound System's Energy         =  -1.05 kcal/mol
DOCKED: USER
DOCKED: USER
DOCKED: REMARK  5 active torsions:
DOCKED: REMARK  status: ('A' for Active; 'I' for Inactive)
DOCKED: REMARK    1  A    between atoms: C_2  and  C_19 
DOCKED: REMARK    2  A    between atoms: C_2  and  C_11 
DOCKED: REMARK    3  A    between atoms: C_19  and  C_20 
DOCKED: REMARK    4  A    between atoms: C_20  and  C_21 
DOCKED: REMARK    5  A    between atoms: C_21  and  N_22 
DOCKED: USER                              x       y       z     vdW  Elec       q    Type
DOCKED: USER                           _______ _______ _______ _____ _____    ______ ____
DOCKED: ROOT
DOCKED: ATOM      1  O   UNL     1     -36.930  -8.390  13.172 -0.06 -0.00    -0.346 OA 
DOCKED: ATOM      2  C   UNL     1     -38.164  -8.610  13.928 -0.10 +0.00    +0.130 C  
DOCKED: ATOM      3  C   UNL     1     -38.632  -9.960  13.466 -0.18 +0.00    +0.004 A  
DOCKED: ATOM      4  C   UNL     1     -37.693 -10.511  12.605 -0.28 +0.00    +0.006 A  
DOCKED: ATOM      5  C   UNL     1     -36.549  -9.585  12.451 -0.16 +0.00    +0.169 C  
DOCKED: ATOM      6  C   UNL     1     -39.791 -10.649  13.790 -0.15 -0.00    -0.001 A  
DOCKED: ATOM      7  C   UNL     1     -37.880 -11.760  12.039 -0.34 +0.00    +0.008 A  
DOCKED: ATOM      8  C   UNL     1     -39.997 -11.909  13.223 -0.19 +0.00    +0.010 A  
DOCKED: ATOM      9  C   UNL     1     -39.045 -12.461  12.353 -0.25 +0.00    +0.068 A  
DOCKED: ATOM     10  N   UNL     1     -39.455 -14.803  11.323 -2.54 -0.00    -0.191 NA 
DOCKED: ATOM     11  C   UNL     1     -39.271 -13.752  11.784 -0.35 +0.00    +0.101 C  
DOCKED: ENDROOT
DOCKED: BRANCH   2  12
DOCKED: ATOM     12  C   UNL     1     -37.831  -8.575  15.415 -0.04 +0.00    +0.038 C  
DOCKED: BRANCH  12  13
DOCKED: ATOM     13  C   UNL     1     -38.429  -9.774  16.148 -0.03 +0.00    +0.038 C  
DOCKED: BRANCH  13  14
DOCKED: ATOM     14  C   UNL     1     -37.466 -10.960  16.136 -0.03 +0.00    +0.251 C  
DOCKED: BRANCH  14  15
DOCKED: ATOM     15  N   UNL     1     -38.208 -12.216  16.145 -0.07 +0.00    +0.141 N  
DOCKED: ATOM     16  C   UNL     1     -37.293 -13.355  16.240 -0.12 +0.00    +0.285 C  
DOCKED: ATOM     17  C   UNL     1     -39.166 -12.240  17.252 -0.03 +0.00    +0.285 C  
DOCKED: ENDBRANCH  14  15
DOCKED: ENDBRANCH  13  14
DOCKED: ENDBRANCH  12  13
DOCKED: ENDBRANCH   2  12
DOCKED: BRANCH   2  18
DOCKED: ATOM     18  C   UNL     1     -39.103  -7.511  13.559 -0.14 +0.00    +0.006 A  
DOCKED: ATOM     19  C   UNL     1     -39.985  -7.676  12.492 -0.22 +0.00    +0.001 A  
DOCKED: ATOM     20  C   UNL     1     -40.863  -6.648  12.148 -0.14 +0.00    +0.029 A  
DOCKED: ATOM     21  C   UNL     1     -40.858  -5.456  12.872 -0.09 +0.00    +0.140 A  
DOCKED: ATOM     22  C   UNL     1     -39.976  -5.292  13.940 -0.04 +0.00    +0.029 A  
DOCKED: ATOM     23  F   UNL     1     -41.702  -4.470  12.544 +0.00 -0.00    -0.204 F  
DOCKED: ATOM     24  C   UNL     1     -39.097  -6.320  14.284 -0.05 +0.00    +0.001 A  
DOCKED: ENDBRANCH   2  18
DOCKED: TORSDOF 5
DOCKED: TER
DOCKED: ENDMDL
________________________________________________________________________________


    FINAL DOCKED STATE:
    ________________________


Run:   341 / 512
Time taken for this run:   0.002s

DOCKED: MODEL        341
DOCKED: USER    Run = 341
DOCKED: USER
DOCKED: USER    Estimated Free Energy of Binding    =  -5.40 kcal/mol  [=(1)+(2)+(3)-(4)]
DOCKED: USER
DOCKED: USER    (1) Final Intermolecular Energy     =  -6.89 kcal/mol
DOCKED: USER        vdW + Hbond + desolv Energy     =  -6.89 kcal/mol
DOCKED: USER        Electrostatic Energy            =  +0.00 kcal/mol
DOCKED: USER        Moving Ligand-Fixed Receptor    =  -6.89 kcal/mol
DOCKED: USER        Moving Ligand-Moving Receptor   =  +0.00 kcal/mol
DOCKED: USER    (2) Final Total Internal Energy     =  -1.53 kcal/mol
DOCKED: USER    (3) Torsional Free Energy           =  +1.49 kcal/mol
DOCKED: USER    (4) Unbound System's Energy         =  -1.53 kcal/mol
DOCKED: USER
DOCKED: USER
DOCKED: REMARK  5 active torsions:
DOCKED: REMARK  status: ('A' for Active; 'I' for Inactive)
DOCKED: REMARK    1  A    between atoms: C_2  and  C_19 
DOCKED: REMARK    2  A    between atoms: C_2  and  C_11 
DOCKED: REMARK    3  A    between atoms: C_19  and  C_20 
DOCKED: REMARK    4  A    between atoms: C_20  and  C_21 
DOCKED: REMARK    5  A    between atoms: C_21  and  N_22 
DOCKED: USER                              x       y       z     vdW  Elec       q    Type
DOCKED: USER                           _______ _______ _______ _____ _____    ______ ____
DOCKED: ROOT
DOCKED: ATOM      1  O   UNL     1     -37.436 -12.378  14.011 -0.07 -0.00    -0.346 OA 
DOCKED: ATOM      2  C   UNL     1     -38.885 -12.578  14.044 -0.15 +0.00    +0.130 C  
DOCKED: ATOM      3  C   UNL     1     -39.257 -12.750  12.600 -0.27 +0.00    +0.004 A  
DOCKED: ATOM      4  C   UNL     1     -38.110 -12.758  11.820 -0.39 +0.00    +0.006 A  
DOCKED: ATOM      5  C   UNL     1     -36.916 -12.608  12.681 -0.26 +0.00    +0.169 C  
DOCKED: ATOM      6  C   UNL     1     -40.511 -12.898  12.024 -0.30 -0.00    -0.001 A  
DOCKED: ATOM      7  C   UNL     1     -38.174 -12.910  10.445 -0.29 +0.00    +0.008 A  
DOCKED: ATOM      8  C   UNL     1     -40.592 -13.048  10.639 -0.29 +0.00    +0.010 A  
DOCKED: ATOM      9  C   UNL     1     -39.430 -13.054   9.853 -0.40 +0.00    +0.068 A  
DOCKED: ATOM     10  N   UNL     1     -39.617 -13.340   7.285 -3.10 -0.00    -0.191 NA 
DOCKED: ATOM     11  C   UNL     1     -39.533 -13.211   8.437 -0.28 +0.00    +0.101 C  
DOCKED: ENDROOT
DOCKED: BRANCH   2  12
DOCKED: ATOM     12  C   UNL     1     -39.182 -13.814  14.885 -0.26 +0.00    +0.038 C  
DOCKED: BRANCH  12  13
DOCKED: ATOM     13  C   UNL     1     -38.063 -14.087  15.888 -0.24 +0.00    +0.038 C  
DOCKED: BRANCH  13  14
DOCKED: ATOM     14  C   UNL     1     -38.399 -13.502  17.258 -0.11 +0.00    +0.251 C  
DOCKED: BRANCH  14  15
DOCKED: ATOM     15  N   UNL     1     -37.315 -12.644  17.722 -0.07 +0.00    +0.141 N  
DOCKED: ATOM     16  C   UNL     1     -36.085 -12.918  16.978 -0.06 +0.00    +0.285 C  
DOCKED: ATOM     17  C   UNL     1     -37.684 -11.233  17.592 -0.01 +0.00    +0.285 C  
DOCKED: ENDBRANCH  14  15
DOCKED: ENDBRANCH  13  14
DOCKED: ENDBRANCH  12  13
DOCKED: ENDBRANCH   2  12
DOCKED: BRANCH   2  18
DOCKED: ATOM     18  C   UNL     1     -39.480 -11.354  14.656 -0.09 +0.00    +0.006 A  
DOCKED: ATOM     19  C   UNL     1     -40.681 -11.441  15.361 -0.07 +0.00    +0.001 A  
DOCKED: ATOM     20  C   UNL     1     -41.237 -10.296  15.932 -0.03 +0.00    +0.029 A  
DOCKED: ATOM     21  C   UNL     1     -40.592  -9.067  15.800 -0.01 +0.00    +0.140 A  
DOCKED: ATOM     22  C   UNL     1     -39.391  -8.981  15.096 -0.04 +0.00    +0.029 A  
DOCKED: ATOM     23  F   UNL     1     -41.125  -7.968  16.350 +0.01 -0.00    -0.204 F  
DOCKED: ATOM     24  C   UNL     1     -38.835 -10.126  14.523 -0.09 +0.00    +0.001 A  
DOCKED: ENDBRANCH   2  18
DOCKED: TORSDOF 5
DOCKED: TER
DOCKED: ENDMDL
________________________________________________________________________________


    FINAL DOCKED STATE:
    ________________________


Run:   342 / 512
Time taken for this run:   0.002s

DOCKED: MODEL        342
DOCKED: USER    Run = 342
DOCKED: USER
DOCKED: USER    Estimated Free Energy of Binding    =  -3.99 kcal/mol  [=(1)+(2)+(3)-(4)]
DOCKED: USER
DOCKED: USER    (1) Final Intermolecular Energy     =  -5.48 kcal/mol
DOCKED: USER        vdW + Hbond + desolv Energy     =  -5.48 kcal/mol
DOCKED: USER        Electrostatic Energy            =  +0.00 kcal/mol
DOCKED: USER        Moving Ligand-Fixed Receptor    =  -5.48 kcal/mol
DOCKED: USER        Moving Ligand-Moving Receptor   =  +0.00 kcal/mol
DOCKED: USER    (2) Final Total Internal Energy     =  -1.34 kcal/mol
DOCKED: USER    (3) Torsional Free Energy           =  +1.49 kcal/mol
DOCKED: USER    (4) Unbound System's Energy         =  -1.34 kcal/mol
DOCKED: USER
DOCKED: USER
DOCKED: REMARK  5 active torsions:
DOCKED: REMARK  status: ('A' for Active; 'I' for Inactive)
DOCKED: REMARK    1  A    between atoms: C_2  and  C_19 
DOCKED: REMARK    2  A    between atoms: C_2  and  C_11 
DOCKED: REMARK    3  A    between atoms: C_19  and  C_20 
DOCKED: REMARK    4  A    between atoms: C_20  and  C_21 
DOCKED: REMARK    5  A    between atoms: C_21  and  N_22 
DOCKED: USER                              x       y       z     vdW  Elec       q    Type
DOCKED: USER                           _______ _______ _______ _____ _____    ______ ____
DOCKED: ROOT
DOCKED: ATOM      1  O   UNL     1     -32.212  -4.704   4.805 -0.00 -0.00    -0.346 OA 
DOCKED: ATOM      2  C   UNL     1     -31.725  -4.885   3.437 -0.05 +0.00    +0.130 C  
DOCKED: ATOM      3  C   UNL     1     -32.696  -4.099   2.603 -0.14 +0.00    +0.004 A  
DOCKED: ATOM      4  C   UNL     1     -33.592  -3.437   3.430 -0.21 +0.00    +0.006 A  
DOCKED: ATOM      5  C   UNL     1     -33.275  -3.724   4.847 -0.14 +0.00    +0.169 C  
DOCKED: ATOM      6  C   UNL     1     -32.772  -3.971   1.224 -0.17 -0.00    -0.001 A  
DOCKED: ATOM      7  C   UNL     1     -34.593  -2.633   2.911 -0.31 +0.00    +0.008 A  
DOCKED: ATOM      8  C   UNL     1     -33.777  -3.167   0.685 -0.18 +0.00    +0.010 A  
DOCKED: ATOM      9  C   UNL     1     -34.683  -2.501   1.524 -0.21 +0.00    +0.068 A  
DOCKED: ATOM     10  N   UNL     1     -36.535  -1.013   0.491 -2.55 -0.00    -0.191 NA 
DOCKED: ATOM     11  C   UNL     1     -35.704  -1.681   0.954 -0.29 +0.00    +0.101 C  
DOCKED: ENDROOT
DOCKED: BRANCH   2  12
DOCKED: ATOM     12  C   UNL     1     -30.302  -4.346   3.356 -0.01 +0.00    +0.038 C  
DOCKED: BRANCH  12  13
DOCKED: ATOM     13  C   UNL     1     -30.007  -3.377   4.500 -0.02 +0.00    +0.038 C  
DOCKED: BRANCH  13  14
DOCKED: ATOM     14  C   UNL     1     -30.236  -1.931   4.067 -0.02 +0.00    +0.251 C  
DOCKED: BRANCH  14  15
DOCKED: ATOM     15  N   UNL     1     -30.491  -1.088   5.228 -0.07 +0.00    +0.141 N  
DOCKED: ATOM     16  C   UNL     1     -31.634  -0.206   4.985 -0.12 +0.00    +0.285 C  
DOCKED: ATOM     17  C   UNL     1     -30.727  -1.907   6.418 -0.08 +0.00    +0.285 C  
DOCKED: ENDBRANCH  14  15
DOCKED: ENDBRANCH  13  14
DOCKED: ENDBRANCH  12  13
DOCKED: ENDBRANCH   2  12
DOCKED: BRANCH   2  18
DOCKED: ATOM     18  C   UNL     1     -31.764  -6.349   3.149 -0.08 +0.00    +0.006 A  
DOCKED: ATOM     19  C   UNL     1     -32.957  -6.949   2.748 -0.21 +0.00    +0.001 A  
DOCKED: ATOM     20  C   UNL     1     -32.992  -8.318   2.480 -0.25 +0.00    +0.029 A  
DOCKED: ATOM     21  C   UNL     1     -31.835  -9.084   2.613 -0.18 +0.00    +0.140 A  
DOCKED: ATOM     22  C   UNL     1     -30.642  -8.483   3.014 -0.06 +0.00    +0.029 A  
DOCKED: ATOM     23  F   UNL     1     -31.869 -10.398   2.354 -0.11 -0.00    -0.204 F  
DOCKED: ATOM     24  C   UNL     1     -30.606  -7.114   3.283 -0.02 +0.00    +0.001 A  
DOCKED: ENDBRANCH   2  18
DOCKED: TORSDOF 5
DOCKED: TER
DOCKED: ENDMDL
________________________________________________________________________________


    FINAL DOCKED STATE:
    ________________________


Run:   343 / 512
Time taken for this run:   0.002s

DOCKED: MODEL        343
DOCKED: USER    Run = 343
DOCKED: USER
DOCKED: USER    Estimated Free Energy of Binding    =  -5.08 kcal/mol  [=(1)+(2)+(3)-(4)]
DOCKED: USER
DOCKED: USER    (1) Final Intermolecular Energy     =  -6.57 kcal/mol
DOCKED: USER        vdW + Hbond + desolv Energy     =  -6.57 kcal/mol
DOCKED: USER        Electrostatic Energy            =  +0.00 kcal/mol
DOCKED: USER        Moving Ligand-Fixed Receptor    =  -6.57 kcal/mol
DOCKED: USER        Moving Ligand-Moving Receptor   =  +0.00 kcal/mol
DOCKED: USER    (2) Final Total Internal Energy     =  -1.27 kcal/mol
DOCKED: USER    (3) Torsional Free Energy           =  +1.49 kcal/mol
DOCKED: USER    (4) Unbound System's Energy         =  -1.27 kcal/mol
DOCKED: USER
DOCKED: USER
DOCKED: REMARK  5 active torsions:
DOCKED: REMARK  status: ('A' for Active; 'I' for Inactive)
DOCKED: REMARK    1  A    between atoms: C_2  and  C_19 
DOCKED: REMARK    2  A    between atoms: C_2  and  C_11 
DOCKED: REMARK    3  A    between atoms: C_19  and  C_20 
DOCKED: REMARK    4  A    between atoms: C_20  and  C_21 
DOCKED: REMARK    5  A    between atoms: C_21  and  N_22 
DOCKED: USER                              x       y       z     vdW  Elec       q    Type
DOCKED: USER                           _______ _______ _______ _____ _____    ______ ____
DOCKED: ROOT
DOCKED: ATOM      1  O   UNL     1     -38.956 -13.415  14.726 -0.10 -0.00    -0.346 OA 
DOCKED: ATOM      2  C   UNL     1     -38.409 -12.133  14.277 -0.14 +0.00    +0.130 C  
DOCKED: ATOM      3  C   UNL     1     -38.552 -12.185  12.783 -0.27 +0.00    +0.004 A  
DOCKED: ATOM      4  C   UNL     1     -39.222 -13.345  12.418 -0.31 +0.00    +0.006 A  
DOCKED: ATOM      5  C   UNL     1     -39.575 -14.123  13.627 -0.10 +0.00    +0.169 C  
DOCKED: ATOM      6  C   UNL     1     -38.133 -11.274  11.825 -0.33 -0.00    -0.001 A  
DOCKED: ATOM      7  C   UNL     1     -39.491 -13.634  11.092 -0.42 +0.00    +0.008 A  
DOCKED: ATOM      8  C   UNL     1     -38.393 -11.554  10.482 +0.04 +0.00    +0.010 A  
DOCKED: ATOM      9  C   UNL     1     -39.069 -12.728  10.118 -0.39 +0.00    +0.068 A  
DOCKED: ATOM     10  N   UNL     1     -39.540 -13.214   7.617 -3.03 -0.00    -0.191 NA 
DOCKED: ATOM     11  C   UNL     1     -39.328 -12.996   8.739 -0.37 +0.00    +0.101 C  
DOCKED: ENDROOT
DOCKED: BRANCH   2  12
DOCKED: ATOM     12  C   UNL     1     -39.223 -11.012  14.912 -0.09 +0.00    +0.038 C  
DOCKED: BRANCH  12  13
DOCKED: ATOM     13  C   UNL     1     -40.413 -11.563  15.695 -0.07 +0.00    +0.038 C  
DOCKED: BRANCH  13  14
DOCKED: ATOM     14  C   UNL     1     -40.094 -11.659  17.185 -0.01 +0.00    +0.251 C  
DOCKED: BRANCH  14  15
DOCKED: ATOM     15  N   UNL     1     -39.510 -12.958  17.496 -0.07 +0.00    +0.141 N  
DOCKED: ATOM     16  C   UNL     1     -39.194 -13.055  18.922 -0.03 +0.00    +0.285 C  
DOCKED: ATOM     17  C   UNL     1     -40.416 -14.039  17.102 -0.06 +0.00    +0.285 C  
DOCKED: ENDBRANCH  14  15
DOCKED: ENDBRANCH  13  14
DOCKED: ENDBRANCH  12  13
DOCKED: ENDBRANCH   2  12
DOCKED: BRANCH   2  18
DOCKED: ATOM     18  C   UNL     1     -36.986 -12.086  14.724 -0.18 +0.00    +0.006 A  
DOCKED: ATOM     19  C   UNL     1     -36.667 -12.324  16.060 -0.14 +0.00    +0.001 A  
DOCKED: ATOM     20  C   UNL     1     -35.335 -12.279  16.476 -0.09 +0.00    +0.029 A  
DOCKED: ATOM     21  C   UNL     1     -34.326 -11.996  15.557 -0.05 +0.00    +0.140 A  
DOCKED: ATOM     22  C   UNL     1     -34.647 -11.758  14.220 -0.12 +0.00    +0.029 A  
DOCKED: ATOM     23  F   UNL     1     -33.049 -11.954  15.956 -0.02 -0.00    -0.204 F  
DOCKED: ATOM     24  C   UNL     1     -35.978 -11.803  13.803 -0.21 +0.00    +0.001 A  
DOCKED: ENDBRANCH   2  18
DOCKED: TORSDOF 5
DOCKED: TER
DOCKED: ENDMDL
________________________________________________________________________________


    FINAL DOCKED STATE:
    ________________________


Run:   344 / 512
Time taken for this run:   0.002s

DOCKED: MODEL        344
DOCKED: USER    Run = 344
DOCKED: USER
DOCKED: USER    Estimated Free Energy of Binding    =  -3.76 kcal/mol  [=(1)+(2)+(3)-(4)]
DOCKED: USER
DOCKED: USER    (1) Final Intermolecular Energy     =  -5.25 kcal/mol
DOCKED: USER        vdW + Hbond + desolv Energy     =  -5.25 kcal/mol
DOCKED: USER        Electrostatic Energy            =  +0.00 kcal/mol
DOCKED: USER        Moving Ligand-Fixed Receptor    =  -5.25 kcal/mol
DOCKED: USER        Moving Ligand-Moving Receptor   =  +0.00 kcal/mol
DOCKED: USER    (2) Final Total Internal Energy     =  -1.49 kcal/mol
DOCKED: USER    (3) Torsional Free Energy           =  +1.49 kcal/mol
DOCKED: USER    (4) Unbound System's Energy         =  -1.49 kcal/mol
DOCKED: USER
DOCKED: USER
DOCKED: REMARK  5 active torsions:
DOCKED: REMARK  status: ('A' for Active; 'I' for Inactive)
DOCKED: REMARK    1  A    between atoms: C_2  and  C_19 
DOCKED: REMARK    2  A    between atoms: C_2  and  C_11 
DOCKED: REMARK    3  A    between atoms: C_19  and  C_20 
DOCKED: REMARK    4  A    between atoms: C_20  and  C_21 
DOCKED: REMARK    5  A    between atoms: C_21  and  N_22 
DOCKED: USER                              x       y       z     vdW  Elec       q    Type
DOCKED: USER                           _______ _______ _______ _____ _____    ______ ____
DOCKED: ROOT
DOCKED: ATOM      1  O   UNL     1     -36.030  -8.909  13.908 -0.04 -0.00    -0.346 OA 
DOCKED: ATOM      2  C   UNL     1     -37.432  -8.773  14.305 -0.07 +0.00    +0.130 C  
DOCKED: ATOM      3  C   UNL     1     -38.092  -9.985  13.715 -0.16 +0.00    +0.004 A  
DOCKED: ATOM      4  C   UNL     1     -37.134 -10.799  13.128 -0.25 +0.00    +0.006 A  
DOCKED: ATOM      5  C   UNL     1     -35.792 -10.198  13.297 -0.07 +0.00    +0.169 C  
DOCKED: ATOM      6  C   UNL     1     -39.432 -10.344  13.708 -0.16 -0.00    -0.001 A  
DOCKED: ATOM      7  C   UNL     1     -37.479 -11.991  12.514 -0.32 +0.00    +0.008 A  
DOCKED: ATOM      8  C   UNL     1     -39.797 -11.541  13.089 -0.20 +0.00    +0.010 A  
DOCKED: ATOM      9  C   UNL     1     -38.825 -12.360  12.495 -0.25 +0.00    +0.068 A  
DOCKED: ATOM     10  N   UNL     1     -39.536 -14.578  11.359 -2.56 -0.00    -0.191 NA 
DOCKED: ATOM     11  C   UNL     1     -39.217 -13.583  11.868 -0.35 +0.00    +0.101 C  
DOCKED: ENDROOT
DOCKED: BRANCH   2  12
DOCKED: ATOM     12  C   UNL     1     -37.502  -8.741  15.827 -0.03 +0.00    +0.038 C  
DOCKED: BRANCH  12  13
DOCKED: ATOM     13  C   UNL     1     -36.831  -9.967  16.441 -0.04 +0.00    +0.038 C  
DOCKED: BRANCH  13  14
DOCKED: ATOM     14  C   UNL     1     -37.863 -11.027  16.820 -0.02 +0.00    +0.251 C  
DOCKED: BRANCH  14  15
DOCKED: ATOM     15  N   UNL     1     -37.285 -12.361  16.713 -0.08 +0.00    +0.141 N  
DOCKED: ATOM     16  C   UNL     1     -38.157 -13.241  15.933 -0.11 +0.00    +0.285 C  
DOCKED: ATOM     17  C   UNL     1     -35.954 -12.298  16.105 -0.06 +0.00    +0.285 C  
DOCKED: ENDBRANCH  14  15
DOCKED: ENDBRANCH  13  14
DOCKED: ENDBRANCH  12  13
DOCKED: ENDBRANCH   2  12
DOCKED: BRANCH   2  18
DOCKED: ATOM     18  C   UNL     1     -37.929  -7.495  13.716 -0.10 +0.00    +0.006 A  
DOCKED: ATOM     19  C   UNL     1     -38.293  -6.439  14.550 -0.04 +0.00    +0.001 A  
DOCKED: ATOM     20  C   UNL     1     -38.759  -5.244  13.998 -0.03 +0.00    +0.029 A  
DOCKED: ATOM     21  C   UNL     1     -38.859  -5.108  12.614 -0.07 +0.00    +0.140 A  
DOCKED: ATOM     22  C   UNL     1     -38.495  -6.165  11.781 -0.15 +0.00    +0.029 A  
DOCKED: ATOM     23  F   UNL     1     -39.304  -3.961  12.085 -0.00 -0.00    -0.204 F  
DOCKED: ATOM     24  C   UNL     1     -38.029  -7.360  12.332 -0.12 +0.00    +0.001 A  
DOCKED: ENDBRANCH   2  18
DOCKED: TORSDOF 5
DOCKED: TER
DOCKED: ENDMDL
________________________________________________________________________________


    FINAL DOCKED STATE:
    ________________________


Run:   345 / 512
Time taken for this run:   0.002s

DOCKED: MODEL        345
DOCKED: USER    Run = 345
DOCKED: USER
DOCKED: USER    Estimated Free Energy of Binding    =  -5.09 kcal/mol  [=(1)+(2)+(3)-(4)]
DOCKED: USER
DOCKED: USER    (1) Final Intermolecular Energy     =  -6.58 kcal/mol
DOCKED: USER        vdW + Hbond + desolv Energy     =  -6.58 kcal/mol
DOCKED: USER        Electrostatic Energy            =  +0.00 kcal/mol
DOCKED: USER        Moving Ligand-Fixed Receptor    =  -6.58 kcal/mol
DOCKED: USER        Moving Ligand-Moving Receptor   =  +0.00 kcal/mol
DOCKED: USER    (2) Final Total Internal Energy     =  -1.28 kcal/mol
DOCKED: USER    (3) Torsional Free Energy           =  +1.49 kcal/mol
DOCKED: USER    (4) Unbound System's Energy         =  -1.28 kcal/mol
DOCKED: USER
DOCKED: USER
DOCKED: REMARK  5 active torsions:
DOCKED: REMARK  status: ('A' for Active; 'I' for Inactive)
DOCKED: REMARK    1  A    between atoms: C_2  and  C_19 
DOCKED: REMARK    2  A    between atoms: C_2  and  C_11 
DOCKED: REMARK    3  A    between atoms: C_19  and  C_20 
DOCKED: REMARK    4  A    between atoms: C_20  and  C_21 
DOCKED: REMARK    5  A    between atoms: C_21  and  N_22 
DOCKED: USER                              x       y       z     vdW  Elec       q    Type
DOCKED: USER                           _______ _______ _______ _____ _____    ______ ____
DOCKED: ROOT
DOCKED: ATOM      1  O   UNL     1     -38.713 -13.373  14.870 -0.09 -0.00    -0.346 OA 
DOCKED: ATOM      2  C   UNL     1     -38.241 -12.077  14.380 -0.13 +0.00    +0.130 C  
DOCKED: ATOM      3  C   UNL     1     -38.433 -12.163  12.894 -0.27 +0.00    +0.004 A  
DOCKED: ATOM      4  C   UNL     1     -39.062 -13.358  12.573 -0.30 +0.00    +0.006 A  
DOCKED: ATOM      5  C   UNL     1     -39.338 -14.128  13.806 -0.08 +0.00    +0.169 C  
DOCKED: ATOM      6  C   UNL     1     -38.089 -11.252  11.906 -0.33 -0.00    -0.001 A  
DOCKED: ATOM      7  C   UNL     1     -39.364 -13.683  11.261 -0.42 +0.00    +0.008 A  
DOCKED: ATOM      8  C   UNL     1     -38.382 -11.568  10.578 -0.05 +0.00    +0.010 A  
DOCKED: ATOM      9  C   UNL     1     -39.017 -12.778  10.258 -0.40 +0.00    +0.068 A  
DOCKED: ATOM     10  N   UNL     1     -39.551 -13.331   7.784 -2.78 -0.00    -0.191 NA 
DOCKED: ATOM     11  C   UNL     1     -39.311 -13.083   8.893 -0.40 +0.00    +0.101 C  
DOCKED: ENDROOT
DOCKED: BRANCH   2  12
DOCKED: ATOM     12  C   UNL     1     -39.081 -10.982  15.025 -0.09 +0.00    +0.038 C  
DOCKED: BRANCH  12  13
DOCKED: ATOM     13  C   UNL     1     -40.232 -11.569  15.839 -0.07 +0.00    +0.038 C  
DOCKED: BRANCH  13  14
DOCKED: ATOM     14  C   UNL     1     -41.544 -11.510  15.059 -0.03 +0.00    +0.251 C  
DOCKED: BRANCH  14  15
DOCKED: ATOM     15  N   UNL     1     -41.318 -10.959  13.728 -0.11 +0.00    +0.141 N  
DOCKED: ATOM     16  C   UNL     1     -42.084 -11.701  12.725 -0.12 +0.00    +0.285 C  
DOCKED: ATOM     17  C   UNL     1     -41.673  -9.540  13.690 -0.09 +0.00    +0.285 C  
DOCKED: ENDBRANCH  14  15
DOCKED: ENDBRANCH  13  14
DOCKED: ENDBRANCH  12  13
DOCKED: ENDBRANCH   2  12
DOCKED: BRANCH   2  18
DOCKED: ATOM     18  C   UNL     1     -36.807 -11.958  14.775 -0.18 +0.00    +0.006 A  
DOCKED: ATOM     19  C   UNL     1     -36.404 -12.328  16.058 -0.14 +0.00    +0.001 A  
DOCKED: ATOM     20  C   UNL     1     -35.063 -12.216  16.426 -0.08 +0.00    +0.029 A  
DOCKED: ATOM     21  C   UNL     1     -34.127 -11.735  15.512 -0.10 +0.00    +0.140 A  
DOCKED: ATOM     22  C   UNL     1     -34.530 -11.366  14.229 -0.11 +0.00    +0.029 A  
DOCKED: ATOM     23  F   UNL     1     -32.839 -11.630  15.865 -0.02 -0.00    -0.204 F  
DOCKED: ATOM     24  C   UNL     1     -35.871 -11.477  13.860 -0.20 +0.00    +0.001 A  
DOCKED: ENDBRANCH   2  18
DOCKED: TORSDOF 5
DOCKED: TER
DOCKED: ENDMDL
________________________________________________________________________________


    FINAL DOCKED STATE:
    ________________________


Run:   346 / 512
Time taken for this run:   0.002s

DOCKED: MODEL        346
DOCKED: USER    Run = 346
DOCKED: USER
DOCKED: USER    Estimated Free Energy of Binding    =  -4.00 kcal/mol  [=(1)+(2)+(3)-(4)]
DOCKED: USER
DOCKED: USER    (1) Final Intermolecular Energy     =  -5.50 kcal/mol
DOCKED: USER        vdW + Hbond + desolv Energy     =  -5.50 kcal/mol
DOCKED: USER        Electrostatic Energy            =  +0.00 kcal/mol
DOCKED: USER        Moving Ligand-Fixed Receptor    =  -5.50 kcal/mol
DOCKED: USER        Moving Ligand-Moving Receptor   =  +0.00 kcal/mol
DOCKED: USER    (2) Final Total Internal Energy     =  -0.95 kcal/mol
DOCKED: USER    (3) Torsional Free Energy           =  +1.49 kcal/mol
DOCKED: USER    (4) Unbound System's Energy         =  -0.95 kcal/mol
DOCKED: USER
DOCKED: USER
DOCKED: REMARK  5 active torsions:
DOCKED: REMARK  status: ('A' for Active; 'I' for Inactive)
DOCKED: REMARK    1  A    between atoms: C_2  and  C_19 
DOCKED: REMARK    2  A    between atoms: C_2  and  C_11 
DOCKED: REMARK    3  A    between atoms: C_19  and  C_20 
DOCKED: REMARK    4  A    between atoms: C_20  and  C_21 
DOCKED: REMARK    5  A    between atoms: C_21  and  N_22 
DOCKED: USER                              x       y       z     vdW  Elec       q    Type
DOCKED: USER                           _______ _______ _______ _____ _____    ______ ____
DOCKED: ROOT
DOCKED: ATOM      1  O   UNL     1     -37.405  -9.461  15.637 -0.00 -0.00    -0.346 OA 
DOCKED: ATOM      2  C   UNL     1     -37.117  -9.054  14.261 -0.08 +0.00    +0.130 C  
DOCKED: ATOM      3  C   UNL     1     -37.575 -10.223  13.438 -0.20 +0.00    +0.004 A  
DOCKED: ATOM      4  C   UNL     1     -38.173 -11.168  14.259 -0.13 +0.00    +0.006 A  
DOCKED: ATOM      5  C   UNL     1     -38.164 -10.692  15.661 -0.04 +0.00    +0.169 C  
DOCKED: ATOM      6  C   UNL     1     -37.480 -10.428  12.069 -0.24 -0.00    -0.001 A  
DOCKED: ATOM      7  C   UNL     1     -38.690 -12.345  13.746 -0.19 +0.00    +0.008 A  
DOCKED: ATOM      8  C   UNL     1     -37.993 -11.613  11.537 -0.33 +0.00    +0.010 A  
DOCKED: ATOM      9  C   UNL     1     -38.595 -12.566  12.372 -0.27 +0.00    +0.068 A  
DOCKED: ATOM     10  N   UNL     1     -39.541 -14.751  11.351 -2.55 -0.00    -0.191 NA 
DOCKED: ATOM     11  C   UNL     1     -39.116 -13.771  11.809 -0.35 +0.00    +0.101 C  
DOCKED: ENDROOT
DOCKED: BRANCH   2  12
DOCKED: ATOM     12  C   UNL     1     -37.894  -7.777  13.963 -0.10 +0.00    +0.038 C  
DOCKED: BRANCH  12  13
DOCKED: ATOM     13  C   UNL     1     -37.743  -7.362  12.501 -0.17 +0.00    +0.038 C  
DOCKED: BRANCH  13  14
DOCKED: ATOM     14  C   UNL     1     -38.894  -6.456  12.066 -0.13 +0.00    +0.251 C  
DOCKED: BRANCH  14  15
DOCKED: ATOM     15  N   UNL     1     -38.436  -5.501  11.064 -0.15 +0.00    +0.141 N  
DOCKED: ATOM     16  C   UNL     1     -39.523  -4.602  10.674 -0.10 +0.00    +0.285 C  
DOCKED: ATOM     17  C   UNL     1     -37.297  -4.732  11.568 -0.06 +0.00    +0.285 C  
DOCKED: ENDBRANCH  14  15
DOCKED: ENDBRANCH  13  14
DOCKED: ENDBRANCH  12  13
DOCKED: ENDBRANCH   2  12
DOCKED: BRANCH   2  18
DOCKED: ATOM     18  C   UNL     1     -35.646  -8.822  14.174 -0.09 +0.00    +0.006 A  
DOCKED: ATOM     19  C   UNL     1     -35.121  -7.562  14.460 -0.04 +0.00    +0.001 A  
DOCKED: ATOM     20  C   UNL     1     -33.745  -7.346  14.377 -0.03 +0.00    +0.029 A  
DOCKED: ATOM     21  C   UNL     1     -32.896  -8.389  14.009 -0.04 +0.00    +0.140 A  
DOCKED: ATOM     22  C   UNL     1     -33.422  -9.649  13.723 -0.10 +0.00    +0.029 A  
DOCKED: ATOM     23  F   UNL     1     -31.575  -8.182  13.931 -0.00 -0.00    -0.204 F  
DOCKED: ATOM     24  C   UNL     1     -34.798  -9.866  13.805 -0.11 +0.00    +0.001 A  
DOCKED: ENDBRANCH   2  18
DOCKED: TORSDOF 5
DOCKED: TER
DOCKED: ENDMDL
________________________________________________________________________________


    FINAL DOCKED STATE:
    ________________________


Run:   347 / 512
Time taken for this run:   0.002s

DOCKED: MODEL        347
DOCKED: USER    Run = 347
DOCKED: USER
DOCKED: USER    Estimated Free Energy of Binding    =  -4.12 kcal/mol  [=(1)+(2)+(3)-(4)]
DOCKED: USER
DOCKED: USER    (1) Final Intermolecular Energy     =  -5.61 kcal/mol
DOCKED: USER        vdW + Hbond + desolv Energy     =  -5.61 kcal/mol
DOCKED: USER        Electrostatic Energy            =  +0.00 kcal/mol
DOCKED: USER        Moving Ligand-Fixed Receptor    =  -5.61 kcal/mol
DOCKED: USER        Moving Ligand-Moving Receptor   =  +0.00 kcal/mol
DOCKED: USER    (2) Final Total Internal Energy     =  -1.47 kcal/mol
DOCKED: USER    (3) Torsional Free Energy           =  +1.49 kcal/mol
DOCKED: USER    (4) Unbound System's Energy         =  -1.47 kcal/mol
DOCKED: USER
DOCKED: USER
DOCKED: REMARK  5 active torsions:
DOCKED: REMARK  status: ('A' for Active; 'I' for Inactive)
DOCKED: REMARK    1  A    between atoms: C_2  and  C_19 
DOCKED: REMARK    2  A    between atoms: C_2  and  C_11 
DOCKED: REMARK    3  A    between atoms: C_19  and  C_20 
DOCKED: REMARK    4  A    between atoms: C_20  and  C_21 
DOCKED: REMARK    5  A    between atoms: C_21  and  N_22 
DOCKED: USER                              x       y       z     vdW  Elec       q    Type
DOCKED: USER                           _______ _______ _______ _____ _____    ______ ____
DOCKED: ROOT
DOCKED: ATOM      1  O   UNL     1     -35.474  -9.953  14.927 -0.03 -0.00    -0.346 OA 
DOCKED: ATOM      2  C   UNL     1     -36.266  -9.253  13.916 -0.12 +0.00    +0.130 C  
DOCKED: ATOM      3  C   UNL     1     -36.987 -10.356  13.196 -0.23 +0.00    +0.004 A  
DOCKED: ATOM      4  C   UNL     1     -36.716 -11.570  13.812 -0.23 +0.00    +0.006 A  
DOCKED: ATOM      5  C   UNL     1     -35.823 -11.356  14.973 -0.13 +0.00    +0.169 C  
DOCKED: ATOM      6  C   UNL     1     -37.823 -10.290  12.092 -0.25 -0.00    -0.001 A  
DOCKED: ATOM      7  C   UNL     1     -37.266 -12.752  13.347 -0.32 +0.00    +0.008 A  
DOCKED: ATOM      8  C   UNL     1     -38.381 -11.474  11.608 -0.33 +0.00    +0.010 A  
DOCKED: ATOM      9  C   UNL     1     -38.104 -12.699  12.232 -0.31 +0.00    +0.068 A  
DOCKED: ATOM     10  N   UNL     1     -39.160 -14.878  11.311 -2.59 -0.00    -0.191 NA 
DOCKED: ATOM     11  C   UNL     1     -38.686 -13.901  11.724 -0.30 +0.00    +0.101 C  
DOCKED: ENDROOT
DOCKED: BRANCH   2  12
DOCKED: ATOM     12  C   UNL     1     -37.212  -8.290  14.625 -0.06 +0.00    +0.038 C  
DOCKED: BRANCH  12  13
DOCKED: ATOM     13  C   UNL     1     -36.888  -8.187  16.114 -0.02 +0.00    +0.038 C  
DOCKED: BRANCH  13  14
DOCKED: ATOM     14  C   UNL     1     -35.714  -7.240  16.356 -0.00 +0.00    +0.251 C  
DOCKED: BRANCH  14  15
DOCKED: ATOM     15  N   UNL     1     -35.653  -6.229  15.308 -0.01 +0.00    +0.141 N  
DOCKED: ATOM     16  C   UNL     1     -36.533  -5.103  15.625 -0.00 +0.00    +0.285 C  
DOCKED: ATOM     17  C   UNL     1     -34.278  -5.762  15.121 -0.00 +0.00    +0.285 C  
DOCKED: ENDBRANCH  14  15
DOCKED: ENDBRANCH  13  14
DOCKED: ENDBRANCH  12  13
DOCKED: ENDBRANCH   2  12
DOCKED: BRANCH   2  18
DOCKED: ATOM     18  C   UNL     1     -35.306  -8.518  13.041 -0.14 +0.00    +0.006 A  
DOCKED: ATOM     19  C   UNL     1     -35.770  -7.530  12.173 -0.14 +0.00    +0.001 A  
DOCKED: ATOM     20  C   UNL     1     -34.872  -6.844  11.356 -0.11 +0.00    +0.029 A  
DOCKED: ATOM     21  C   UNL     1     -33.512  -7.145  11.407 -0.07 +0.00    +0.140 A  
DOCKED: ATOM     22  C   UNL     1     -33.048  -8.133  12.276 -0.09 +0.00    +0.029 A  
DOCKED: ATOM     23  F   UNL     1     -32.649  -6.485  10.624 -0.00 -0.00    -0.204 F  
DOCKED: ATOM     24  C   UNL     1     -33.946  -8.821  13.094 -0.11 +0.00    +0.001 A  
DOCKED: ENDBRANCH   2  18
DOCKED: TORSDOF 5
DOCKED: TER
DOCKED: ENDMDL
________________________________________________________________________________


    FINAL DOCKED STATE:
    ________________________


Run:   348 / 512
Time taken for this run:   0.002s

DOCKED: MODEL        348
DOCKED: USER    Run = 348
DOCKED: USER
DOCKED: USER    Estimated Free Energy of Binding    =  -4.10 kcal/mol  [=(1)+(2)+(3)-(4)]
DOCKED: USER
DOCKED: USER    (1) Final Intermolecular Energy     =  -5.59 kcal/mol
DOCKED: USER        vdW + Hbond + desolv Energy     =  -5.59 kcal/mol
DOCKED: USER        Electrostatic Energy            =  +0.00 kcal/mol
DOCKED: USER        Moving Ligand-Fixed Receptor    =  -5.59 kcal/mol
DOCKED: USER        Moving Ligand-Moving Receptor   =  +0.00 kcal/mol
DOCKED: USER    (2) Final Total Internal Energy     =  -1.42 kcal/mol
DOCKED: USER    (3) Torsional Free Energy           =  +1.49 kcal/mol
DOCKED: USER    (4) Unbound System's Energy         =  -1.42 kcal/mol
DOCKED: USER
DOCKED: USER
DOCKED: REMARK  5 active torsions:
DOCKED: REMARK  status: ('A' for Active; 'I' for Inactive)
DOCKED: REMARK    1  A    between atoms: C_2  and  C_19 
DOCKED: REMARK    2  A    between atoms: C_2  and  C_11 
DOCKED: REMARK    3  A    between atoms: C_19  and  C_20 
DOCKED: REMARK    4  A    between atoms: C_20  and  C_21 
DOCKED: REMARK    5  A    between atoms: C_21  and  N_22 
DOCKED: USER                              x       y       z     vdW  Elec       q    Type
DOCKED: USER                           _______ _______ _______ _____ _____    ______ ____
DOCKED: ROOT
DOCKED: ATOM      1  O   UNL     1     -34.565 -10.812  14.825 -0.08 -0.00    -0.346 OA 
DOCKED: ATOM      2  C   UNL     1     -35.714  -9.931  14.614 -0.10 +0.00    +0.130 C  
DOCKED: ATOM      3  C   UNL     1     -36.692 -10.788  13.864 -0.19 +0.00    +0.004 A  
DOCKED: ATOM      4  C   UNL     1     -36.193 -12.078  13.753 -0.25 +0.00    +0.006 A  
DOCKED: ATOM      5  C   UNL     1     -34.876 -12.167  14.423 -0.11 +0.00    +0.169 C  
DOCKED: ATOM      6  C   UNL     1     -37.929 -10.455  13.332 -0.21 -0.00    -0.001 A  
DOCKED: ATOM      7  C   UNL     1     -36.906 -13.074  13.108 -0.35 +0.00    +0.008 A  
DOCKED: ATOM      8  C   UNL     1     -38.659 -11.447  12.675 -0.27 +0.00    +0.010 A  
DOCKED: ATOM      9  C   UNL     1     -38.150 -12.750  12.563 -0.29 +0.00    +0.068 A  
DOCKED: ATOM     10  N   UNL     1     -39.533 -14.568  11.341 -2.56 -0.00    -0.191 NA 
DOCKED: ATOM     11  C   UNL     1     -38.912 -13.752  11.889 -0.34 +0.00    +0.101 C  
DOCKED: ENDROOT
DOCKED: BRANCH   2  12
DOCKED: ATOM     12  C   UNL     1     -36.237  -9.485  15.974 -0.04 +0.00    +0.038 C  
DOCKED: BRANCH  12  13
DOCKED: ATOM     13  C   UNL     1     -37.471 -10.285  16.386 -0.04 +0.00    +0.038 C  
DOCKED: BRANCH  13  14
DOCKED: ATOM     14  C   UNL     1     -37.075 -11.597  17.061 -0.04 +0.00    +0.251 C  
DOCKED: BRANCH  14  15
DOCKED: ATOM     15  N   UNL     1     -37.785 -12.715  16.452 -0.10 +0.00    +0.141 N  
DOCKED: ATOM     16  C   UNL     1     -37.066 -13.969  16.680 -0.10 +0.00    +0.285 C  
DOCKED: ATOM     17  C   UNL     1     -39.148 -12.809  16.978 -0.05 +0.00    +0.285 C  
DOCKED: ENDBRANCH  14  15
DOCKED: ENDBRANCH  13  14
DOCKED: ENDBRANCH  12  13
DOCKED: ENDBRANCH   2  12
DOCKED: BRANCH   2  18
DOCKED: ATOM     18  C   UNL     1     -35.229  -8.767  13.815 -0.11 +0.00    +0.006 A  
DOCKED: ATOM     19  C   UNL     1     -35.163  -8.854  12.425 -0.12 +0.00    +0.001 A  
DOCKED: ATOM     20  C   UNL     1     -34.710  -7.765  11.680 -0.14 +0.00    +0.029 A  
DOCKED: ATOM     21  C   UNL     1     -34.324  -6.591  12.325 -0.05 +0.00    +0.140 A  
DOCKED: ATOM     22  C   UNL     1     -34.391  -6.504  13.715 -0.03 +0.00    +0.029 A  
DOCKED: ATOM     23  F   UNL     1     -33.890  -5.545  11.609 -0.00 -0.00    -0.204 F  
DOCKED: ATOM     24  C   UNL     1     -34.844  -7.593  14.462 -0.04 +0.00    +0.001 A  
DOCKED: ENDBRANCH   2  18
DOCKED: TORSDOF 5
DOCKED: TER
DOCKED: ENDMDL
________________________________________________________________________________


    FINAL DOCKED STATE:
    ________________________


Run:   349 / 512
Time taken for this run:   0.002s

DOCKED: MODEL        349
DOCKED: USER    Run = 349
DOCKED: USER
DOCKED: USER    Estimated Free Energy of Binding    =  -3.51 kcal/mol  [=(1)+(2)+(3)-(4)]
DOCKED: USER
DOCKED: USER    (1) Final Intermolecular Energy     =  -5.00 kcal/mol
DOCKED: USER        vdW + Hbond + desolv Energy     =  -5.00 kcal/mol
DOCKED: USER        Electrostatic Energy            =  +0.00 kcal/mol
DOCKED: USER        Moving Ligand-Fixed Receptor    =  -5.00 kcal/mol
DOCKED: USER        Moving Ligand-Moving Receptor   =  +0.00 kcal/mol
DOCKED: USER    (2) Final Total Internal Energy     =  -1.40 kcal/mol
DOCKED: USER    (3) Torsional Free Energy           =  +1.49 kcal/mol
DOCKED: USER    (4) Unbound System's Energy         =  -1.40 kcal/mol
DOCKED: USER
DOCKED: USER
DOCKED: REMARK  5 active torsions:
DOCKED: REMARK  status: ('A' for Active; 'I' for Inactive)
DOCKED: REMARK    1  A    between atoms: C_2  and  C_19 
DOCKED: REMARK    2  A    between atoms: C_2  and  C_11 
DOCKED: REMARK    3  A    between atoms: C_19  and  C_20 
DOCKED: REMARK    4  A    between atoms: C_20  and  C_21 
DOCKED: REMARK    5  A    between atoms: C_21  and  N_22 
DOCKED: USER                              x       y       z     vdW  Elec       q    Type
DOCKED: USER                           _______ _______ _______ _____ _____    ______ ____
DOCKED: ROOT
DOCKED: ATOM      1  O   UNL     1     -37.214  -9.884  15.874 -0.00 -0.00    -0.346 OA 
DOCKED: ATOM      2  C   UNL     1     -37.502  -9.198  14.613 -0.06 +0.00    +0.130 C  
DOCKED: ATOM      3  C   UNL     1     -37.869 -10.311  13.674 -0.17 +0.00    +0.004 A  
DOCKED: ATOM      4  C   UNL     1     -37.897 -11.514  14.365 -0.14 +0.00    +0.006 A  
DOCKED: ATOM      5  C   UNL     1     -37.568 -11.284  15.789 -0.06 +0.00    +0.169 C  
DOCKED: ATOM      6  C   UNL     1     -38.165 -10.261  12.320 -0.26 -0.00    -0.001 A  
DOCKED: ATOM      7  C   UNL     1     -38.216 -12.702  13.730 -0.23 +0.00    +0.008 A  
DOCKED: ATOM      8  C   UNL     1     -38.484 -11.451  11.664 -0.32 +0.00    +0.010 A  
DOCKED: ATOM      9  C   UNL     1     -38.510 -12.666  12.366 -0.28 +0.00    +0.068 A  
DOCKED: ATOM     10  N   UNL     1     -39.111 -14.856  11.120 -2.43 -0.00    -0.191 NA 
DOCKED: ATOM     11  C   UNL     1     -38.841 -13.874  11.679 -0.33 +0.00    +0.101 C  
DOCKED: ENDROOT
DOCKED: BRANCH   2  12
DOCKED: ATOM     12  C   UNL     1     -38.645  -8.218  14.846 -0.05 +0.00    +0.038 C  
DOCKED: BRANCH  12  13
DOCKED: ATOM     13  C   UNL     1     -39.960  -8.750  14.280 -0.11 +0.00    +0.038 C  
DOCKED: BRANCH  13  14
DOCKED: ATOM     14  C   UNL     1     -40.770  -9.468  15.357 -0.01 +0.00    +0.251 C  
DOCKED: BRANCH  14  15
DOCKED: ATOM     15  N   UNL     1     -40.943 -10.874  15.010 -0.04 +0.00    +0.141 N  
DOCKED: ATOM     16  C   UNL     1     -41.406 -11.639  16.169 -0.00 +0.00    +0.285 C  
DOCKED: ATOM     17  C   UNL     1     -41.883 -11.019  13.898 -0.07 +0.00    +0.285 C  
DOCKED: ENDBRANCH  14  15
DOCKED: ENDBRANCH  13  14
DOCKED: ENDBRANCH  12  13
DOCKED: ENDBRANCH   2  12
DOCKED: BRANCH   2  18
DOCKED: ATOM     18  C   UNL     1     -36.254  -8.485  14.210 -0.08 +0.00    +0.006 A  
DOCKED: ATOM     19  C   UNL     1     -35.975  -7.222  14.730 -0.03 +0.00    +0.001 A  
DOCKED: ATOM     20  C   UNL     1     -34.808  -6.556  14.352 -0.02 +0.00    +0.029 A  
DOCKED: ATOM     21  C   UNL     1     -33.923  -7.154  13.456 -0.03 +0.00    +0.140 A  
DOCKED: ATOM     22  C   UNL     1     -34.203  -8.417  12.936 -0.11 +0.00    +0.029 A  
DOCKED: ATOM     23  F   UNL     1     -32.803  -6.515  13.094 -0.00 -0.00    -0.204 F  
DOCKED: ATOM     24  C   UNL     1     -35.370  -9.084  13.313 -0.15 +0.00    +0.001 A  
DOCKED: ENDBRANCH   2  18
DOCKED: TORSDOF 5
DOCKED: TER
DOCKED: ENDMDL
________________________________________________________________________________


    FINAL DOCKED STATE:
    ________________________


Run:   350 / 512
Time taken for this run:   0.002s

DOCKED: MODEL        350
DOCKED: USER    Run = 350
DOCKED: USER
DOCKED: USER    Estimated Free Energy of Binding    =  -4.42 kcal/mol  [=(1)+(2)+(3)-(4)]
DOCKED: USER
DOCKED: USER    (1) Final Intermolecular Energy     =  -5.91 kcal/mol
DOCKED: USER        vdW + Hbond + desolv Energy     =  -5.91 kcal/mol
DOCKED: USER        Electrostatic Energy            =  +0.00 kcal/mol
DOCKED: USER        Moving Ligand-Fixed Receptor    =  -5.91 kcal/mol
DOCKED: USER        Moving Ligand-Moving Receptor   =  +0.00 kcal/mol
DOCKED: USER    (2) Final Total Internal Energy     =  -1.48 kcal/mol
DOCKED: USER    (3) Torsional Free Energy           =  +1.49 kcal/mol
DOCKED: USER    (4) Unbound System's Energy         =  -1.48 kcal/mol
DOCKED: USER
DOCKED: USER
DOCKED: REMARK  5 active torsions:
DOCKED: REMARK  status: ('A' for Active; 'I' for Inactive)
DOCKED: REMARK    1  A    between atoms: C_2  and  C_19 
DOCKED: REMARK    2  A    between atoms: C_2  and  C_11 
DOCKED: REMARK    3  A    between atoms: C_19  and  C_20 
DOCKED: REMARK    4  A    between atoms: C_20  and  C_21 
DOCKED: REMARK    5  A    between atoms: C_21  and  N_22 
DOCKED: USER                              x       y       z     vdW  Elec       q    Type
DOCKED: USER                           _______ _______ _______ _____ _____    ______ ____
DOCKED: ROOT
DOCKED: ATOM      1  O   UNL     1     -38.854 -12.855  14.561 -0.04 -0.00    -0.346 OA 
DOCKED: ATOM      2  C   UNL     1     -38.370 -11.681  13.833 -0.15 +0.00    +0.130 C  
DOCKED: ATOM      3  C   UNL     1     -38.584 -12.038  12.391 -0.31 +0.00    +0.004 A  
DOCKED: ATOM      4  C   UNL     1     -39.236 -13.260  12.304 -0.31 +0.00    +0.006 A  
DOCKED: ATOM      5  C   UNL     1     -39.505 -13.783  13.662 -0.18 +0.00    +0.169 C  
DOCKED: ATOM      6  C   UNL     1     -38.241 -11.331  11.247 -0.22 -0.00    -0.001 A  
DOCKED: ATOM      7  C   UNL     1     -39.561 -13.817  11.079 -0.42 +0.00    +0.008 A  
DOCKED: ATOM      8  C   UNL     1     -38.558 -11.883  10.005 -0.11 +0.00    +0.010 A  
DOCKED: ATOM      9  C   UNL     1     -39.215 -13.119   9.922 -0.43 +0.00    +0.068 A  
DOCKED: ATOM     10  N   UNL     1     -39.794 -14.112   7.599 -2.34 -0.00    -0.191 NA 
DOCKED: ATOM     11  C   UNL     1     -39.534 -13.667   8.641 -0.34 +0.00    +0.101 C  
DOCKED: ENDROOT
DOCKED: BRANCH   2  12
DOCKED: ATOM     12  C   UNL     1     -39.184 -10.471  14.273 -0.12 +0.00    +0.038 C  
DOCKED: BRANCH  12  13
DOCKED: ATOM     13  C   UNL     1     -38.910 -10.115  15.733 -0.05 +0.00    +0.038 C  
DOCKED: BRANCH  13  14
DOCKED: ATOM     14  C   UNL     1     -39.999 -10.671  16.648 -0.01 +0.00    +0.251 C  
DOCKED: BRANCH  14  15
DOCKED: ATOM     15  N   UNL     1     -39.402 -11.393  17.766 -0.02 +0.00    +0.141 N  
DOCKED: ATOM     16  C   UNL     1     -39.481 -12.839  17.547 -0.04 +0.00    +0.285 C  
DOCKED: ATOM     17  C   UNL     1     -38.010 -10.984  17.960 -0.01 +0.00    +0.285 C  
DOCKED: ENDBRANCH  14  15
DOCKED: ENDBRANCH  13  14
DOCKED: ENDBRANCH  12  13
DOCKED: ENDBRANCH   2  12
DOCKED: BRANCH   2  18
DOCKED: ATOM     18  C   UNL     1     -36.928 -11.516  14.183 -0.19 +0.00    +0.006 A  
DOCKED: ATOM     19  C   UNL     1     -36.192 -10.469  13.629 -0.19 +0.00    +0.001 A  
DOCKED: ATOM     20  C   UNL     1     -34.845 -10.316  13.956 -0.11 +0.00    +0.029 A  
DOCKED: ATOM     21  C   UNL     1     -34.235 -11.208  14.837 -0.12 +0.00    +0.140 A  
DOCKED: ATOM     22  C   UNL     1     -34.972 -12.255  15.392 -0.01 +0.00    +0.029 A  
DOCKED: ATOM     23  F   UNL     1     -32.942 -11.060  15.153 -0.02 -0.00    -0.204 F  
DOCKED: ATOM     24  C   UNL     1     -36.320 -12.409  15.064 -0.17 +0.00    +0.001 A  
DOCKED: ENDBRANCH   2  18
DOCKED: TORSDOF 5
DOCKED: TER
DOCKED: ENDMDL
________________________________________________________________________________


    FINAL DOCKED STATE:
    ________________________


Run:   351 / 512
Time taken for this run:   0.002s

DOCKED: MODEL        351
DOCKED: USER    Run = 351
DOCKED: USER
DOCKED: USER    Estimated Free Energy of Binding    =  -5.11 kcal/mol  [=(1)+(2)+(3)-(4)]
DOCKED: USER
DOCKED: USER    (1) Final Intermolecular Energy     =  -6.60 kcal/mol
DOCKED: USER        vdW + Hbond + desolv Energy     =  -6.60 kcal/mol
DOCKED: USER        Electrostatic Energy            =  +0.00 kcal/mol
DOCKED: USER        Moving Ligand-Fixed Receptor    =  -6.60 kcal/mol
DOCKED: USER        Moving Ligand-Moving Receptor   =  +0.00 kcal/mol
DOCKED: USER    (2) Final Total Internal Energy     =  -1.45 kcal/mol
DOCKED: USER    (3) Torsional Free Energy           =  +1.49 kcal/mol
DOCKED: USER    (4) Unbound System's Energy         =  -1.45 kcal/mol
DOCKED: USER
DOCKED: USER
DOCKED: REMARK  5 active torsions:
DOCKED: REMARK  status: ('A' for Active; 'I' for Inactive)
DOCKED: REMARK    1  A    between atoms: C_2  and  C_19 
DOCKED: REMARK    2  A    between atoms: C_2  and  C_11 
DOCKED: REMARK    3  A    between atoms: C_19  and  C_20 
DOCKED: REMARK    4  A    between atoms: C_20  and  C_21 
DOCKED: REMARK    5  A    between atoms: C_21  and  N_22 
DOCKED: USER                              x       y       z     vdW  Elec       q    Type
DOCKED: USER                           _______ _______ _______ _____ _____    ______ ____
DOCKED: ROOT
DOCKED: ATOM      1  O   UNL     1     -36.513 -13.542  14.498 -0.08 -0.00    -0.346 OA 
DOCKED: ATOM      2  C   UNL     1     -36.840 -12.150  14.187 -0.21 +0.00    +0.130 C  
DOCKED: ATOM      3  C   UNL     1     -37.445 -12.221  12.815 -0.31 +0.00    +0.004 A  
DOCKED: ATOM      4  C   UNL     1     -37.557 -13.547  12.422 -0.40 +0.00    +0.006 A  
DOCKED: ATOM      5  C   UNL     1     -37.053 -14.433  13.494 -0.09 +0.00    +0.169 C  
DOCKED: ATOM      6  C   UNL     1     -37.874 -11.194  11.987 -0.32 -0.00    -0.001 A  
DOCKED: ATOM      7  C   UNL     1     -38.094 -13.891  11.193 -0.47 +0.00    +0.008 A  
DOCKED: ATOM      8  C   UNL     1     -38.413 -11.524  10.742 -0.12 +0.00    +0.010 A  
DOCKED: ATOM      9  C   UNL     1     -38.523 -12.866  10.348 -0.40 +0.00    +0.068 A  
DOCKED: ATOM     10  N   UNL     1     -39.532 -13.445   8.033 -2.45 -0.00    -0.191 NA 
DOCKED: ATOM     11  C   UNL     1     -39.079 -13.186   9.071 -0.50 +0.00    +0.101 C  
DOCKED: ENDROOT
DOCKED: BRANCH   2  12
DOCKED: ATOM     12  C   UNL     1     -37.814 -11.636  15.240 -0.12 +0.00    +0.038 C  
DOCKED: BRANCH  12  13
DOCKED: ATOM     13  C   UNL     1     -38.027 -12.664  16.350 -0.15 +0.00    +0.038 C  
DOCKED: BRANCH  13  14
DOCKED: ATOM     14  C   UNL     1     -37.433 -12.177  17.671 -0.04 +0.00    +0.251 C  
DOCKED: BRANCH  14  15
DOCKED: ATOM     15  N   UNL     1     -36.017 -11.871  17.507 -0.06 +0.00    +0.141 N  
DOCKED: ATOM     16  C   UNL     1     -35.781 -10.433  17.647 -0.01 +0.00    +0.285 C  
DOCKED: ATOM     17  C   UNL     1     -35.212 -12.614  18.478 -0.06 +0.00    +0.285 C  
DOCKED: ENDBRANCH  14  15
DOCKED: ENDBRANCH  13  14
DOCKED: ENDBRANCH  12  13
DOCKED: ENDBRANCH   2  12
DOCKED: BRANCH   2  18
DOCKED: ATOM     18  C   UNL     1     -35.559 -11.384  14.219 -0.20 +0.00    +0.006 A  
DOCKED: ATOM     19  C   UNL     1     -35.577  -9.993  14.121 -0.14 +0.00    +0.001 A  
DOCKED: ATOM     20  C   UNL     1     -34.379  -9.278  14.151 -0.10 +0.00    +0.029 A  
DOCKED: ATOM     21  C   UNL     1     -33.167  -9.954  14.278 -0.08 +0.00    +0.140 A  
DOCKED: ATOM     22  C   UNL     1     -33.150 -11.345  14.376 -0.16 +0.00    +0.029 A  
DOCKED: ATOM     23  F   UNL     1     -32.017  -9.267  14.308 -0.01 -0.00    -0.204 F  
DOCKED: ATOM     24  C   UNL     1     -34.347 -12.061  14.346 -0.15 +0.00    +0.001 A  
DOCKED: ENDBRANCH   2  18
DOCKED: TORSDOF 5
DOCKED: TER
DOCKED: ENDMDL
________________________________________________________________________________


    FINAL DOCKED STATE:
    ________________________


Run:   352 / 512
Time taken for this run:   0.002s

DOCKED: MODEL        352
DOCKED: USER    Run = 352
DOCKED: USER
DOCKED: USER    Estimated Free Energy of Binding    =  -4.06 kcal/mol  [=(1)+(2)+(3)-(4)]
DOCKED: USER
DOCKED: USER    (1) Final Intermolecular Energy     =  -5.55 kcal/mol
DOCKED: USER        vdW + Hbond + desolv Energy     =  -5.55 kcal/mol
DOCKED: USER        Electrostatic Energy            =  +0.00 kcal/mol
DOCKED: USER        Moving Ligand-Fixed Receptor    =  -5.55 kcal/mol
DOCKED: USER        Moving Ligand-Moving Receptor   =  +0.00 kcal/mol
DOCKED: USER    (2) Final Total Internal Energy     =  -1.08 kcal/mol
DOCKED: USER    (3) Torsional Free Energy           =  +1.49 kcal/mol
DOCKED: USER    (4) Unbound System's Energy         =  -1.08 kcal/mol
DOCKED: USER
DOCKED: USER
DOCKED: REMARK  5 active torsions:
DOCKED: REMARK  status: ('A' for Active; 'I' for Inactive)
DOCKED: REMARK    1  A    between atoms: C_2  and  C_19 
DOCKED: REMARK    2  A    between atoms: C_2  and  C_11 
DOCKED: REMARK    3  A    between atoms: C_19  and  C_20 
DOCKED: REMARK    4  A    between atoms: C_20  and  C_21 
DOCKED: REMARK    5  A    between atoms: C_21  and  N_22 
DOCKED: USER                              x       y       z     vdW  Elec       q    Type
DOCKED: USER                           _______ _______ _______ _____ _____    ______ ____
DOCKED: ROOT
DOCKED: ATOM      1  O   UNL     1     -32.804  -4.386   5.531 -0.02 -0.00    -0.346 OA 
DOCKED: ATOM      2  C   UNL     1     -32.108  -4.591   4.260 -0.06 +0.00    +0.130 C  
DOCKED: ATOM      3  C   UNL     1     -32.966  -3.873   3.260 -0.15 +0.00    +0.004 A  
DOCKED: ATOM      4  C   UNL     1     -34.001  -3.221   3.915 -0.24 +0.00    +0.006 A  
DOCKED: ATOM      5  C   UNL     1     -33.894  -3.448   5.374 -0.10 +0.00    +0.169 C  
DOCKED: ATOM      6  C   UNL     1     -32.836  -3.793   1.881 -0.16 -0.00    -0.001 A  
DOCKED: ATOM      7  C   UNL     1     -34.938  -2.475   3.220 -0.35 +0.00    +0.008 A  
DOCKED: ATOM      8  C   UNL     1     -33.775  -3.049   1.165 -0.21 +0.00    +0.010 A  
DOCKED: ATOM      9  C   UNL     1     -34.820  -2.393   1.832 -0.23 +0.00    +0.068 A  
DOCKED: ATOM     10  N   UNL     1     -36.544  -1.014   0.475 -2.56 -0.00    -0.191 NA 
DOCKED: ATOM     11  C   UNL     1     -35.771  -1.633   1.083 -0.34 +0.00    +0.101 C  
DOCKED: ENDROOT
DOCKED: BRANCH   2  12
DOCKED: ATOM     12  C   UNL     1     -30.708  -3.999   4.375 -0.03 +0.00    +0.038 C  
DOCKED: BRANCH  12  13
DOCKED: ATOM     13  C   UNL     1     -30.732  -2.480   4.220 -0.06 +0.00    +0.038 C  
DOCKED: BRANCH  13  14
DOCKED: ATOM     14  C   UNL     1     -30.991  -1.795   5.561 -0.09 +0.00    +0.251 C  
DOCKED: BRANCH  14  15
DOCKED: ATOM     15  N   UNL     1     -29.780  -1.136   6.036 -0.06 +0.00    +0.141 N  
DOCKED: ATOM     16  C   UNL     1     -29.152  -0.371   4.958 -0.01 +0.00    +0.285 C  
DOCKED: ATOM     17  C   UNL     1     -30.081  -0.260   7.170 -0.05 +0.00    +0.285 C  
DOCKED: ENDBRANCH  14  15
DOCKED: ENDBRANCH  13  14
DOCKED: ENDBRANCH  12  13
DOCKED: ENDBRANCH   2  12
DOCKED: BRANCH   2  18
DOCKED: ATOM     18  C   UNL     1     -32.051  -6.064   4.027 -0.07 +0.00    +0.006 A  
DOCKED: ATOM     19  C   UNL     1     -31.033  -6.822   4.602 -0.03 +0.00    +0.001 A  
DOCKED: ATOM     20  C   UNL     1     -30.981  -8.200   4.383 -0.07 +0.00    +0.029 A  
DOCKED: ATOM     21  C   UNL     1     -31.947  -8.816   3.590 -0.17 +0.00    +0.140 A  
DOCKED: ATOM     22  C   UNL     1     -32.966  -8.057   3.014 -0.24 +0.00    +0.029 A  
DOCKED: ATOM     23  F   UNL     1     -31.898 -10.138   3.381 -0.07 -0.00    -0.204 F  
DOCKED: ATOM     24  C   UNL     1     -33.018  -6.679   3.232 -0.20 +0.00    +0.001 A  
DOCKED: ENDBRANCH   2  18
DOCKED: TORSDOF 5
DOCKED: TER
DOCKED: ENDMDL
________________________________________________________________________________


    FINAL DOCKED STATE:
    ________________________


Run:   353 / 512
Time taken for this run:   0.002s

DOCKED: MODEL        353
DOCKED: USER    Run = 353
DOCKED: USER
DOCKED: USER    Estimated Free Energy of Binding    =  -2.91 kcal/mol  [=(1)+(2)+(3)-(4)]
DOCKED: USER
DOCKED: USER    (1) Final Intermolecular Energy     =  -4.40 kcal/mol
DOCKED: USER        vdW + Hbond + desolv Energy     =  -4.40 kcal/mol
DOCKED: USER        Electrostatic Energy            =  +0.00 kcal/mol
DOCKED: USER        Moving Ligand-Fixed Receptor    =  -4.40 kcal/mol
DOCKED: USER        Moving Ligand-Moving Receptor   =  +0.00 kcal/mol
DOCKED: USER    (2) Final Total Internal Energy     =  -1.33 kcal/mol
DOCKED: USER    (3) Torsional Free Energy           =  +1.49 kcal/mol
DOCKED: USER    (4) Unbound System's Energy         =  -1.33 kcal/mol
DOCKED: USER
DOCKED: USER
DOCKED: REMARK  5 active torsions:
DOCKED: REMARK  status: ('A' for Active; 'I' for Inactive)
DOCKED: REMARK    1  A    between atoms: C_2  and  C_19 
DOCKED: REMARK    2  A    between atoms: C_2  and  C_11 
DOCKED: REMARK    3  A    between atoms: C_19  and  C_20 
DOCKED: REMARK    4  A    between atoms: C_20  and  C_21 
DOCKED: REMARK    5  A    between atoms: C_21  and  N_22 
DOCKED: USER                              x       y       z     vdW  Elec       q    Type
DOCKED: USER                           _______ _______ _______ _____ _____    ______ ____
DOCKED: ROOT
DOCKED: ATOM      1  O   UNL     1     -33.955 -11.194  16.124 -0.04 -0.00    -0.346 OA 
DOCKED: ATOM      2  C   UNL     1     -34.338 -10.430  14.936 -0.11 +0.00    +0.130 C  
DOCKED: ATOM      3  C   UNL     1     -35.503 -11.194  14.377 -0.19 +0.00    +0.004 A  
DOCKED: ATOM      4  C   UNL     1     -35.829 -12.239  15.230 -0.15 +0.00    +0.006 A  
DOCKED: ATOM      5  C   UNL     1     -34.924 -12.232  16.402 -0.06 +0.00    +0.169 C  
DOCKED: ATOM      6  C   UNL     1     -36.225 -10.975  13.213 -0.13 -0.00    -0.001 A  
DOCKED: ATOM      7  C   UNL     1     -36.877 -13.099  14.950 -0.18 +0.00    +0.008 A  
DOCKED: ATOM      8  C   UNL     1     -37.282 -11.836  12.914 -0.29 +0.00    +0.010 A  
DOCKED: ATOM      9  C   UNL     1     -37.607 -12.892  13.778 -0.24 +0.00    +0.068 A  
DOCKED: ATOM     10  N   UNL     1     -39.578 -14.468  13.196 -1.93 -0.00    -0.191 NA 
DOCKED: ATOM     11  C   UNL     1     -38.694 -13.762  13.457 -0.19 +0.00    +0.101 C  
DOCKED: ENDROOT
DOCKED: BRANCH   2  12
DOCKED: ATOM     12  C   UNL     1     -34.708  -9.017  15.369 -0.05 +0.00    +0.038 C  
DOCKED: BRANCH  12  13
DOCKED: ATOM     13  C   UNL     1     -36.177  -8.925  15.776 -0.03 +0.00    +0.038 C  
DOCKED: BRANCH  13  14
DOCKED: ATOM     14  C   UNL     1     -36.931  -7.932  14.893 -0.02 +0.00    +0.251 C  
DOCKED: BRANCH  14  15
DOCKED: ATOM     15  N   UNL     1     -36.183  -7.673  13.668 -0.06 +0.00    +0.141 N  
DOCKED: ATOM     16  C   UNL     1     -37.050  -7.807  12.496 -0.11 +0.00    +0.285 C  
DOCKED: ATOM     17  C   UNL     1     -35.581  -6.339  13.704 -0.02 +0.00    +0.285 C  
DOCKED: ENDBRANCH  14  15
DOCKED: ENDBRANCH  13  14
DOCKED: ENDBRANCH  12  13
DOCKED: ENDBRANCH   2  12
DOCKED: BRANCH   2  18
DOCKED: ATOM     18  C   UNL     1     -33.157 -10.422  14.023 -0.12 +0.00    +0.006 A  
DOCKED: ATOM     19  C   UNL     1     -32.167 -11.395  14.156 -0.15 +0.00    +0.001 A  
DOCKED: ATOM     20  C   UNL     1     -31.063 -11.386  13.303 -0.13 +0.00    +0.029 A  
DOCKED: ATOM     21  C   UNL     1     -30.951 -10.405  12.318 -0.08 +0.00    +0.140 A  
DOCKED: ATOM     22  C   UNL     1     -31.941  -9.433  12.186 -0.09 +0.00    +0.029 A  
DOCKED: ATOM     23  F   UNL     1     -29.892 -10.398  11.498 -0.01 -0.00    -0.204 F  
DOCKED: ATOM     24  C   UNL     1     -33.046  -9.440  13.039 -0.03 +0.00    +0.001 A  
DOCKED: ENDBRANCH   2  18
DOCKED: TORSDOF 5
DOCKED: TER
DOCKED: ENDMDL
________________________________________________________________________________


    FINAL DOCKED STATE:
    ________________________


Run:   354 / 512
Time taken for this run:   0.002s

DOCKED: MODEL        354
DOCKED: USER    Run = 354
DOCKED: USER
DOCKED: USER    Estimated Free Energy of Binding    =  -3.76 kcal/mol  [=(1)+(2)+(3)-(4)]
DOCKED: USER
DOCKED: USER    (1) Final Intermolecular Energy     =  -5.26 kcal/mol
DOCKED: USER        vdW + Hbond + desolv Energy     =  -5.26 kcal/mol
DOCKED: USER        Electrostatic Energy            =  +0.00 kcal/mol
DOCKED: USER        Moving Ligand-Fixed Receptor    =  -5.26 kcal/mol
DOCKED: USER        Moving Ligand-Moving Receptor   =  +0.00 kcal/mol
DOCKED: USER    (2) Final Total Internal Energy     =  -1.56 kcal/mol
DOCKED: USER    (3) Torsional Free Energy           =  +1.49 kcal/mol
DOCKED: USER    (4) Unbound System's Energy         =  -1.56 kcal/mol
DOCKED: USER
DOCKED: USER
DOCKED: REMARK  5 active torsions:
DOCKED: REMARK  status: ('A' for Active; 'I' for Inactive)
DOCKED: REMARK    1  A    between atoms: C_2  and  C_19 
DOCKED: REMARK    2  A    between atoms: C_2  and  C_11 
DOCKED: REMARK    3  A    between atoms: C_19  and  C_20 
DOCKED: REMARK    4  A    between atoms: C_20  and  C_21 
DOCKED: REMARK    5  A    between atoms: C_21  and  N_22 
DOCKED: USER                              x       y       z     vdW  Elec       q    Type
DOCKED: USER                           _______ _______ _______ _____ _____    ______ ____
DOCKED: ROOT
DOCKED: ATOM      1  O   UNL     1     -33.656  -4.567   6.640 -0.05 -0.00    -0.346 OA 
DOCKED: ATOM      2  C   UNL     1     -35.051  -4.610   6.199 -0.24 +0.00    +0.130 C  
DOCKED: ATOM      3  C   UNL     1     -35.086  -3.669   5.029 -0.29 +0.00    +0.004 A  
DOCKED: ATOM      4  C   UNL     1     -33.804  -3.214   4.757 -0.17 +0.00    +0.006 A  
DOCKED: ATOM      5  C   UNL     1     -32.843  -3.822   5.704 -0.12 +0.00    +0.169 C  
DOCKED: ATOM      6  C   UNL     1     -36.166  -3.257   4.261 -0.29 -0.00    -0.001 A  
DOCKED: ATOM      7  C   UNL     1     -33.557  -2.334   3.717 -0.21 +0.00    +0.008 A  
DOCKED: ATOM      8  C   UNL     1     -35.934  -2.367   3.211 -0.40 +0.00    +0.010 A  
DOCKED: ATOM      9  C   UNL     1     -34.636  -1.908   2.940 -0.31 +0.00    +0.068 A  
DOCKED: ATOM     10  N   UNL     1     -34.240  -0.259   0.981 -0.79 -0.00    -0.191 NA 
DOCKED: ATOM     11  C   UNL     1     -34.418  -0.998   1.860 -0.38 +0.00    +0.101 C  
DOCKED: ENDROOT
DOCKED: BRANCH   2  12
DOCKED: ATOM     12  C   UNL     1     -35.392  -6.045   5.816 -0.12 +0.00    +0.038 C  
DOCKED: BRANCH  12  13
DOCKED: ATOM     13  C   UNL     1     -34.345  -7.025   6.341 -0.21 +0.00    +0.038 C  
DOCKED: BRANCH  13  14
DOCKED: ATOM     14  C   UNL     1     -34.661  -7.452   7.773 -0.14 +0.00    +0.251 C  
DOCKED: BRANCH  14  15
DOCKED: ATOM     15  N   UNL     1     -33.857  -6.688   8.719 -0.07 +0.00    +0.141 N  
DOCKED: ATOM     16  C   UNL     1     -34.253  -6.991  10.095 -0.08 +0.00    +0.285 C  
DOCKED: ATOM     17  C   UNL     1     -32.432  -6.967   8.528 -0.02 +0.00    +0.285 C  
DOCKED: ENDBRANCH  14  15
DOCKED: ENDBRANCH  13  14
DOCKED: ENDBRANCH  12  13
DOCKED: ENDBRANCH   2  12
DOCKED: BRANCH   2  18
DOCKED: ATOM     18  C   UNL     1     -35.885  -4.145   7.345 -0.27 +0.00    +0.006 A  
DOCKED: ATOM     19  C   UNL     1     -35.336  -3.302   8.310 -0.22 +0.00    +0.001 A  
DOCKED: ATOM     20  C   UNL     1     -36.118  -2.869   9.382 -0.21 +0.00    +0.029 A  
DOCKED: ATOM     21  C   UNL     1     -37.446  -3.277   9.486 -0.13 +0.00    +0.140 A  
DOCKED: ATOM     22  C   UNL     1     -37.995  -4.120   8.520 -0.25 +0.00    +0.029 A  
DOCKED: ATOM     23  F   UNL     1     -38.197  -2.860  10.514 +0.00 -0.00    -0.204 F  
DOCKED: ATOM     24  C   UNL     1     -37.214  -4.555   7.448 -0.26 +0.00    +0.001 A  
DOCKED: ENDBRANCH   2  18
DOCKED: TORSDOF 5
DOCKED: TER
DOCKED: ENDMDL
________________________________________________________________________________


    FINAL DOCKED STATE:
    ________________________


Run:   355 / 512
Time taken for this run:   0.002s

DOCKED: MODEL        355
DOCKED: USER    Run = 355
DOCKED: USER
DOCKED: USER    Estimated Free Energy of Binding    =  -3.63 kcal/mol  [=(1)+(2)+(3)-(4)]
DOCKED: USER
DOCKED: USER    (1) Final Intermolecular Energy     =  -5.12 kcal/mol
DOCKED: USER        vdW + Hbond + desolv Energy     =  -5.12 kcal/mol
DOCKED: USER        Electrostatic Energy            =  +0.00 kcal/mol
DOCKED: USER        Moving Ligand-Fixed Receptor    =  -5.12 kcal/mol
DOCKED: USER        Moving Ligand-Moving Receptor   =  +0.00 kcal/mol
DOCKED: USER    (2) Final Total Internal Energy     =  -1.48 kcal/mol
DOCKED: USER    (3) Torsional Free Energy           =  +1.49 kcal/mol
DOCKED: USER    (4) Unbound System's Energy         =  -1.48 kcal/mol
DOCKED: USER
DOCKED: USER
DOCKED: REMARK  5 active torsions:
DOCKED: REMARK  status: ('A' for Active; 'I' for Inactive)
DOCKED: REMARK    1  A    between atoms: C_2  and  C_19 
DOCKED: REMARK    2  A    between atoms: C_2  and  C_11 
DOCKED: REMARK    3  A    between atoms: C_19  and  C_20 
DOCKED: REMARK    4  A    between atoms: C_20  and  C_21 
DOCKED: REMARK    5  A    between atoms: C_21  and  N_22 
DOCKED: USER                              x       y       z     vdW  Elec       q    Type
DOCKED: USER                           _______ _______ _______ _____ _____    ______ ____
DOCKED: ROOT
DOCKED: ATOM      1  O   UNL     1     -30.102   0.313   1.266 -0.03 -0.00    -0.346 OA 
DOCKED: ATOM      2  C   UNL     1     -30.603   0.418   2.637 -0.09 +0.00    +0.130 C  
DOCKED: ATOM      3  C   UNL     1     -32.036  -0.015   2.531 -0.07 +0.00    +0.004 A  
DOCKED: ATOM      4  C   UNL     1     -32.302  -0.436   1.236 -0.17 +0.00    +0.006 A  
DOCKED: ATOM      5  C   UNL     1     -31.078  -0.325   0.410 -0.10 +0.00    +0.169 C  
DOCKED: ATOM      6  C   UNL     1     -33.023  -0.045   3.505 -0.21 -0.00    -0.001 A  
DOCKED: ATOM      7  C   UNL     1     -33.556  -0.895   0.870 -0.29 +0.00    +0.008 A  
DOCKED: ATOM      8  C   UNL     1     -34.294  -0.500   3.151 -0.24 +0.00    +0.010 A  
DOCKED: ATOM      9  C   UNL     1     -34.559  -0.924   1.840 -0.35 +0.00    +0.068 A  
DOCKED: ATOM     10  N   UNL     1     -36.928  -1.768   1.217 -2.51 -0.00    -0.191 NA 
DOCKED: ATOM     11  C   UNL     1     -35.865  -1.389   1.496 -0.41 +0.00    +0.101 C  
DOCKED: ENDROOT
DOCKED: BRANCH   2  12
DOCKED: ATOM     12  C   UNL     1     -29.771  -0.498   3.527 -0.04 +0.00    +0.038 C  
DOCKED: BRANCH  12  13
DOCKED: ATOM     13  C   UNL     1     -29.706  -1.915   2.961 -0.02 +0.00    +0.038 C  
DOCKED: BRANCH  13  14
DOCKED: ATOM     14  C   UNL     1     -30.620  -2.860   3.740 -0.01 +0.00    +0.251 C  
DOCKED: BRANCH  14  15
DOCKED: ATOM     15  N   UNL     1     -31.776  -3.230   2.932 -0.04 +0.00    +0.141 N  
DOCKED: ATOM     16  C   UNL     1     -31.352  -3.907   1.705 -0.02 +0.00    +0.285 C  
DOCKED: ATOM     17  C   UNL     1     -32.687  -4.084   3.695 -0.07 +0.00    +0.285 C  
DOCKED: ENDBRANCH  14  15
DOCKED: ENDBRANCH  13  14
DOCKED: ENDBRANCH  12  13
DOCKED: ENDBRANCH   2  12
DOCKED: BRANCH   2  18
DOCKED: ATOM     18  C   UNL     1     -30.455   1.845   3.048 -0.11 +0.00    +0.006 A  
DOCKED: ATOM     19  C   UNL     1     -30.936   2.267   4.287 -0.11 +0.00    +0.001 A  
DOCKED: ATOM     20  C   UNL     1     -30.798   3.602   4.669 -0.06 +0.00    +0.029 A  
DOCKED: ATOM     21  C   UNL     1     -30.180   4.512   3.812 -0.03 +0.00    +0.140 A  
DOCKED: ATOM     22  C   UNL     1     -29.699   4.089   2.573 -0.06 +0.00    +0.029 A  
DOCKED: ATOM     23  F   UNL     1     -30.045   5.793   4.180 +0.00 -0.00    -0.204 F  
DOCKED: ATOM     24  C   UNL     1     -29.837   2.754   2.190 -0.09 +0.00    +0.001 A  
DOCKED: ENDBRANCH   2  18
DOCKED: TORSDOF 5
DOCKED: TER
DOCKED: ENDMDL
________________________________________________________________________________


    FINAL DOCKED STATE:
    ________________________


Run:   356 / 512
Time taken for this run:   0.002s

DOCKED: MODEL        356
DOCKED: USER    Run = 356
DOCKED: USER
DOCKED: USER    Estimated Free Energy of Binding    =  -4.36 kcal/mol  [=(1)+(2)+(3)-(4)]
DOCKED: USER
DOCKED: USER    (1) Final Intermolecular Energy     =  -5.85 kcal/mol
DOCKED: USER        vdW + Hbond + desolv Energy     =  -5.85 kcal/mol
DOCKED: USER        Electrostatic Energy            =  +0.00 kcal/mol
DOCKED: USER        Moving Ligand-Fixed Receptor    =  -5.85 kcal/mol
DOCKED: USER        Moving Ligand-Moving Receptor   =  +0.00 kcal/mol
DOCKED: USER    (2) Final Total Internal Energy     =  -1.41 kcal/mol
DOCKED: USER    (3) Torsional Free Energy           =  +1.49 kcal/mol
DOCKED: USER    (4) Unbound System's Energy         =  -1.41 kcal/mol
DOCKED: USER
DOCKED: USER
DOCKED: REMARK  5 active torsions:
DOCKED: REMARK  status: ('A' for Active; 'I' for Inactive)
DOCKED: REMARK    1  A    between atoms: C_2  and  C_19 
DOCKED: REMARK    2  A    between atoms: C_2  and  C_11 
DOCKED: REMARK    3  A    between atoms: C_19  and  C_20 
DOCKED: REMARK    4  A    between atoms: C_20  and  C_21 
DOCKED: REMARK    5  A    between atoms: C_21  and  N_22 
DOCKED: USER                              x       y       z     vdW  Elec       q    Type
DOCKED: USER                           _______ _______ _______ _____ _____    ______ ____
DOCKED: ROOT
DOCKED: ATOM      1  O   UNL     1     -34.763 -10.528  14.722 -0.07 -0.00    -0.346 OA 
DOCKED: ATOM      2  C   UNL     1     -35.604  -9.646  13.911 -0.13 +0.00    +0.130 C  
DOCKED: ATOM      3  C   UNL     1     -36.554 -10.585  13.226 -0.22 +0.00    +0.004 A  
DOCKED: ATOM      4  C   UNL     1     -36.348 -11.877  13.689 -0.25 +0.00    +0.006 A  
DOCKED: ATOM      5  C   UNL     1     -35.273 -11.881  14.706 -0.17 +0.00    +0.169 C  
DOCKED: ATOM      6  C   UNL     1     -37.531 -10.315  12.279 -0.27 -0.00    -0.001 A  
DOCKED: ATOM      7  C   UNL     1     -37.103 -12.939  13.220 -0.34 +0.00    +0.008 A  
DOCKED: ATOM      8  C   UNL     1     -38.297 -11.376  11.793 -0.33 +0.00    +0.010 A  
DOCKED: ATOM      9  C   UNL     1     -38.085 -12.681  12.262 -0.31 +0.00    +0.068 A  
DOCKED: ATOM     10  N   UNL     1     -39.529 -14.626  11.344 -2.56 -0.00    -0.191 NA 
DOCKED: ATOM     11  C   UNL     1     -38.880 -13.754  11.755 -0.37 +0.00    +0.101 C  
DOCKED: ENDROOT
DOCKED: BRANCH   2  12
DOCKED: ATOM     12  C   UNL     1     -36.306  -8.662  14.839 -0.06 +0.00    +0.038 C  
DOCKED: BRANCH  12  13
DOCKED: ATOM     13  C   UNL     1     -37.704  -9.151  15.214 -0.05 +0.00    +0.038 C  
DOCKED: BRANCH  13  14
DOCKED: ATOM     14  C   UNL     1     -37.710  -9.787  16.603 -0.01 +0.00    +0.251 C  
DOCKED: BRANCH  14  15
DOCKED: ATOM     15  N   UNL     1     -38.683 -10.870  16.661 -0.02 +0.00    +0.141 N  
DOCKED: ATOM     16  C   UNL     1     -39.605 -10.798  15.526 -0.01 +0.00    +0.285 C  
DOCKED: ATOM     17  C   UNL     1     -38.008 -12.169  16.684 -0.04 +0.00    +0.285 C  
DOCKED: ENDBRANCH  14  15
DOCKED: ENDBRANCH  13  14
DOCKED: ENDBRANCH  12  13
DOCKED: ENDBRANCH   2  12
DOCKED: BRANCH   2  18
DOCKED: ATOM     18  C   UNL     1     -34.700  -8.936  12.959 -0.12 +0.00    +0.006 A  
DOCKED: ATOM     19  C   UNL     1     -33.322  -9.140  13.023 -0.08 +0.00    +0.001 A  
DOCKED: ATOM     20  C   UNL     1     -32.479  -8.475  12.132 -0.10 +0.00    +0.029 A  
DOCKED: ATOM     21  C   UNL     1     -33.013  -7.610  11.178 -0.08 +0.00    +0.140 A  
DOCKED: ATOM     22  C   UNL     1     -34.392  -7.407  11.115 -0.13 +0.00    +0.029 A  
DOCKED: ATOM     23  F   UNL     1     -32.204  -6.973  10.322 -0.00 -0.00    -0.204 F  
DOCKED: ATOM     24  C   UNL     1     -35.237  -8.071  12.006 -0.16 +0.00    +0.001 A  
DOCKED: ENDBRANCH   2  18
DOCKED: TORSDOF 5
DOCKED: TER
DOCKED: ENDMDL
________________________________________________________________________________


    FINAL DOCKED STATE:
    ________________________


Run:   357 / 512
Time taken for this run:   0.002s

DOCKED: MODEL        357
DOCKED: USER    Run = 357
DOCKED: USER
DOCKED: USER    Estimated Free Energy of Binding    =  -4.29 kcal/mol  [=(1)+(2)+(3)-(4)]
DOCKED: USER
DOCKED: USER    (1) Final Intermolecular Energy     =  -5.78 kcal/mol
DOCKED: USER        vdW + Hbond + desolv Energy     =  -5.78 kcal/mol
DOCKED: USER        Electrostatic Energy            =  +0.00 kcal/mol
DOCKED: USER        Moving Ligand-Fixed Receptor    =  -5.78 kcal/mol
DOCKED: USER        Moving Ligand-Moving Receptor   =  +0.00 kcal/mol
DOCKED: USER    (2) Final Total Internal Energy     =  -1.26 kcal/mol
DOCKED: USER    (3) Torsional Free Energy           =  +1.49 kcal/mol
DOCKED: USER    (4) Unbound System's Energy         =  -1.26 kcal/mol
DOCKED: USER
DOCKED: USER
DOCKED: REMARK  5 active torsions:
DOCKED: REMARK  status: ('A' for Active; 'I' for Inactive)
DOCKED: REMARK    1  A    between atoms: C_2  and  C_19 
DOCKED: REMARK    2  A    between atoms: C_2  and  C_11 
DOCKED: REMARK    3  A    between atoms: C_19  and  C_20 
DOCKED: REMARK    4  A    between atoms: C_20  and  C_21 
DOCKED: REMARK    5  A    between atoms: C_21  and  N_22 
DOCKED: USER                              x       y       z     vdW  Elec       q    Type
DOCKED: USER                           _______ _______ _______ _____ _____    ______ ____
DOCKED: ROOT
DOCKED: ATOM      1  O   UNL     1     -34.417 -10.801  14.567 -0.09 -0.00    -0.346 OA 
DOCKED: ATOM      2  C   UNL     1     -35.549  -9.902  14.338 -0.12 +0.00    +0.130 C  
DOCKED: ATOM      3  C   UNL     1     -36.561 -10.767  13.644 -0.21 +0.00    +0.004 A  
DOCKED: ATOM      4  C   UNL     1     -36.095 -12.073  13.582 -0.23 +0.00    +0.006 A  
DOCKED: ATOM      5  C   UNL     1     -34.768 -12.164  14.232 -0.06 +0.00    +0.169 C  
DOCKED: ATOM      6  C   UNL     1     -37.800 -10.429  13.121 -0.24 -0.00    -0.001 A  
DOCKED: ATOM      7  C   UNL     1     -36.844 -13.078  12.995 -0.35 +0.00    +0.008 A  
DOCKED: ATOM      8  C   UNL     1     -38.565 -11.430  12.521 -0.29 +0.00    +0.010 A  
DOCKED: ATOM      9  C   UNL     1     -38.089 -12.748  12.459 -0.30 +0.00    +0.068 A  
DOCKED: ATOM     10  N   UNL     1     -39.537 -14.585  11.344 -2.56 -0.00    -0.191 NA 
DOCKED: ATOM     11  C   UNL     1     -38.887 -13.761  11.843 -0.35 +0.00    +0.101 C  
DOCKED: ENDROOT
DOCKED: BRANCH   2  12
DOCKED: ATOM     12  C   UNL     1     -36.035  -9.384  15.686 -0.04 +0.00    +0.038 C  
DOCKED: BRANCH  12  13
DOCKED: ATOM     13  C   UNL     1     -36.795 -10.462  16.456 -0.05 +0.00    +0.038 C  
DOCKED: BRANCH  13  14
DOCKED: ATOM     14  C   UNL     1     -35.857 -11.251  17.367 -0.03 +0.00    +0.251 C  
DOCKED: BRANCH  14  15
DOCKED: ATOM     15  N   UNL     1     -35.996 -12.682  17.122 -0.10 +0.00    +0.141 N  
DOCKED: ATOM     16  C   UNL     1     -35.398 -13.453  18.212 -0.10 +0.00    +0.285 C  
DOCKED: ATOM     17  C   UNL     1     -37.406 -13.042  16.959 -0.10 +0.00    +0.285 C  
DOCKED: ENDBRANCH  14  15
DOCKED: ENDBRANCH  13  14
DOCKED: ENDBRANCH  12  13
DOCKED: ENDBRANCH   2  12
DOCKED: BRANCH   2  18
DOCKED: ATOM     18  C   UNL     1     -35.052  -8.786  13.480 -0.12 +0.00    +0.006 A  
DOCKED: ATOM     19  C   UNL     1     -34.044  -7.944  13.946 -0.06 +0.00    +0.001 A  
DOCKED: ATOM     20  C   UNL     1     -33.581  -6.901  13.143 -0.04 +0.00    +0.029 A  
DOCKED: ATOM     21  C   UNL     1     -34.126  -6.703  11.875 -0.06 +0.00    +0.140 A  
DOCKED: ATOM     22  C   UNL     1     -35.134  -7.546  11.409 -0.13 +0.00    +0.029 A  
DOCKED: ATOM     23  F   UNL     1     -33.680  -5.703  11.104 -0.00 -0.00    -0.204 F  
DOCKED: ATOM     24  C   UNL     1     -35.598  -8.589  12.212 -0.16 +0.00    +0.001 A  
DOCKED: ENDBRANCH   2  18
DOCKED: TORSDOF 5
DOCKED: TER
DOCKED: ENDMDL
________________________________________________________________________________


    FINAL DOCKED STATE:
    ________________________


Run:   358 / 512
Time taken for this run:   0.002s

DOCKED: MODEL        358
DOCKED: USER    Run = 358
DOCKED: USER
DOCKED: USER    Estimated Free Energy of Binding    =  -4.22 kcal/mol  [=(1)+(2)+(3)-(4)]
DOCKED: USER
DOCKED: USER    (1) Final Intermolecular Energy     =  -5.71 kcal/mol
DOCKED: USER        vdW + Hbond + desolv Energy     =  -5.71 kcal/mol
DOCKED: USER        Electrostatic Energy            =  +0.00 kcal/mol
DOCKED: USER        Moving Ligand-Fixed Receptor    =  -5.71 kcal/mol
DOCKED: USER        Moving Ligand-Moving Receptor   =  +0.00 kcal/mol
DOCKED: USER    (2) Final Total Internal Energy     =  -1.21 kcal/mol
DOCKED: USER    (3) Torsional Free Energy           =  +1.49 kcal/mol
DOCKED: USER    (4) Unbound System's Energy         =  -1.21 kcal/mol
DOCKED: USER
DOCKED: USER
DOCKED: REMARK  5 active torsions:
DOCKED: REMARK  status: ('A' for Active; 'I' for Inactive)
DOCKED: REMARK    1  A    between atoms: C_2  and  C_19 
DOCKED: REMARK    2  A    between atoms: C_2  and  C_11 
DOCKED: REMARK    3  A    between atoms: C_19  and  C_20 
DOCKED: REMARK    4  A    between atoms: C_20  and  C_21 
DOCKED: REMARK    5  A    between atoms: C_21  and  N_22 
DOCKED: USER                              x       y       z     vdW  Elec       q    Type
DOCKED: USER                           _______ _______ _______ _____ _____    ______ ____
DOCKED: ROOT
DOCKED: ATOM      1  O   UNL     1     -37.105  -8.191  12.770 -0.08 -0.00    -0.346 OA 
DOCKED: ATOM      2  C   UNL     1     -38.284  -8.456  13.595 -0.13 +0.00    +0.130 C  
DOCKED: ATOM      3  C   UNL     1     -38.679  -9.855  13.218 -0.21 +0.00    +0.004 A  
DOCKED: ATOM      4  C   UNL     1     -37.744 -10.383  12.339 -0.28 +0.00    +0.006 A  
DOCKED: ATOM      5  C   UNL     1     -36.675  -9.391  12.087 -0.08 +0.00    +0.169 C  
DOCKED: ATOM      6  C   UNL     1     -39.772 -10.603  13.629 -0.16 -0.00    -0.001 A  
DOCKED: ATOM      7  C   UNL     1     -37.870 -11.668  11.839 -0.33 +0.00    +0.008 A  
DOCKED: ATOM      8  C   UNL     1     -39.916 -11.900  13.131 -0.20 +0.00    +0.010 A  
DOCKED: ATOM      9  C   UNL     1     -38.969 -12.429  12.241 -0.26 +0.00    +0.068 A  
DOCKED: ATOM     10  N   UNL     1     -39.263 -14.840  11.339 -2.58 -0.00    -0.191 NA 
DOCKED: ATOM     11  C   UNL     1     -39.132 -13.759  11.743 -0.37 +0.00    +0.101 C  
DOCKED: ENDROOT
DOCKED: BRANCH   2  12
DOCKED: ATOM     12  C   UNL     1     -37.888  -8.326  15.061 -0.04 +0.00    +0.038 C  
DOCKED: BRANCH  12  13
DOCKED: ATOM     13  C   UNL     1     -36.676  -7.412  15.231 -0.03 +0.00    +0.038 C  
DOCKED: BRANCH  13  14
DOCKED: ATOM     14  C   UNL     1     -35.708  -7.972  16.272 -0.00 +0.00    +0.251 C  
DOCKED: BRANCH  14  15
DOCKED: ATOM     15  N   UNL     1     -35.294  -9.321  15.905 -0.02 +0.00    +0.141 N  
DOCKED: ATOM     16  C   UNL     1     -34.627  -9.320  14.602 -0.06 +0.00    +0.285 C  
DOCKED: ATOM     17  C   UNL     1     -34.409  -9.884  16.927 -0.01 +0.00    +0.285 C  
DOCKED: ENDBRANCH  14  15
DOCKED: ENDBRANCH  13  14
DOCKED: ENDBRANCH  12  13
DOCKED: ENDBRANCH   2  12
DOCKED: BRANCH   2  18
DOCKED: ATOM     18  C   UNL     1     -39.313  -7.441  13.223 -0.18 +0.00    +0.006 A  
DOCKED: ATOM     19  C   UNL     1     -39.055  -6.529  12.200 -0.18 +0.00    +0.001 A  
DOCKED: ATOM     20  C   UNL     1     -40.018  -5.581  11.854 -0.16 +0.00    +0.029 A  
DOCKED: ATOM     21  C   UNL     1     -41.237  -5.545  12.530 -0.11 +0.00    +0.140 A  
DOCKED: ATOM     22  C   UNL     1     -41.494  -6.458  13.553 -0.11 +0.00    +0.029 A  
DOCKED: ATOM     23  F   UNL     1     -42.161  -4.635  12.196 -0.00 -0.00    -0.204 F  
DOCKED: ATOM     24  C   UNL     1     -40.532  -7.407  13.900 -0.12 +0.00    +0.001 A  
DOCKED: ENDBRANCH   2  18
DOCKED: TORSDOF 5
DOCKED: TER
DOCKED: ENDMDL
________________________________________________________________________________


    FINAL DOCKED STATE:
    ________________________


Run:   359 / 512
Time taken for this run:   0.002s

DOCKED: MODEL        359
DOCKED: USER    Run = 359
DOCKED: USER
DOCKED: USER    Estimated Free Energy of Binding    =  -4.23 kcal/mol  [=(1)+(2)+(3)-(4)]
DOCKED: USER
DOCKED: USER    (1) Final Intermolecular Energy     =  -5.72 kcal/mol
DOCKED: USER        vdW + Hbond + desolv Energy     =  -5.72 kcal/mol
DOCKED: USER        Electrostatic Energy            =  +0.00 kcal/mol
DOCKED: USER        Moving Ligand-Fixed Receptor    =  -5.72 kcal/mol
DOCKED: USER        Moving Ligand-Moving Receptor   =  +0.00 kcal/mol
DOCKED: USER    (2) Final Total Internal Energy     =  -1.34 kcal/mol
DOCKED: USER    (3) Torsional Free Energy           =  +1.49 kcal/mol
DOCKED: USER    (4) Unbound System's Energy         =  -1.34 kcal/mol
DOCKED: USER
DOCKED: USER
DOCKED: REMARK  5 active torsions:
DOCKED: REMARK  status: ('A' for Active; 'I' for Inactive)
DOCKED: REMARK    1  A    between atoms: C_2  and  C_19 
DOCKED: REMARK    2  A    between atoms: C_2  and  C_11 
DOCKED: REMARK    3  A    between atoms: C_19  and  C_20 
DOCKED: REMARK    4  A    between atoms: C_20  and  C_21 
DOCKED: REMARK    5  A    between atoms: C_21  and  N_22 
DOCKED: USER                              x       y       z     vdW  Elec       q    Type
DOCKED: USER                           _______ _______ _______ _____ _____    ______ ____
DOCKED: ROOT
DOCKED: ATOM      1  O   UNL     1     -35.224 -10.367  14.802 -0.05 -0.00    -0.346 OA 
DOCKED: ATOM      2  C   UNL     1     -36.025  -9.573  13.869 -0.13 +0.00    +0.130 C  
DOCKED: ATOM      3  C   UNL     1     -36.857 -10.595  13.150 -0.23 +0.00    +0.004 A  
DOCKED: ATOM      4  C   UNL     1     -36.632 -11.850  13.698 -0.25 +0.00    +0.006 A  
DOCKED: ATOM      5  C   UNL     1     -35.662 -11.746  14.811 -0.16 +0.00    +0.169 C  
DOCKED: ATOM      6  C   UNL     1     -37.749 -10.427  12.101 -0.28 -0.00    -0.001 A  
DOCKED: ATOM      7  C   UNL     1     -37.284 -12.973  13.219 -0.34 +0.00    +0.008 A  
DOCKED: ATOM      8  C   UNL     1     -38.411 -11.550  11.603 -0.34 +0.00    +0.010 A  
DOCKED: ATOM      9  C   UNL     1     -38.180 -12.817  12.160 -0.32 +0.00    +0.068 A  
DOCKED: ATOM     10  N   UNL     1     -39.429 -14.881  11.216 -2.50 -0.00    -0.191 NA 
DOCKED: ATOM     11  C   UNL     1     -38.868 -13.956  11.639 -0.31 +0.00    +0.101 C  
DOCKED: ENDROOT
DOCKED: BRANCH   2  12
DOCKED: ATOM     12  C   UNL     1     -36.863  -8.585  14.672 -0.06 +0.00    +0.038 C  
DOCKED: BRANCH  12  13
DOCKED: ATOM     13  C   UNL     1     -36.107  -8.085  15.902 -0.02 +0.00    +0.038 C  
DOCKED: BRANCH  13  14
DOCKED: ATOM     14  C   UNL     1     -36.737  -8.616  17.188 -0.00 +0.00    +0.251 C  
DOCKED: BRANCH  14  15
DOCKED: ATOM     15  N   UNL     1     -36.186  -9.925  17.519 -0.01 +0.00    +0.141 N  
DOCKED: ATOM     16  C   UNL     1     -35.281  -9.829  18.665 -0.00 +0.00    +0.285 C  
DOCKED: ATOM     17  C   UNL     1     -37.259 -10.881  17.798 -0.01 +0.00    +0.285 C  
DOCKED: ENDBRANCH  14  15
DOCKED: ENDBRANCH  13  14
DOCKED: ENDBRANCH  12  13
DOCKED: ENDBRANCH   2  12
DOCKED: BRANCH   2  18
DOCKED: ATOM     18  C   UNL     1     -35.070  -8.862  12.969 -0.14 +0.00    +0.006 A  
DOCKED: ATOM     19  C   UNL     1     -33.698  -9.058  13.115 -0.09 +0.00    +0.001 A  
DOCKED: ATOM     20  C   UNL     1     -32.806  -8.393  12.273 -0.10 +0.00    +0.029 A  
DOCKED: ATOM     21  C   UNL     1     -33.288  -7.533  11.287 -0.08 +0.00    +0.140 A  
DOCKED: ATOM     22  C   UNL     1     -34.661  -7.338  11.141 -0.13 +0.00    +0.029 A  
DOCKED: ATOM     23  F   UNL     1     -32.432  -6.896  10.478 -0.00 -0.00    -0.204 F  
DOCKED: ATOM     24  C   UNL     1     -35.554  -8.003  11.983 -0.16 +0.00    +0.001 A  
DOCKED: ENDBRANCH   2  18
DOCKED: TORSDOF 5
DOCKED: TER
DOCKED: ENDMDL
________________________________________________________________________________


    FINAL DOCKED STATE:
    ________________________


Run:   360 / 512
Time taken for this run:   0.002s

DOCKED: MODEL        360
DOCKED: USER    Run = 360
DOCKED: USER
DOCKED: USER    Estimated Free Energy of Binding    =  -5.00 kcal/mol  [=(1)+(2)+(3)-(4)]
DOCKED: USER
DOCKED: USER    (1) Final Intermolecular Energy     =  -6.49 kcal/mol
DOCKED: USER        vdW + Hbond + desolv Energy     =  -6.49 kcal/mol
DOCKED: USER        Electrostatic Energy            =  +0.00 kcal/mol
DOCKED: USER        Moving Ligand-Fixed Receptor    =  -6.49 kcal/mol
DOCKED: USER        Moving Ligand-Moving Receptor   =  +0.00 kcal/mol
DOCKED: USER    (2) Final Total Internal Energy     =  -1.02 kcal/mol
DOCKED: USER    (3) Torsional Free Energy           =  +1.49 kcal/mol
DOCKED: USER    (4) Unbound System's Energy         =  -1.02 kcal/mol
DOCKED: USER
DOCKED: USER
DOCKED: REMARK  5 active torsions:
DOCKED: REMARK  status: ('A' for Active; 'I' for Inactive)
DOCKED: REMARK    1  A    between atoms: C_2  and  C_19 
DOCKED: REMARK    2  A    between atoms: C_2  and  C_11 
DOCKED: REMARK    3  A    between atoms: C_19  and  C_20 
DOCKED: REMARK    4  A    between atoms: C_20  and  C_21 
DOCKED: REMARK    5  A    between atoms: C_21  and  N_22 
DOCKED: USER                              x       y       z     vdW  Elec       q    Type
DOCKED: USER                           _______ _______ _______ _____ _____    ______ ____
DOCKED: ROOT
DOCKED: ATOM      1  O   UNL     1     -40.543 -11.393  14.132 -0.01 -0.00    -0.346 OA 
DOCKED: ATOM      2  C   UNL     1     -39.128 -11.236  13.792 -0.13 +0.00    +0.130 C  
DOCKED: ATOM      3  C   UNL     1     -39.032 -11.780  12.395 -0.28 +0.00    +0.004 A  
DOCKED: ATOM      4  C   UNL     1     -40.298 -12.115  11.936 -0.26 +0.00    +0.006 A  
DOCKED: ATOM      5  C   UNL     1     -41.306 -11.809  12.976 -0.17 +0.00    +0.169 C  
DOCKED: ATOM      6  C   UNL     1     -37.915 -11.954  11.592 -0.34 -0.00    -0.001 A  
DOCKED: ATOM      7  C   UNL     1     -40.490 -12.635  10.668 -0.26 +0.00    +0.008 A  
DOCKED: ATOM      8  C   UNL     1     -38.091 -12.482  10.312 -0.02 +0.00    +0.010 A  
DOCKED: ATOM      9  C   UNL     1     -39.373 -12.820   9.852 -0.37 +0.00    +0.068 A  
DOCKED: ATOM     10  N   UNL     1     -39.667 -13.793   7.469 -2.68 -0.00    -0.191 NA 
DOCKED: ATOM     11  C   UNL     1     -39.535 -13.358   8.538 -0.29 +0.00    +0.101 C  
DOCKED: ENDROOT
DOCKED: BRANCH   2  12
DOCKED: ATOM     12  C   UNL     1     -38.771  -9.757  13.878 -0.15 +0.00    +0.038 C  
DOCKED: BRANCH  12  13
DOCKED: ATOM     13  C   UNL     1     -39.990  -8.874  13.619 -0.19 +0.00    +0.038 C  
DOCKED: BRANCH  13  14
DOCKED: ATOM     14  C   UNL     1     -39.571  -7.449  13.263 -0.14 +0.00    +0.251 C  
DOCKED: BRANCH  14  15
DOCKED: ATOM     15  N   UNL     1     -40.740  -6.644  12.933 -0.14 +0.00    +0.141 N  
DOCKED: ATOM     16  C   UNL     1     -41.898  -7.499  12.667 -0.12 +0.00    +0.285 C  
DOCKED: ATOM     17  C   UNL     1     -41.041  -5.704  14.015 -0.02 +0.00    +0.285 C  
DOCKED: ENDBRANCH  14  15
DOCKED: ENDBRANCH  13  14
DOCKED: ENDBRANCH  12  13
DOCKED: ENDBRANCH   2  12
DOCKED: BRANCH   2  18
DOCKED: ATOM     18  C   UNL     1     -38.350 -12.037  14.782 -0.13 +0.00    +0.006 A  
DOCKED: ATOM     19  C   UNL     1     -37.910 -11.444  15.965 -0.07 +0.00    +0.001 A  
DOCKED: ATOM     20  C   UNL     1     -37.182 -12.194  16.890 -0.09 +0.00    +0.029 A  
DOCKED: ATOM     21  C   UNL     1     -36.897 -13.534  16.632 -0.12 +0.00    +0.140 A  
DOCKED: ATOM     22  C   UNL     1     -37.338 -14.126  15.449 -0.18 +0.00    +0.029 A  
DOCKED: ATOM     23  F   UNL     1     -36.200 -14.253  17.521 -0.07 -0.00    -0.204 F  
DOCKED: ATOM     24  C   UNL     1     -38.065 -13.377  14.522 -0.25 +0.00    +0.001 A  
DOCKED: ENDBRANCH   2  18
DOCKED: TORSDOF 5
DOCKED: TER
DOCKED: ENDMDL
________________________________________________________________________________


    FINAL DOCKED STATE:
    ________________________


Run:   361 / 512
Time taken for this run:   0.002s

DOCKED: MODEL        361
DOCKED: USER    Run = 361
DOCKED: USER
DOCKED: USER    Estimated Free Energy of Binding    =  -4.61 kcal/mol  [=(1)+(2)+(3)-(4)]
DOCKED: USER
DOCKED: USER    (1) Final Intermolecular Energy     =  -6.10 kcal/mol
DOCKED: USER        vdW + Hbond + desolv Energy     =  -6.10 kcal/mol
DOCKED: USER        Electrostatic Energy            =  +0.00 kcal/mol
DOCKED: USER        Moving Ligand-Fixed Receptor    =  -6.10 kcal/mol
DOCKED: USER        Moving Ligand-Moving Receptor   =  +0.00 kcal/mol
DOCKED: USER    (2) Final Total Internal Energy     =  -1.50 kcal/mol
DOCKED: USER    (3) Torsional Free Energy           =  +1.49 kcal/mol
DOCKED: USER    (4) Unbound System's Energy         =  -1.50 kcal/mol
DOCKED: USER
DOCKED: USER
DOCKED: REMARK  5 active torsions:
DOCKED: REMARK  status: ('A' for Active; 'I' for Inactive)
DOCKED: REMARK    1  A    between atoms: C_2  and  C_19 
DOCKED: REMARK    2  A    between atoms: C_2  and  C_11 
DOCKED: REMARK    3  A    between atoms: C_19  and  C_20 
DOCKED: REMARK    4  A    between atoms: C_20  and  C_21 
DOCKED: REMARK    5  A    between atoms: C_21  and  N_22 
DOCKED: USER                              x       y       z     vdW  Elec       q    Type
DOCKED: USER                           _______ _______ _______ _____ _____    ______ ____
DOCKED: ROOT
DOCKED: ATOM      1  O   UNL     1     -36.105  -4.473   7.700 -0.10 -0.00    -0.346 OA 
DOCKED: ATOM      2  C   UNL     1     -34.793  -4.480   7.051 -0.19 +0.00    +0.130 C  
DOCKED: ATOM      3  C   UNL     1     -35.058  -3.888   5.697 -0.26 +0.00    +0.004 A  
DOCKED: ATOM      4  C   UNL     1     -36.381  -3.477   5.618 -0.10 +0.00    +0.006 A  
DOCKED: ATOM      5  C   UNL     1     -37.070  -3.751   6.898 -0.15 +0.00    +0.169 C  
DOCKED: ATOM      6  C   UNL     1     -34.194  -3.717   4.625 -0.24 -0.00    -0.001 A  
DOCKED: ATOM      7  C   UNL     1     -36.885  -2.889   4.470 -0.08 +0.00    +0.008 A  
DOCKED: ATOM      8  C   UNL     1     -34.689  -3.130   3.460 -0.29 +0.00    +0.010 A  
DOCKED: ATOM      9  C   UNL     1     -36.027  -2.717   3.383 -0.29 +0.00    +0.068 A  
DOCKED: ATOM     10  N   UNL     1     -36.911  -1.624   1.206 -2.45 -0.00    -0.191 NA 
DOCKED: ATOM     11  C   UNL     1     -36.515  -2.115   2.182 -0.30 +0.00    +0.101 C  
DOCKED: ENDROOT
DOCKED: BRANCH   2  12
DOCKED: ATOM     12  C   UNL     1     -33.837  -3.640   7.889 -0.18 +0.00    +0.038 C  
DOCKED: BRANCH  12  13
DOCKED: ATOM     13  C   UNL     1     -33.811  -4.107   9.343 -0.12 +0.00    +0.038 C  
DOCKED: BRANCH  13  14
DOCKED: ATOM     14  C   UNL     1     -34.959  -3.489  10.139 -0.10 +0.00    +0.251 C  
DOCKED: BRANCH  14  15
DOCKED: ATOM     15  N   UNL     1     -35.699  -4.525  10.850 -0.05 +0.00    +0.141 N  
DOCKED: ATOM     16  C   UNL     1     -37.110  -4.512  10.460 -0.08 +0.00    +0.285 C  
DOCKED: ATOM     17  C   UNL     1     -35.114  -5.843  10.596 -0.06 +0.00    +0.285 C  
DOCKED: ENDBRANCH  14  15
DOCKED: ENDBRANCH  13  14
DOCKED: ENDBRANCH  12  13
DOCKED: ENDBRANCH   2  12
DOCKED: BRANCH   2  18
DOCKED: ATOM     18  C   UNL     1     -34.346  -5.902   6.988 -0.15 +0.00    +0.006 A  
DOCKED: ATOM     19  C   UNL     1     -35.277  -6.932   7.121 -0.22 +0.00    +0.001 A  
DOCKED: ATOM     20  C   UNL     1     -34.857  -8.261   7.062 -0.23 +0.00    +0.029 A  
DOCKED: ATOM     21  C   UNL     1     -33.509  -8.559   6.868 -0.19 +0.00    +0.140 A  
DOCKED: ATOM     22  C   UNL     1     -32.579  -7.528   6.734 -0.09 +0.00    +0.029 A  
DOCKED: ATOM     23  F   UNL     1     -33.107  -9.835   6.809 -0.10 -0.00    -0.204 F  
DOCKED: ATOM     24  C   UNL     1     -32.997  -6.198   6.794 -0.07 +0.00    +0.001 A  
DOCKED: ENDBRANCH   2  18
DOCKED: TORSDOF 5
DOCKED: TER
DOCKED: ENDMDL
________________________________________________________________________________


    FINAL DOCKED STATE:
    ________________________


Run:   362 / 512
Time taken for this run:   0.002s

DOCKED: MODEL        362
DOCKED: USER    Run = 362
DOCKED: USER
DOCKED: USER    Estimated Free Energy of Binding    =  -4.40 kcal/mol  [=(1)+(2)+(3)-(4)]
DOCKED: USER
DOCKED: USER    (1) Final Intermolecular Energy     =  -5.89 kcal/mol
DOCKED: USER        vdW + Hbond + desolv Energy     =  -5.89 kcal/mol
DOCKED: USER        Electrostatic Energy            =  +0.00 kcal/mol
DOCKED: USER        Moving Ligand-Fixed Receptor    =  -5.89 kcal/mol
DOCKED: USER        Moving Ligand-Moving Receptor   =  +0.00 kcal/mol
DOCKED: USER    (2) Final Total Internal Energy     =  -1.38 kcal/mol
DOCKED: USER    (3) Torsional Free Energy           =  +1.49 kcal/mol
DOCKED: USER    (4) Unbound System's Energy         =  -1.38 kcal/mol
DOCKED: USER
DOCKED: USER
DOCKED: REMARK  5 active torsions:
DOCKED: REMARK  status: ('A' for Active; 'I' for Inactive)
DOCKED: REMARK    1  A    between atoms: C_2  and  C_19 
DOCKED: REMARK    2  A    between atoms: C_2  and  C_11 
DOCKED: REMARK    3  A    between atoms: C_19  and  C_20 
DOCKED: REMARK    4  A    between atoms: C_20  and  C_21 
DOCKED: REMARK    5  A    between atoms: C_21  and  N_22 
DOCKED: USER                              x       y       z     vdW  Elec       q    Type
DOCKED: USER                           _______ _______ _______ _____ _____    ______ ____
DOCKED: ROOT
DOCKED: ATOM      1  O   UNL     1     -37.926 -13.163  14.925 -0.07 -0.00    -0.346 OA 
DOCKED: ATOM      2  C   UNL     1     -37.768 -11.835  14.329 -0.14 +0.00    +0.130 C  
DOCKED: ATOM      3  C   UNL     1     -38.101 -12.049  12.881 -0.29 +0.00    +0.004 A  
DOCKED: ATOM      4  C   UNL     1     -38.518 -13.358  12.686 -0.32 +0.00    +0.006 A  
DOCKED: ATOM      5  C   UNL     1     -38.504 -14.087  13.974 -0.07 +0.00    +0.169 C  
DOCKED: ATOM      6  C   UNL     1     -38.048 -11.154  11.822 -0.33 -0.00    -0.001 A  
DOCKED: ATOM      7  C   UNL     1     -38.892 -13.817  11.434 -0.42 +0.00    +0.008 A  
DOCKED: ATOM      8  C   UNL     1     -38.417 -11.602  10.553 -0.06 +0.00    +0.010 A  
DOCKED: ATOM      9  C   UNL     1     -38.838 -12.927  10.360 -0.42 +0.00    +0.068 A  
DOCKED: ATOM     10  N   UNL     1     -39.521 -13.725   7.992 -2.33 -0.00    -0.191 NA 
DOCKED: ATOM     11  C   UNL     1     -39.214 -13.368   9.054 -0.48 +0.00    +0.101 C  
DOCKED: ENDROOT
DOCKED: BRANCH   2  12
DOCKED: ATOM     12  C   UNL     1     -38.730 -10.878  15.023 -0.09 +0.00    +0.038 C  
DOCKED: BRANCH  12  13
DOCKED: ATOM     13  C   UNL     1     -38.973 -11.288  16.474 -0.05 +0.00    +0.038 C  
DOCKED: BRANCH  13  14
DOCKED: ATOM     14  C   UNL     1     -38.647 -10.142  17.431 -0.00 +0.00    +0.251 C  
DOCKED: BRANCH  14  15
DOCKED: ATOM     15  N   UNL     1     -37.204 -10.003  17.582 -0.01 +0.00    +0.141 N  
DOCKED: ATOM     16  C   UNL     1     -36.855  -8.635  17.969 -0.00 +0.00    +0.285 C  
DOCKED: ATOM     17  C   UNL     1     -36.694 -10.956  18.569 -0.01 +0.00    +0.285 C  
DOCKED: ENDBRANCH  14  15
DOCKED: ENDBRANCH  13  14
DOCKED: ENDBRANCH  12  13
DOCKED: ENDBRANCH   2  12
DOCKED: BRANCH   2  18
DOCKED: ATOM     18  C   UNL     1     -36.350 -11.425  14.546 -0.18 +0.00    +0.006 A  
DOCKED: ATOM     19  C   UNL     1     -35.856 -10.275  13.931 -0.16 +0.00    +0.001 A  
DOCKED: ATOM     20  C   UNL     1     -34.529  -9.893  14.135 -0.12 +0.00    +0.029 A  
DOCKED: ATOM     21  C   UNL     1     -33.700 -10.660  14.952 -0.09 +0.00    +0.140 A  
DOCKED: ATOM     22  C   UNL     1     -34.195 -11.810  15.567 -0.13 +0.00    +0.029 A  
DOCKED: ATOM     23  F   UNL     1     -32.427 -10.292  15.148 -0.01 -0.00    -0.204 F  
DOCKED: ATOM     24  C   UNL     1     -35.522 -12.193  15.363 -0.12 +0.00    +0.001 A  
DOCKED: ENDBRANCH   2  18
DOCKED: TORSDOF 5
DOCKED: TER
DOCKED: ENDMDL
________________________________________________________________________________


    FINAL DOCKED STATE:
    ________________________


Run:   363 / 512
Time taken for this run:   0.002s

DOCKED: MODEL        363
DOCKED: USER    Run = 363
DOCKED: USER
DOCKED: USER    Estimated Free Energy of Binding    =  -3.96 kcal/mol  [=(1)+(2)+(3)-(4)]
DOCKED: USER
DOCKED: USER    (1) Final Intermolecular Energy     =  -5.45 kcal/mol
DOCKED: USER        vdW + Hbond + desolv Energy     =  -5.45 kcal/mol
DOCKED: USER        Electrostatic Energy            =  +0.00 kcal/mol
DOCKED: USER        Moving Ligand-Fixed Receptor    =  -5.45 kcal/mol
DOCKED: USER        Moving Ligand-Moving Receptor   =  +0.00 kcal/mol
DOCKED: USER    (2) Final Total Internal Energy     =  -1.33 kcal/mol
DOCKED: USER    (3) Torsional Free Energy           =  +1.49 kcal/mol
DOCKED: USER    (4) Unbound System's Energy         =  -1.33 kcal/mol
DOCKED: USER
DOCKED: USER
DOCKED: REMARK  5 active torsions:
DOCKED: REMARK  status: ('A' for Active; 'I' for Inactive)
DOCKED: REMARK    1  A    between atoms: C_2  and  C_19 
DOCKED: REMARK    2  A    between atoms: C_2  and  C_11 
DOCKED: REMARK    3  A    between atoms: C_19  and  C_20 
DOCKED: REMARK    4  A    between atoms: C_20  and  C_21 
DOCKED: REMARK    5  A    between atoms: C_21  and  N_22 
DOCKED: USER                              x       y       z     vdW  Elec       q    Type
DOCKED: USER                           _______ _______ _______ _____ _____    ______ ____
DOCKED: ROOT
DOCKED: ATOM      1  O   UNL     1     -35.933  -8.770  13.619 -0.05 -0.00    -0.346 OA 
DOCKED: ATOM      2  C   UNL     1     -35.247  -9.951  14.146 -0.13 +0.00    +0.130 C  
DOCKED: ATOM      3  C   UNL     1     -36.071 -11.100  13.640 -0.19 +0.00    +0.004 A  
DOCKED: ATOM      4  C   UNL     1     -37.074 -10.625  12.807 -0.26 +0.00    +0.006 A  
DOCKED: ATOM      5  C   UNL     1     -36.978  -9.153  12.695 -0.19 +0.00    +0.169 C  
DOCKED: ATOM      6  C   UNL     1     -35.936 -12.458  13.888 -0.24 -0.00    -0.001 A  
DOCKED: ATOM      7  C   UNL     1     -37.974 -11.485  12.200 -0.33 +0.00    +0.008 A  
DOCKED: ATOM      8  C   UNL     1     -36.838 -13.338  13.287 -0.36 +0.00    +0.010 A  
DOCKED: ATOM      9  C   UNL     1     -37.852 -12.853  12.447 -0.31 +0.00    +0.068 A  
DOCKED: ATOM     10  N   UNL     1     -39.508 -14.512  11.344 -2.55 -0.00    -0.191 NA 
DOCKED: ATOM     11  C   UNL     1     -38.765 -13.768  11.839 -0.35 +0.00    +0.101 C  
DOCKED: ENDROOT
DOCKED: BRANCH   2  12
DOCKED: ATOM     12  C   UNL     1     -33.821  -9.961  13.607 -0.03 +0.00    +0.038 C  
DOCKED: BRANCH  12  13
DOCKED: ATOM     13  C   UNL     1     -33.344  -8.550  13.270 -0.10 +0.00    +0.038 C  
DOCKED: BRANCH  13  14
DOCKED: ATOM     14  C   UNL     1     -33.259  -8.346  11.758 -0.08 +0.00    +0.251 C  
DOCKED: BRANCH  14  15
DOCKED: ATOM     15  N   UNL     1     -33.706  -7.004  11.402 -0.06 +0.00    +0.141 N  
DOCKED: ATOM     16  C   UNL     1     -34.987  -7.058  10.697 -0.06 +0.00    +0.285 C  
DOCKED: ATOM     17  C   UNL     1     -33.817  -6.164  12.595 -0.02 +0.00    +0.285 C  
DOCKED: ENDBRANCH  14  15
DOCKED: ENDBRANCH  13  14
DOCKED: ENDBRANCH  12  13
DOCKED: ENDBRANCH   2  12
DOCKED: BRANCH   2  18
DOCKED: ATOM     18  C   UNL     1     -35.260  -9.837  15.633 -0.06 +0.00    +0.006 A  
DOCKED: ATOM     19  C   UNL     1     -36.466  -9.923  16.328 -0.03 +0.00    +0.001 A  
DOCKED: ATOM     20  C   UNL     1     -36.477  -9.815  17.719 -0.01 +0.00    +0.029 A  
DOCKED: ATOM     21  C   UNL     1     -35.284  -9.622  18.413 -0.00 +0.00    +0.140 A  
DOCKED: ATOM     22  C   UNL     1     -34.078  -9.536  17.718 -0.01 +0.00    +0.029 A  
DOCKED: ATOM     23  F   UNL     1     -35.294  -9.520  19.749 +0.00 -0.00    -0.204 F  
DOCKED: ATOM     24  C   UNL     1     -34.066  -9.643  16.326 -0.03 +0.00    +0.001 A  
DOCKED: ENDBRANCH   2  18
DOCKED: TORSDOF 5
DOCKED: TER
DOCKED: ENDMDL
________________________________________________________________________________


    FINAL DOCKED STATE:
    ________________________


Run:   364 / 512
Time taken for this run:   0.002s

DOCKED: MODEL        364
DOCKED: USER    Run = 364
DOCKED: USER
DOCKED: USER    Estimated Free Energy of Binding    =  -4.37 kcal/mol  [=(1)+(2)+(3)-(4)]
DOCKED: USER
DOCKED: USER    (1) Final Intermolecular Energy     =  -5.87 kcal/mol
DOCKED: USER        vdW + Hbond + desolv Energy     =  -5.87 kcal/mol
DOCKED: USER        Electrostatic Energy            =  +0.00 kcal/mol
DOCKED: USER        Moving Ligand-Fixed Receptor    =  -5.87 kcal/mol
DOCKED: USER        Moving Ligand-Moving Receptor   =  +0.00 kcal/mol
DOCKED: USER    (2) Final Total Internal Energy     =  -1.26 kcal/mol
DOCKED: USER    (3) Torsional Free Energy           =  +1.49 kcal/mol
DOCKED: USER    (4) Unbound System's Energy         =  -1.26 kcal/mol
DOCKED: USER
DOCKED: USER
DOCKED: REMARK  5 active torsions:
DOCKED: REMARK  status: ('A' for Active; 'I' for Inactive)
DOCKED: REMARK    1  A    between atoms: C_2  and  C_19 
DOCKED: REMARK    2  A    between atoms: C_2  and  C_11 
DOCKED: REMARK    3  A    between atoms: C_19  and  C_20 
DOCKED: REMARK    4  A    between atoms: C_20  and  C_21 
DOCKED: REMARK    5  A    between atoms: C_21  and  N_22 
DOCKED: USER                              x       y       z     vdW  Elec       q    Type
DOCKED: USER                           _______ _______ _______ _____ _____    ______ ____
DOCKED: ROOT
DOCKED: ATOM      1  O   UNL     1     -39.599 -10.938  14.983 -0.00 -0.00    -0.346 OA 
DOCKED: ATOM      2  C   UNL     1     -38.209 -11.248  14.644 -0.09 +0.00    +0.130 C  
DOCKED: ATOM      3  C   UNL     1     -38.299 -11.845  13.270 -0.23 +0.00    +0.004 A  
DOCKED: ATOM      4  C   UNL     1     -39.609 -11.780  12.817 -0.22 +0.00    +0.006 A  
DOCKED: ATOM      5  C   UNL     1     -40.462 -11.134  13.839 -0.11 +0.00    +0.169 C  
DOCKED: ATOM      6  C   UNL     1     -37.299 -12.391  12.478 -0.34 -0.00    -0.001 A  
DOCKED: ATOM      7  C   UNL     1     -39.964 -12.259  11.568 -0.29 +0.00    +0.008 A  
DOCKED: ATOM      8  C   UNL     1     -37.642 -12.882  11.217 -0.13 +0.00    +0.010 A  
DOCKED: ATOM      9  C   UNL     1     -38.968 -12.816  10.765 -0.38 +0.00    +0.068 A  
DOCKED: ATOM     10  N   UNL     1     -39.570 -13.733   8.417 -1.92 -0.00    -0.191 NA 
DOCKED: ATOM     11  C   UNL     1     -39.300 -13.322   9.470 -0.48 +0.00    +0.101 C  
DOCKED: ENDROOT
DOCKED: BRANCH   2  12
DOCKED: ATOM     12  C   UNL     1     -37.404  -9.955  14.679 -0.10 +0.00    +0.038 C  
DOCKED: BRANCH  12  13
DOCKED: ATOM     13  C   UNL     1     -37.901  -8.961  13.630 -0.16 +0.00    +0.038 C  
DOCKED: BRANCH  13  14
DOCKED: ATOM     14  C   UNL     1     -38.938  -8.009  14.224 -0.06 +0.00    +0.251 C  
DOCKED: BRANCH  14  15
DOCKED: ATOM     15  N   UNL     1     -39.559  -7.215  13.171 -0.14 +0.00    +0.141 N  
DOCKED: ATOM     16  C   UNL     1     -38.549  -6.722  12.233 -0.12 +0.00    +0.285 C  
DOCKED: ATOM     17  C   UNL     1     -40.570  -8.000  12.461 -0.14 +0.00    +0.285 C  
DOCKED: ENDBRANCH  14  15
DOCKED: ENDBRANCH  13  14
DOCKED: ENDBRANCH  12  13
DOCKED: ENDBRANCH   2  12
DOCKED: BRANCH   2  18
DOCKED: ATOM     18  C   UNL     1     -37.716 -12.216  15.667 -0.12 +0.00    +0.006 A  
DOCKED: ATOM     19  C   UNL     1     -38.553 -13.235  16.123 -0.18 +0.00    +0.001 A  
DOCKED: ATOM     20  C   UNL     1     -38.091 -14.139  17.080 -0.18 +0.00    +0.029 A  
DOCKED: ATOM     21  C   UNL     1     -36.794 -14.025  17.579 -0.17 +0.00    +0.140 A  
DOCKED: ATOM     22  C   UNL     1     -35.958 -13.006  17.122 -0.11 +0.00    +0.029 A  
DOCKED: ATOM     23  F   UNL     1     -36.350 -14.894  18.496 -0.09 -0.00    -0.204 F  
DOCKED: ATOM     24  C   UNL     1     -36.419 -12.101  16.166 -0.12 +0.00    +0.001 A  
DOCKED: ENDBRANCH   2  18
DOCKED: TORSDOF 5
DOCKED: TER
DOCKED: ENDMDL
________________________________________________________________________________


    FINAL DOCKED STATE:
    ________________________


Run:   365 / 512
Time taken for this run:   0.002s

DOCKED: MODEL        365
DOCKED: USER    Run = 365
DOCKED: USER
DOCKED: USER    Estimated Free Energy of Binding    =  -5.24 kcal/mol  [=(1)+(2)+(3)-(4)]
DOCKED: USER
DOCKED: USER    (1) Final Intermolecular Energy     =  -6.74 kcal/mol
DOCKED: USER        vdW + Hbond + desolv Energy     =  -6.74 kcal/mol
DOCKED: USER        Electrostatic Energy            =  +0.00 kcal/mol
DOCKED: USER        Moving Ligand-Fixed Receptor    =  -6.74 kcal/mol
DOCKED: USER        Moving Ligand-Moving Receptor   =  +0.00 kcal/mol
DOCKED: USER    (2) Final Total Internal Energy     =  -1.07 kcal/mol
DOCKED: USER    (3) Torsional Free Energy           =  +1.49 kcal/mol
DOCKED: USER    (4) Unbound System's Energy         =  -1.07 kcal/mol
DOCKED: USER
DOCKED: USER
DOCKED: REMARK  5 active torsions:
DOCKED: REMARK  status: ('A' for Active; 'I' for Inactive)
DOCKED: REMARK    1  A    between atoms: C_2  and  C_19 
DOCKED: REMARK    2  A    between atoms: C_2  and  C_11 
DOCKED: REMARK    3  A    between atoms: C_19  and  C_20 
DOCKED: REMARK    4  A    between atoms: C_20  and  C_21 
DOCKED: REMARK    5  A    between atoms: C_21  and  N_22 
DOCKED: USER                              x       y       z     vdW  Elec       q    Type
DOCKED: USER                           _______ _______ _______ _____ _____    ______ ____
DOCKED: ROOT
DOCKED: ATOM      1  O   UNL     1     -37.839 -10.586  14.242 -0.02 -0.00    -0.346 OA 
DOCKED: ATOM      2  C   UNL     1     -37.147 -11.875  14.198 -0.18 +0.00    +0.130 C  
DOCKED: ATOM      3  C   UNL     1     -37.575 -12.468  12.887 -0.32 +0.00    +0.004 A  
DOCKED: ATOM      4  C   UNL     1     -38.353 -11.553  12.192 -0.32 +0.00    +0.006 A  
DOCKED: ATOM      5  C   UNL     1     -38.482 -10.305  12.977 -0.20 +0.00    +0.169 C  
DOCKED: ATOM      6  C   UNL     1     -37.288 -13.713  12.347 -0.43 -0.00    -0.001 A  
DOCKED: ATOM      7  C   UNL     1     -38.872 -11.850  10.944 -0.22 +0.00    +0.008 A  
DOCKED: ATOM      8  C   UNL     1     -37.808 -14.029  11.091 -0.38 +0.00    +0.010 A  
DOCKED: ATOM      9  C   UNL     1     -38.596 -13.102  10.393 -0.42 +0.00    +0.068 A  
DOCKED: ATOM     10  N   UNL     1     -39.542 -13.719   8.061 -2.28 -0.00    -0.191 NA 
DOCKED: ATOM     11  C   UNL     1     -39.118 -13.442   9.107 -0.51 +0.00    +0.101 C  
DOCKED: ENDROOT
DOCKED: BRANCH   2  12
DOCKED: ATOM     12  C   UNL     1     -35.646 -11.620  14.273 -0.23 +0.00    +0.038 C  
DOCKED: BRANCH  12  13
DOCKED: ATOM     13  C   UNL     1     -35.334 -10.125  14.272 -0.15 +0.00    +0.038 C  
DOCKED: BRANCH  13  14
DOCKED: ATOM     14  C   UNL     1     -35.416  -9.547  12.860 +0.05 +0.00    +0.251 C  
DOCKED: BRANCH  14  15
DOCKED: ATOM     15  N   UNL     1     -34.663  -8.302  12.777 -0.11 +0.00    +0.141 N  
DOCKED: ATOM     16  C   UNL     1     -33.270  -8.564  12.412 -0.07 +0.00    +0.285 C  
DOCKED: ATOM     17  C   UNL     1     -35.278  -7.391  11.810 -0.10 +0.00    +0.285 C  
DOCKED: ENDBRANCH  14  15
DOCKED: ENDBRANCH  13  14
DOCKED: ENDBRANCH  12  13
DOCKED: ENDBRANCH   2  12
DOCKED: BRANCH   2  18
DOCKED: ATOM     18  C   UNL     1     -37.618 -12.663  15.375 -0.17 +0.00    +0.006 A  
DOCKED: ATOM     19  C   UNL     1     -38.828 -13.353  15.311 -0.20 +0.00    +0.001 A  
DOCKED: ATOM     20  C   UNL     1     -39.268 -14.089  16.412 +0.00 +0.00    +0.029 A  
DOCKED: ATOM     21  C   UNL     1     -38.498 -14.135  17.573 -0.11 +0.00    +0.140 A  
DOCKED: ATOM     22  C   UNL     1     -37.288 -13.444  17.636 -0.17 +0.00    +0.029 A  
DOCKED: ATOM     23  F   UNL     1     -38.920 -14.843  18.629 -0.04 -0.00    -0.204 F  
DOCKED: ATOM     24  C   UNL     1     -36.848 -12.707  16.535 -0.15 +0.00    +0.001 A  
DOCKED: ENDBRANCH   2  18
DOCKED: TORSDOF 5
DOCKED: TER
DOCKED: ENDMDL
________________________________________________________________________________


    FINAL DOCKED STATE:
    ________________________


Run:   366 / 512
Time taken for this run:   0.002s

DOCKED: MODEL        366
DOCKED: USER    Run = 366
DOCKED: USER
DOCKED: USER    Estimated Free Energy of Binding    =  -3.98 kcal/mol  [=(1)+(2)+(3)-(4)]
DOCKED: USER
DOCKED: USER    (1) Final Intermolecular Energy     =  -5.47 kcal/mol
DOCKED: USER        vdW + Hbond + desolv Energy     =  -5.47 kcal/mol
DOCKED: USER        Electrostatic Energy            =  +0.00 kcal/mol
DOCKED: USER        Moving Ligand-Fixed Receptor    =  -5.47 kcal/mol
DOCKED: USER        Moving Ligand-Moving Receptor   =  +0.00 kcal/mol
DOCKED: USER    (2) Final Total Internal Energy     =  -1.17 kcal/mol
DOCKED: USER    (3) Torsional Free Energy           =  +1.49 kcal/mol
DOCKED: USER    (4) Unbound System's Energy         =  -1.17 kcal/mol
DOCKED: USER
DOCKED: USER
DOCKED: REMARK  5 active torsions:
DOCKED: REMARK  status: ('A' for Active; 'I' for Inactive)
DOCKED: REMARK    1  A    between atoms: C_2  and  C_19 
DOCKED: REMARK    2  A    between atoms: C_2  and  C_11 
DOCKED: REMARK    3  A    between atoms: C_19  and  C_20 
DOCKED: REMARK    4  A    between atoms: C_20  and  C_21 
DOCKED: REMARK    5  A    between atoms: C_21  and  N_22 
DOCKED: USER                              x       y       z     vdW  Elec       q    Type
DOCKED: USER                           _______ _______ _______ _____ _____    ______ ____
DOCKED: ROOT
DOCKED: ATOM      1  O   UNL     1     -40.527  -8.421  14.034 -0.03 -0.00    -0.346 OA 
DOCKED: ATOM      2  C   UNL     1     -39.074  -8.600  14.032 -0.10 +0.00    +0.130 C  
DOCKED: ATOM      3  C   UNL     1     -38.882  -9.977  13.466 -0.18 +0.00    +0.004 A  
DOCKED: ATOM      4  C   UNL     1     -40.108 -10.496  13.075 -0.21 +0.00    +0.006 A  
DOCKED: ATOM      5  C   UNL     1     -41.179  -9.510  13.340 -0.17 +0.00    +0.169 C  
DOCKED: ATOM      6  C   UNL     1     -37.714 -10.706  13.299 -0.22 -0.00    -0.001 A  
DOCKED: ATOM      7  C   UNL     1     -40.210 -11.757  12.512 -0.24 +0.00    +0.008 A  
DOCKED: ATOM      8  C   UNL     1     -37.801 -11.981  12.737 -0.30 +0.00    +0.010 A  
DOCKED: ATOM      9  C   UNL     1     -39.042 -12.503  12.345 -0.25 +0.00    +0.068 A  
DOCKED: ATOM     10  N   UNL     1     -39.167 -14.870  11.299 -2.58 -0.00    -0.191 NA 
DOCKED: ATOM     11  C   UNL     1     -39.111 -13.809  11.769 -0.34 +0.00    +0.101 C  
DOCKED: ENDROOT
DOCKED: BRANCH   2  12
DOCKED: ATOM     12  C   UNL     1     -38.456  -7.509  13.166 -0.17 +0.00    +0.038 C  
DOCKED: BRANCH  12  13
DOCKED: ATOM     13  C   UNL     1     -39.429  -7.035  12.088 -0.16 +0.00    +0.038 C  
DOCKED: BRANCH  13  14
DOCKED: ATOM     14  C   UNL     1     -39.496  -5.510  12.042 -0.12 +0.00    +0.251 C  
DOCKED: BRANCH  14  15
DOCKED: ATOM     15  N   UNL     1     -40.883  -5.062  12.084 -0.11 +0.00    +0.141 N  
DOCKED: ATOM     16  C   UNL     1     -41.247  -4.390  10.835 -0.10 +0.00    +0.285 C  
DOCKED: ATOM     17  C   UNL     1     -41.782  -6.191  12.333 -0.10 +0.00    +0.285 C  
DOCKED: ENDBRANCH  14  15
DOCKED: ENDBRANCH  13  14
DOCKED: ENDBRANCH  12  13
DOCKED: ENDBRANCH   2  12
DOCKED: BRANCH   2  18
DOCKED: ATOM     18  C   UNL     1     -38.619  -8.484  15.449 -0.03 +0.00    +0.006 A  
DOCKED: ATOM     19  C   UNL     1     -39.157  -9.323  16.424 -0.02 +0.00    +0.001 A  
DOCKED: ATOM     20  C   UNL     1     -38.731  -9.214  17.748 -0.00 +0.00    +0.029 A  
DOCKED: ATOM     21  C   UNL     1     -37.767  -8.268  18.095 +0.00 +0.00    +0.140 A  
DOCKED: ATOM     22  C   UNL     1     -37.228  -7.430  17.119 -0.00 +0.00    +0.029 A  
DOCKED: ATOM     23  F   UNL     1     -37.356  -8.165  19.366 +0.00 -0.00    -0.204 F  
DOCKED: ATOM     24  C   UNL     1     -37.655  -7.538  15.794 -0.02 +0.00    +0.001 A  
DOCKED: ENDBRANCH   2  18
DOCKED: TORSDOF 5
DOCKED: TER
DOCKED: ENDMDL
________________________________________________________________________________


    FINAL DOCKED STATE:
    ________________________


Run:   367 / 512
Time taken for this run:   0.002s

DOCKED: MODEL        367
DOCKED: USER    Run = 367
DOCKED: USER
DOCKED: USER    Estimated Free Energy of Binding    =  -4.03 kcal/mol  [=(1)+(2)+(3)-(4)]
DOCKED: USER
DOCKED: USER    (1) Final Intermolecular Energy     =  -5.52 kcal/mol
DOCKED: USER        vdW + Hbond + desolv Energy     =  -5.52 kcal/mol
DOCKED: USER        Electrostatic Energy            =  +0.00 kcal/mol
DOCKED: USER        Moving Ligand-Fixed Receptor    =  -5.52 kcal/mol
DOCKED: USER        Moving Ligand-Moving Receptor   =  +0.00 kcal/mol
DOCKED: USER    (2) Final Total Internal Energy     =  -1.30 kcal/mol
DOCKED: USER    (3) Torsional Free Energy           =  +1.49 kcal/mol
DOCKED: USER    (4) Unbound System's Energy         =  -1.30 kcal/mol
DOCKED: USER
DOCKED: USER
DOCKED: REMARK  5 active torsions:
DOCKED: REMARK  status: ('A' for Active; 'I' for Inactive)
DOCKED: REMARK    1  A    between atoms: C_2  and  C_19 
DOCKED: REMARK    2  A    between atoms: C_2  and  C_11 
DOCKED: REMARK    3  A    between atoms: C_19  and  C_20 
DOCKED: REMARK    4  A    between atoms: C_20  and  C_21 
DOCKED: REMARK    5  A    between atoms: C_21  and  N_22 
DOCKED: USER                              x       y       z     vdW  Elec       q    Type
DOCKED: USER                           _______ _______ _______ _____ _____    ______ ____
DOCKED: ROOT
DOCKED: ATOM      1  O   UNL     1     -29.052 -12.300   4.417 -0.00 -0.00    -0.346 OA 
DOCKED: ATOM      2  C   UNL     1     -29.627 -11.218   5.217 -0.07 +0.00    +0.130 C  
DOCKED: ATOM      3  C   UNL     1     -30.244 -11.926   6.388 -0.11 +0.00    +0.004 A  
DOCKED: ATOM      4  C   UNL     1     -29.953 -13.281   6.321 -0.13 +0.00    +0.006 A  
DOCKED: ATOM      5  C   UNL     1     -29.124 -13.558   5.126 -0.07 +0.00    +0.169 C  
DOCKED: ATOM      6  C   UNL     1     -30.994 -11.411   7.435 -0.16 -0.00    -0.001 A  
DOCKED: ATOM      7  C   UNL     1     -30.401 -14.164   7.289 -0.23 +0.00    +0.008 A  
DOCKED: ATOM      8  C   UNL     1     -31.458 -12.288   8.417 -0.27 +0.00    +0.010 A  
DOCKED: ATOM      9  C   UNL     1     -31.162 -13.658   8.344 -0.29 +0.00    +0.068 A  
DOCKED: ATOM     10  N   UNL     1     -32.033 -15.259  10.185 -2.67 -0.00    -0.191 NA 
DOCKED: ATOM     11  C   UNL     1     -31.643 -14.541   9.359 -0.40 +0.00    +0.101 C  
DOCKED: ENDROOT
DOCKED: BRANCH   2  12
DOCKED: ATOM     12  C   UNL     1     -28.505 -10.268   5.622 -0.01 +0.00    +0.038 C  
DOCKED: BRANCH  12  13
DOCKED: ATOM     13  C   UNL     1     -27.142 -10.953   5.548 -0.00 +0.00    +0.038 C  
DOCKED: BRANCH  13  14
DOCKED: ATOM     14  C   UNL     1     -26.354 -10.751   6.841 -0.00 +0.00    +0.251 C  
DOCKED: BRANCH  14  15
DOCKED: ATOM     15  N   UNL     1     -27.264 -10.613   7.973 -0.01 +0.00    +0.141 N  
DOCKED: ATOM     16  C   UNL     1     -27.608 -11.926   8.521 -0.00 +0.00    +0.285 C  
DOCKED: ATOM     17  C   UNL     1     -26.671  -9.769   9.011 +0.00 +0.00    +0.285 C  
DOCKED: ENDBRANCH  14  15
DOCKED: ENDBRANCH  13  14
DOCKED: ENDBRANCH  12  13
DOCKED: ENDBRANCH   2  12
DOCKED: BRANCH   2  18
DOCKED: ATOM     18  C   UNL     1     -30.633 -10.527   4.359 -0.12 +0.00    +0.006 A  
DOCKED: ATOM     19  C   UNL     1     -30.767 -10.884   3.017 -0.14 +0.00    +0.001 A  
DOCKED: ATOM     20  C   UNL     1     -31.708 -10.237   2.216 -0.18 +0.00    +0.029 A  
DOCKED: ATOM     21  C   UNL     1     -32.513  -9.236   2.755 -0.17 +0.00    +0.140 A  
DOCKED: ATOM     22  C   UNL     1     -32.379  -8.879   4.097 -0.19 +0.00    +0.029 A  
DOCKED: ATOM     23  F   UNL     1     -33.418  -8.616   1.986 -0.14 -0.00    -0.204 F  
DOCKED: ATOM     24  C   UNL     1     -31.438  -9.525   4.900 -0.15 +0.00    +0.001 A  
DOCKED: ENDBRANCH   2  18
DOCKED: TORSDOF 5
DOCKED: TER
DOCKED: ENDMDL
________________________________________________________________________________


    FINAL DOCKED STATE:
    ________________________


Run:   368 / 512
Time taken for this run:   0.002s

DOCKED: MODEL        368
DOCKED: USER    Run = 368
DOCKED: USER
DOCKED: USER    Estimated Free Energy of Binding    =  -4.26 kcal/mol  [=(1)+(2)+(3)-(4)]
DOCKED: USER
DOCKED: USER    (1) Final Intermolecular Energy     =  -5.75 kcal/mol
DOCKED: USER        vdW + Hbond + desolv Energy     =  -5.75 kcal/mol
DOCKED: USER        Electrostatic Energy            =  +0.00 kcal/mol
DOCKED: USER        Moving Ligand-Fixed Receptor    =  -5.75 kcal/mol
DOCKED: USER        Moving Ligand-Moving Receptor   =  +0.00 kcal/mol
DOCKED: USER    (2) Final Total Internal Energy     =  -1.18 kcal/mol
DOCKED: USER    (3) Torsional Free Energy           =  +1.49 kcal/mol
DOCKED: USER    (4) Unbound System's Energy         =  -1.18 kcal/mol
DOCKED: USER
DOCKED: USER
DOCKED: REMARK  5 active torsions:
DOCKED: REMARK  status: ('A' for Active; 'I' for Inactive)
DOCKED: REMARK    1  A    between atoms: C_2  and  C_19 
DOCKED: REMARK    2  A    between atoms: C_2  and  C_11 
DOCKED: REMARK    3  A    between atoms: C_19  and  C_20 
DOCKED: REMARK    4  A    between atoms: C_20  and  C_21 
DOCKED: REMARK    5  A    between atoms: C_21  and  N_22 
DOCKED: USER                              x       y       z     vdW  Elec       q    Type
DOCKED: USER                           _______ _______ _______ _____ _____    ______ ____
DOCKED: ROOT
DOCKED: ATOM      1  O   UNL     1     -35.447  -9.519  14.249 -0.05 -0.00    -0.346 OA 
DOCKED: ATOM      2  C   UNL     1     -36.622  -8.938  13.598 -0.13 +0.00    +0.130 C  
DOCKED: ATOM      3  C   UNL     1     -37.327 -10.123  13.004 -0.24 +0.00    +0.004 A  
DOCKED: ATOM      4  C   UNL     1     -36.673 -11.290  13.375 -0.23 +0.00    +0.006 A  
DOCKED: ATOM      5  C   UNL     1     -35.516 -10.964  14.239 -0.15 +0.00    +0.169 C  
DOCKED: ATOM      6  C   UNL     1     -38.462 -10.166  12.207 -0.22 -0.00    -0.001 A  
DOCKED: ATOM      7  C   UNL     1     -37.126 -12.532  12.963 -0.32 +0.00    +0.008 A  
DOCKED: ATOM      8  C   UNL     1     -38.928 -11.411  11.780 -0.26 +0.00    +0.010 A  
DOCKED: ATOM      9  C   UNL     1     -38.263 -12.587  12.157 -0.31 +0.00    +0.068 A  
DOCKED: ATOM     10  N   UNL     1     -39.158 -14.882  11.351 -2.61 -0.00    -0.191 NA 
DOCKED: ATOM     11  C   UNL     1     -38.756 -13.853  11.712 -0.33 +0.00    +0.101 C  
DOCKED: ENDROOT
DOCKED: BRANCH   2  12
DOCKED: ATOM     12  C   UNL     1     -37.455  -8.222  14.655 -0.06 +0.00    +0.038 C  
DOCKED: BRANCH  12  13
DOCKED: ATOM     13  C   UNL     1     -38.680  -9.043  15.050 -0.06 +0.00    +0.038 C  
DOCKED: BRANCH  13  14
DOCKED: ATOM     14  C   UNL     1     -38.834  -9.104  16.569 -0.00 +0.00    +0.251 C  
DOCKED: BRANCH  14  15
DOCKED: ATOM     15  N   UNL     1     -39.007 -10.484  17.006 -0.01 +0.00    +0.141 N  
DOCKED: ATOM     16  C   UNL     1     -37.730 -11.200  16.973 -0.02 +0.00    +0.285 C  
DOCKED: ATOM     17  C   UNL     1     -39.580 -10.531  18.352 -0.00 +0.00    +0.285 C  
DOCKED: ENDBRANCH  14  15
DOCKED: ENDBRANCH  13  14
DOCKED: ENDBRANCH  12  13
DOCKED: ENDBRANCH   2  12
DOCKED: BRANCH   2  18
DOCKED: ATOM     18  C   UNL     1     -36.122  -7.982  12.567 -0.16 +0.00    +0.006 A  
DOCKED: ATOM     19  C   UNL     1     -34.980  -8.288  11.828 -0.14 +0.00    +0.001 A  
DOCKED: ATOM     20  C   UNL     1     -34.514  -7.393  10.865 -0.13 +0.00    +0.029 A  
DOCKED: ATOM     21  C   UNL     1     -35.189  -6.194  10.642 -0.07 +0.00    +0.140 A  
DOCKED: ATOM     22  C   UNL     1     -36.331  -5.888  11.381 -0.10 +0.00    +0.029 A  
DOCKED: ATOM     23  F   UNL     1     -34.742  -5.336   9.716 -0.01 -0.00    -0.204 F  
DOCKED: ATOM     24  C   UNL     1     -36.799  -6.783  12.345 -0.12 +0.00    +0.001 A  
DOCKED: ENDBRANCH   2  18
DOCKED: TORSDOF 5
DOCKED: TER
DOCKED: ENDMDL
________________________________________________________________________________


    FINAL DOCKED STATE:
    ________________________


Run:   369 / 512
Time taken for this run:   0.002s

DOCKED: MODEL        369
DOCKED: USER    Run = 369
DOCKED: USER
DOCKED: USER    Estimated Free Energy of Binding    =  -3.31 kcal/mol  [=(1)+(2)+(3)-(4)]
DOCKED: USER
DOCKED: USER    (1) Final Intermolecular Energy     =  -4.80 kcal/mol
DOCKED: USER        vdW + Hbond + desolv Energy     =  -4.80 kcal/mol
DOCKED: USER        Electrostatic Energy            =  +0.00 kcal/mol
DOCKED: USER        Moving Ligand-Fixed Receptor    =  -4.80 kcal/mol
DOCKED: USER        Moving Ligand-Moving Receptor   =  +0.00 kcal/mol
DOCKED: USER    (2) Final Total Internal Energy     =  -1.27 kcal/mol
DOCKED: USER    (3) Torsional Free Energy           =  +1.49 kcal/mol
DOCKED: USER    (4) Unbound System's Energy         =  -1.27 kcal/mol
DOCKED: USER
DOCKED: USER
DOCKED: REMARK  5 active torsions:
DOCKED: REMARK  status: ('A' for Active; 'I' for Inactive)
DOCKED: REMARK    1  A    between atoms: C_2  and  C_19 
DOCKED: REMARK    2  A    between atoms: C_2  and  C_11 
DOCKED: REMARK    3  A    between atoms: C_19  and  C_20 
DOCKED: REMARK    4  A    between atoms: C_20  and  C_21 
DOCKED: REMARK    5  A    between atoms: C_21  and  N_22 
DOCKED: USER                              x       y       z     vdW  Elec       q    Type
DOCKED: USER                           _______ _______ _______ _____ _____    ______ ____
DOCKED: ROOT
DOCKED: ATOM      1  O   UNL     1     -30.579  -0.781   4.005 -0.01 -0.00    -0.346 OA 
DOCKED: ATOM      2  C   UNL     1     -30.335  -1.294   2.656 -0.03 +0.00    +0.130 C  
DOCKED: ATOM      3  C   UNL     1     -31.708  -1.408   2.061 -0.10 +0.00    +0.004 A  
DOCKED: ATOM      4  C   UNL     1     -32.646  -0.902   2.949 -0.20 +0.00    +0.006 A  
DOCKED: ATOM      5  C   UNL     1     -31.968  -0.413   4.171 -0.16 +0.00    +0.169 C  
DOCKED: ATOM      6  C   UNL     1     -32.096  -1.909   0.826 -0.12 -0.00    -0.001 A  
DOCKED: ATOM      7  C   UNL     1     -33.996  -0.883   2.640 -0.32 +0.00    +0.008 A  
DOCKED: ATOM      8  C   UNL     1     -33.453  -1.901   0.501 -0.26 +0.00    +0.010 A  
DOCKED: ATOM      9  C   UNL     1     -34.398  -1.390   1.403 -0.34 +0.00    +0.068 A  
DOCKED: ATOM     10  N   UNL     1     -36.909  -1.385   0.766 -2.56 -0.00    -0.191 NA 
DOCKED: ATOM     11  C   UNL     1     -35.783  -1.388   1.052 -0.41 +0.00    +0.101 C  
DOCKED: ENDROOT
DOCKED: BRANCH   2  12
DOCKED: ATOM     12  C   UNL     1     -29.448  -0.300   1.916 -0.05 +0.00    +0.038 C  
DOCKED: BRANCH  12  13
DOCKED: ATOM     13  C   UNL     1     -28.769   0.668   2.882 -0.03 +0.00    +0.038 C  
DOCKED: BRANCH  13  14
DOCKED: ATOM     14  C   UNL     1     -28.873   2.108   2.382 -0.02 +0.00    +0.251 C  
DOCKED: BRANCH  14  15
DOCKED: ATOM     15  N   UNL     1     -30.223   2.619   2.585 -0.08 +0.00    +0.141 N  
DOCKED: ATOM     16  C   UNL     1     -30.564   2.624   4.008 -0.04 +0.00    +0.285 C  
DOCKED: ATOM     17  C   UNL     1     -30.353   3.967   2.028 -0.05 +0.00    +0.285 C  
DOCKED: ENDBRANCH  14  15
DOCKED: ENDBRANCH  13  14
DOCKED: ENDBRANCH  12  13
DOCKED: ENDBRANCH   2  12
DOCKED: BRANCH   2  18
DOCKED: ATOM     18  C   UNL     1     -29.655  -2.614   2.807 -0.01 +0.00    +0.006 A  
DOCKED: ATOM     19  C   UNL     1     -30.265  -3.632   3.539 -0.02 +0.00    +0.001 A  
DOCKED: ATOM     20  C   UNL     1     -29.628  -4.865   3.680 -0.00 +0.00    +0.029 A  
DOCKED: ATOM     21  C   UNL     1     -28.384  -5.079   3.089 -0.00 +0.00    +0.140 A  
DOCKED: ATOM     22  C   UNL     1     -27.774  -4.060   2.357 -0.00 +0.00    +0.029 A  
DOCKED: ATOM     23  F   UNL     1     -27.773  -6.264   3.223 +0.00 -0.00    -0.204 F  
DOCKED: ATOM     24  C   UNL     1     -28.410  -2.826   2.216 -0.00 +0.00    +0.001 A  
DOCKED: ENDBRANCH   2  18
DOCKED: TORSDOF 5
DOCKED: TER
DOCKED: ENDMDL
________________________________________________________________________________


    FINAL DOCKED STATE:
    ________________________


Run:   370 / 512
Time taken for this run:   0.002s

DOCKED: MODEL        370
DOCKED: USER    Run = 370
DOCKED: USER
DOCKED: USER    Estimated Free Energy of Binding    =  -4.12 kcal/mol  [=(1)+(2)+(3)-(4)]
DOCKED: USER
DOCKED: USER    (1) Final Intermolecular Energy     =  -5.61 kcal/mol
DOCKED: USER        vdW + Hbond + desolv Energy     =  -5.61 kcal/mol
DOCKED: USER        Electrostatic Energy            =  +0.00 kcal/mol
DOCKED: USER        Moving Ligand-Fixed Receptor    =  -5.61 kcal/mol
DOCKED: USER        Moving Ligand-Moving Receptor   =  +0.00 kcal/mol
DOCKED: USER    (2) Final Total Internal Energy     =  -1.46 kcal/mol
DOCKED: USER    (3) Torsional Free Energy           =  +1.49 kcal/mol
DOCKED: USER    (4) Unbound System's Energy         =  -1.46 kcal/mol
DOCKED: USER
DOCKED: USER
DOCKED: REMARK  5 active torsions:
DOCKED: REMARK  status: ('A' for Active; 'I' for Inactive)
DOCKED: REMARK    1  A    between atoms: C_2  and  C_19 
DOCKED: REMARK    2  A    between atoms: C_2  and  C_11 
DOCKED: REMARK    3  A    between atoms: C_19  and  C_20 
DOCKED: REMARK    4  A    between atoms: C_20  and  C_21 
DOCKED: REMARK    5  A    between atoms: C_21  and  N_22 
DOCKED: USER                              x       y       z     vdW  Elec       q    Type
DOCKED: USER                           _______ _______ _______ _____ _____    ______ ____
DOCKED: ROOT
DOCKED: ATOM      1  O   UNL     1     -37.253  -8.354  12.979 -0.07 -0.00    -0.346 OA 
DOCKED: ATOM      2  C   UNL     1     -38.300  -8.780  13.908 -0.11 +0.00    +0.130 C  
DOCKED: ATOM      3  C   UNL     1     -38.691 -10.141  13.410 -0.19 +0.00    +0.004 A  
DOCKED: ATOM      4  C   UNL     1     -37.866 -10.508  12.357 -0.28 +0.00    +0.006 A  
DOCKED: ATOM      5  C   UNL     1     -36.877  -9.437  12.097 -0.11 +0.00    +0.169 C  
DOCKED: ATOM      6  C   UNL     1     -39.691 -10.991  13.860 -0.14 -0.00    -0.001 A  
DOCKED: ATOM      7  C   UNL     1     -38.011 -11.727  11.718 -0.35 +0.00    +0.008 A  
DOCKED: ATOM      8  C   UNL     1     -39.853 -12.223  13.223 -0.20 +0.00    +0.010 A  
DOCKED: ATOM      9  C   UNL     1     -39.017 -12.589  12.158 -0.27 +0.00    +0.068 A  
DOCKED: ATOM     10  N   UNL     1     -39.343 -14.884  11.001 -2.39 -0.00    -0.191 NA 
DOCKED: ATOM     11  C   UNL     1     -39.197 -13.854  11.519 -0.37 +0.00    +0.101 C  
DOCKED: ENDROOT
DOCKED: BRANCH   2  12
DOCKED: ATOM     12  C   UNL     1     -37.714  -8.809  15.315 -0.04 +0.00    +0.038 C  
DOCKED: BRANCH  12  13
DOCKED: ATOM     13  C   UNL     1     -36.642  -9.889  15.449 -0.06 +0.00    +0.038 C  
DOCKED: BRANCH  13  14
DOCKED: ATOM     14  C   UNL     1     -37.184 -11.112  16.187 -0.03 +0.00    +0.251 C  
DOCKED: BRANCH  14  15
DOCKED: ATOM     15  N   UNL     1     -36.528 -12.324  15.709 -0.11 +0.00    +0.141 N  
DOCKED: ATOM     16  C   UNL     1     -37.518 -13.348  15.373 -0.13 +0.00    +0.285 C  
DOCKED: ATOM     17  C   UNL     1     -35.687 -12.031  14.547 -0.12 +0.00    +0.285 C  
DOCKED: ENDBRANCH  14  15
DOCKED: ENDBRANCH  13  14
DOCKED: ENDBRANCH  12  13
DOCKED: ENDBRANCH   2  12
DOCKED: BRANCH   2  18
DOCKED: ATOM     18  C   UNL     1     -39.406  -7.783  13.807 -0.12 +0.00    +0.006 A  
DOCKED: ATOM     19  C   UNL     1     -40.475  -7.836  14.699 -0.06 +0.00    +0.001 A  
DOCKED: ATOM     20  C   UNL     1     -41.509  -6.903  14.602 -0.06 +0.00    +0.029 A  
DOCKED: ATOM     21  C   UNL     1     -41.471  -5.920  13.615 -0.06 +0.00    +0.140 A  
DOCKED: ATOM     22  C   UNL     1     -40.400  -5.868  12.723 -0.15 +0.00    +0.029 A  
DOCKED: ATOM     23  F   UNL     1     -42.462  -5.024  13.524 +0.01 -0.00    -0.204 F  
DOCKED: ATOM     24  C   UNL     1     -39.366  -6.801  12.818 -0.18 +0.00    +0.001 A  
DOCKED: ENDBRANCH   2  18
DOCKED: TORSDOF 5
DOCKED: TER
DOCKED: ENDMDL
________________________________________________________________________________


    FINAL DOCKED STATE:
    ________________________


Run:   371 / 512
Time taken for this run:   0.002s

DOCKED: MODEL        371
DOCKED: USER    Run = 371
DOCKED: USER
DOCKED: USER    Estimated Free Energy of Binding    =  -4.07 kcal/mol  [=(1)+(2)+(3)-(4)]
DOCKED: USER
DOCKED: USER    (1) Final Intermolecular Energy     =  -5.56 kcal/mol
DOCKED: USER        vdW + Hbond + desolv Energy     =  -5.56 kcal/mol
DOCKED: USER        Electrostatic Energy            =  +0.00 kcal/mol
DOCKED: USER        Moving Ligand-Fixed Receptor    =  -5.56 kcal/mol
DOCKED: USER        Moving Ligand-Moving Receptor   =  +0.00 kcal/mol
DOCKED: USER    (2) Final Total Internal Energy     =  -1.36 kcal/mol
DOCKED: USER    (3) Torsional Free Energy           =  +1.49 kcal/mol
DOCKED: USER    (4) Unbound System's Energy         =  -1.36 kcal/mol
DOCKED: USER
DOCKED: USER
DOCKED: REMARK  5 active torsions:
DOCKED: REMARK  status: ('A' for Active; 'I' for Inactive)
DOCKED: REMARK    1  A    between atoms: C_2  and  C_19 
DOCKED: REMARK    2  A    between atoms: C_2  and  C_11 
DOCKED: REMARK    3  A    between atoms: C_19  and  C_20 
DOCKED: REMARK    4  A    between atoms: C_20  and  C_21 
DOCKED: REMARK    5  A    between atoms: C_21  and  N_22 
DOCKED: USER                              x       y       z     vdW  Elec       q    Type
DOCKED: USER                           _______ _______ _______ _____ _____    ______ ____
DOCKED: ROOT
DOCKED: ATOM      1  O   UNL     1     -36.395  -9.171  14.320 -0.03 -0.00    -0.346 OA 
DOCKED: ATOM      2  C   UNL     1     -37.776  -8.845  13.961 -0.10 +0.00    +0.130 C  
DOCKED: ATOM      3  C   UNL     1     -38.269 -10.083  13.269 -0.21 +0.00    +0.004 A  
DOCKED: ATOM      4  C   UNL     1     -37.295 -11.069  13.325 -0.24 +0.00    +0.006 A  
DOCKED: ATOM      5  C   UNL     1     -36.112 -10.565  14.058 -0.15 +0.00    +0.169 C  
DOCKED: ATOM      6  C   UNL     1     -39.487 -10.320  12.649 -0.22 -0.00    -0.001 A  
DOCKED: ATOM      7  C   UNL     1     -37.500 -12.318  12.765 -0.32 +0.00    +0.008 A  
DOCKED: ATOM      8  C   UNL     1     -39.708 -11.573  12.075 -0.23 +0.00    +0.010 A  
DOCKED: ATOM      9  C   UNL     1     -38.720 -12.567  12.133 -0.29 +0.00    +0.068 A  
DOCKED: ATOM     10  N   UNL     1     -39.165 -14.884  11.062 -2.44 -0.00    -0.191 NA 
DOCKED: ATOM     11  C   UNL     1     -38.965 -13.845  11.542 -0.38 +0.00    +0.101 C  
DOCKED: ENDROOT
DOCKED: BRANCH   2  12
DOCKED: ATOM     12  C   UNL     1     -38.546  -8.532  15.238 -0.04 +0.00    +0.038 C  
DOCKED: BRANCH  12  13
DOCKED: ATOM     13  C   UNL     1     -37.696  -8.796  16.479 -0.01 +0.00    +0.038 C  
DOCKED: BRANCH  13  14
DOCKED: ATOM     14  C   UNL     1     -38.486  -9.574  17.530 -0.00 +0.00    +0.251 C  
DOCKED: BRANCH  14  15
DOCKED: ATOM     15  N   UNL     1     -38.009 -10.950  17.607 -0.01 +0.00    +0.141 N  
DOCKED: ATOM     16  C   UNL     1     -38.703 -11.793  16.633 -0.02 +0.00    +0.285 C  
DOCKED: ATOM     17  C   UNL     1     -36.562 -11.008  17.389 -0.02 +0.00    +0.285 C  
DOCKED: ENDBRANCH  14  15
DOCKED: ENDBRANCH  13  14
DOCKED: ENDBRANCH  12  13
DOCKED: ENDBRANCH   2  12
DOCKED: BRANCH   2  18
DOCKED: ATOM     18  C   UNL     1     -37.723  -7.657  13.059 -0.15 +0.00    +0.006 A  
DOCKED: ATOM     19  C   UNL     1     -38.902  -7.010  12.689 -0.18 +0.00    +0.001 A  
DOCKED: ATOM     20  C   UNL     1     -38.851  -5.900  11.845 -0.16 +0.00    +0.029 A  
DOCKED: ATOM     21  C   UNL     1     -37.623  -5.437  11.375 -0.11 +0.00    +0.140 A  
DOCKED: ATOM     22  C   UNL     1     -36.445  -6.084  11.746 -0.10 +0.00    +0.029 A  
DOCKED: ATOM     23  F   UNL     1     -37.575  -4.370  10.567 -0.02 -0.00    -0.204 F  
DOCKED: ATOM     24  C   UNL     1     -36.494  -7.195  12.589 -0.13 +0.00    +0.001 A  
DOCKED: ENDBRANCH   2  18
DOCKED: TORSDOF 5
DOCKED: TER
DOCKED: ENDMDL
________________________________________________________________________________


    FINAL DOCKED STATE:
    ________________________


Run:   372 / 512
Time taken for this run:   0.002s

DOCKED: MODEL        372
DOCKED: USER    Run = 372
DOCKED: USER
DOCKED: USER    Estimated Free Energy of Binding    =  -4.22 kcal/mol  [=(1)+(2)+(3)-(4)]
DOCKED: USER
DOCKED: USER    (1) Final Intermolecular Energy     =  -5.71 kcal/mol
DOCKED: USER        vdW + Hbond + desolv Energy     =  -5.71 kcal/mol
DOCKED: USER        Electrostatic Energy            =  +0.00 kcal/mol
DOCKED: USER        Moving Ligand-Fixed Receptor    =  -5.71 kcal/mol
DOCKED: USER        Moving Ligand-Moving Receptor   =  +0.00 kcal/mol
DOCKED: USER    (2) Final Total Internal Energy     =  -1.47 kcal/mol
DOCKED: USER    (3) Torsional Free Energy           =  +1.49 kcal/mol
DOCKED: USER    (4) Unbound System's Energy         =  -1.47 kcal/mol
DOCKED: USER
DOCKED: USER
DOCKED: REMARK  5 active torsions:
DOCKED: REMARK  status: ('A' for Active; 'I' for Inactive)
DOCKED: REMARK    1  A    between atoms: C_2  and  C_19 
DOCKED: REMARK    2  A    between atoms: C_2  and  C_11 
DOCKED: REMARK    3  A    between atoms: C_19  and  C_20 
DOCKED: REMARK    4  A    between atoms: C_20  and  C_21 
DOCKED: REMARK    5  A    between atoms: C_21  and  N_22 
DOCKED: USER                              x       y       z     vdW  Elec       q    Type
DOCKED: USER                           _______ _______ _______ _____ _____    ______ ____
DOCKED: ROOT
DOCKED: ATOM      1  O   UNL     1     -37.012  -8.755  14.330 -0.02 -0.00    -0.346 OA 
DOCKED: ATOM      2  C   UNL     1     -38.436  -8.615  14.021 -0.10 +0.00    +0.130 C  
DOCKED: ATOM      3  C   UNL     1     -38.795  -9.925  13.381 -0.19 +0.00    +0.004 A  
DOCKED: ATOM      4  C   UNL     1     -37.703 -10.780  13.421 -0.21 +0.00    +0.006 A  
DOCKED: ATOM      5  C   UNL     1     -36.565 -10.110  14.092 -0.12 +0.00    +0.169 C  
DOCKED: ATOM      6  C   UNL     1     -39.996 -10.332  12.819 -0.22 -0.00    -0.001 A  
DOCKED: ATOM      7  C   UNL     1     -37.770 -12.061  12.901 -0.30 +0.00    +0.008 A  
DOCKED: ATOM      8  C   UNL     1     -40.079 -11.619  12.286 -0.23 +0.00    +0.010 A  
DOCKED: ATOM      9  C   UNL     1     -38.971 -12.479  12.327 -0.26 +0.00    +0.068 A  
DOCKED: ATOM     10  N   UNL     1     -39.160 -14.865  11.333 -2.60 -0.00    -0.191 NA 
DOCKED: ATOM     11  C   UNL     1     -39.075 -13.794  11.778 -0.34 +0.00    +0.101 C  
DOCKED: ENDROOT
DOCKED: BRANCH   2  12
DOCKED: ATOM     12  C   UNL     1     -39.190  -8.363  15.321 -0.04 +0.00    +0.038 C  
DOCKED: BRANCH  12  13
DOCKED: ATOM     13  C   UNL     1     -38.641  -9.223  16.458 -0.02 +0.00    +0.038 C  
DOCKED: BRANCH  13  14
DOCKED: ATOM     14  C   UNL     1     -39.551 -10.419  16.731 -0.01 +0.00    +0.251 C  
DOCKED: BRANCH  14  15
DOCKED: ATOM     15  N   UNL     1     -38.900 -11.656  16.316 -0.04 +0.00    +0.141 N  
DOCKED: ATOM     16  C   UNL     1     -37.583 -11.782  16.944 -0.03 +0.00    +0.285 C  
DOCKED: ATOM     17  C   UNL     1     -39.733 -12.813  16.648 -0.05 +0.00    +0.285 C  
DOCKED: ENDBRANCH  14  15
DOCKED: ENDBRANCH  13  14
DOCKED: ENDBRANCH  12  13
DOCKED: ENDBRANCH   2  12
DOCKED: BRANCH   2  18
DOCKED: ATOM     18  C   UNL     1     -38.568  -7.457  13.089 -0.16 +0.00    +0.006 A  
DOCKED: ATOM     19  C   UNL     1     -39.833  -7.000  12.720 -0.21 +0.00    +0.001 A  
DOCKED: ATOM     20  C   UNL     1     -39.955  -5.918  11.849 -0.15 +0.00    +0.029 A  
DOCKED: ATOM     21  C   UNL     1     -38.814  -5.294  11.347 -0.13 +0.00    +0.140 A  
DOCKED: ATOM     22  C   UNL     1     -37.549  -5.751  11.716 -0.13 +0.00    +0.029 A  
DOCKED: ATOM     23  F   UNL     1     -38.932  -4.254  10.512 -0.03 -0.00    -0.204 F  
DOCKED: ATOM     24  C   UNL     1     -37.426  -6.835  12.588 -0.14 +0.00    +0.001 A  
DOCKED: ENDBRANCH   2  18
DOCKED: TORSDOF 5
DOCKED: TER
DOCKED: ENDMDL
________________________________________________________________________________


    FINAL DOCKED STATE:
    ________________________


Run:   373 / 512
Time taken for this run:   0.002s

DOCKED: MODEL        373
DOCKED: USER    Run = 373
DOCKED: USER
DOCKED: USER    Estimated Free Energy of Binding    =  -4.74 kcal/mol  [=(1)+(2)+(3)-(4)]
DOCKED: USER
DOCKED: USER    (1) Final Intermolecular Energy     =  -6.23 kcal/mol
DOCKED: USER        vdW + Hbond + desolv Energy     =  -6.23 kcal/mol
DOCKED: USER        Electrostatic Energy            =  +0.00 kcal/mol
DOCKED: USER        Moving Ligand-Fixed Receptor    =  -6.23 kcal/mol
DOCKED: USER        Moving Ligand-Moving Receptor   =  +0.00 kcal/mol
DOCKED: USER    (2) Final Total Internal Energy     =  -1.39 kcal/mol
DOCKED: USER    (3) Torsional Free Energy           =  +1.49 kcal/mol
DOCKED: USER    (4) Unbound System's Energy         =  -1.39 kcal/mol
DOCKED: USER
DOCKED: USER
DOCKED: REMARK  5 active torsions:
DOCKED: REMARK  status: ('A' for Active; 'I' for Inactive)
DOCKED: REMARK    1  A    between atoms: C_2  and  C_19 
DOCKED: REMARK    2  A    between atoms: C_2  and  C_11 
DOCKED: REMARK    3  A    between atoms: C_19  and  C_20 
DOCKED: REMARK    4  A    between atoms: C_20  and  C_21 
DOCKED: REMARK    5  A    between atoms: C_21  and  N_22 
DOCKED: USER                              x       y       z     vdW  Elec       q    Type
DOCKED: USER                           _______ _______ _______ _____ _____    ______ ____
DOCKED: ROOT
DOCKED: ATOM      1  O   UNL     1     -37.023 -13.179  14.686 -0.09 -0.00    -0.346 OA 
DOCKED: ATOM      2  C   UNL     1     -37.174 -11.816  14.174 -0.18 +0.00    +0.130 C  
DOCKED: ATOM      3  C   UNL     1     -37.681 -12.012  12.774 -0.31 +0.00    +0.004 A  
DOCKED: ATOM      4  C   UNL     1     -37.905 -13.362  12.543 -0.38 +0.00    +0.006 A  
DOCKED: ATOM      5  C   UNL     1     -37.580 -14.140  13.759 -0.16 +0.00    +0.169 C  
DOCKED: ATOM      6  C   UNL     1     -37.933 -11.070  11.788 -0.31 -0.00    -0.001 A  
DOCKED: ATOM      7  C   UNL     1     -38.383 -13.815  11.325 -0.46 +0.00    +0.008 A  
DOCKED: ATOM      8  C   UNL     1     -38.411 -11.511  10.553 +0.01 +0.00    +0.010 A  
DOCKED: ATOM      9  C   UNL     1     -38.635 -12.877  10.323 -0.41 +0.00    +0.068 A  
DOCKED: ATOM     10  N   UNL     1     -39.527 -13.662   8.021 -2.34 -0.00    -0.191 NA 
DOCKED: ATOM     11  C   UNL     1     -39.127 -13.310   9.053 -0.50 +0.00    +0.101 C  
DOCKED: ENDROOT
DOCKED: BRANCH   2  12
DOCKED: ATOM     12  C   UNL     1     -38.163 -11.073  15.064 -0.10 +0.00    +0.038 C  
DOCKED: BRANCH  12  13
DOCKED: ATOM     13  C   UNL     1     -38.277 -11.729  16.439 -0.08 +0.00    +0.038 C  
DOCKED: BRANCH  13  14
DOCKED: ATOM     14  C   UNL     1     -36.919 -11.780  17.137 -0.04 +0.00    +0.251 C  
DOCKED: BRANCH  14  15
DOCKED: ATOM     15  N   UNL     1     -36.412 -10.431  17.359 -0.02 +0.00    +0.141 N  
DOCKED: ATOM     16  C   UNL     1     -37.204  -9.744  18.380 -0.00 +0.00    +0.285 C  
DOCKED: ATOM     17  C   UNL     1     -35.002 -10.468  17.750 -0.01 +0.00    +0.285 C  
DOCKED: ENDBRANCH  14  15
DOCKED: ENDBRANCH  13  14
DOCKED: ENDBRANCH  12  13
DOCKED: ENDBRANCH   2  12
DOCKED: BRANCH   2  18
DOCKED: ATOM     18  C   UNL     1     -35.825 -11.180  14.220 -0.19 +0.00    +0.006 A  
DOCKED: ATOM     19  C   UNL     1     -35.704  -9.794  14.137 -0.13 +0.00    +0.001 A  
DOCKED: ATOM     20  C   UNL     1     -34.442  -9.201  14.180 -0.10 +0.00    +0.029 A  
DOCKED: ATOM     21  C   UNL     1     -33.303  -9.994  14.307 -0.09 +0.00    +0.140 A  
DOCKED: ATOM     22  C   UNL     1     -33.424 -11.381  14.390 -0.16 +0.00    +0.029 A  
DOCKED: ATOM     23  F   UNL     1     -32.091  -9.425  14.350 -0.01 -0.00    -0.204 F  
DOCKED: ATOM     24  C   UNL     1     -34.686 -11.975  14.347 -0.18 +0.00    +0.001 A  
DOCKED: ENDBRANCH   2  18
DOCKED: TORSDOF 5
DOCKED: TER
DOCKED: ENDMDL
________________________________________________________________________________


    FINAL DOCKED STATE:
    ________________________


Run:   374 / 512
Time taken for this run:   0.002s

DOCKED: MODEL        374
DOCKED: USER    Run = 374
DOCKED: USER
DOCKED: USER    Estimated Free Energy of Binding    =  -3.20 kcal/mol  [=(1)+(2)+(3)-(4)]
DOCKED: USER
DOCKED: USER    (1) Final Intermolecular Energy     =  -4.69 kcal/mol
DOCKED: USER        vdW + Hbond + desolv Energy     =  -4.69 kcal/mol
DOCKED: USER        Electrostatic Energy            =  +0.00 kcal/mol
DOCKED: USER        Moving Ligand-Fixed Receptor    =  -4.69 kcal/mol
DOCKED: USER        Moving Ligand-Moving Receptor   =  +0.00 kcal/mol
DOCKED: USER    (2) Final Total Internal Energy     =  -1.32 kcal/mol
DOCKED: USER    (3) Torsional Free Energy           =  +1.49 kcal/mol
DOCKED: USER    (4) Unbound System's Energy         =  -1.32 kcal/mol
DOCKED: USER
DOCKED: USER
DOCKED: REMARK  5 active torsions:
DOCKED: REMARK  status: ('A' for Active; 'I' for Inactive)
DOCKED: REMARK    1  A    between atoms: C_2  and  C_19 
DOCKED: REMARK    2  A    between atoms: C_2  and  C_11 
DOCKED: REMARK    3  A    between atoms: C_19  and  C_20 
DOCKED: REMARK    4  A    between atoms: C_20  and  C_21 
DOCKED: REMARK    5  A    between atoms: C_21  and  N_22 
DOCKED: USER                              x       y       z     vdW  Elec       q    Type
DOCKED: USER                           _______ _______ _______ _____ _____    ______ ____
DOCKED: ROOT
DOCKED: ATOM      1  O   UNL     1     -31.285   1.100   4.971 -0.06 -0.00    -0.346 OA 
DOCKED: ATOM      2  C   UNL     1     -30.765   0.778   3.641 -0.09 +0.00    +0.130 C  
DOCKED: ATOM      3  C   UNL     1     -31.939   0.167   2.934 -0.12 +0.00    +0.004 A  
DOCKED: ATOM      4  C   UNL     1     -33.061   0.235   3.748 -0.19 +0.00    +0.006 A  
DOCKED: ATOM      5  C   UNL     1     -32.716   0.897   5.026 -0.15 +0.00    +0.169 C  
DOCKED: ATOM      6  C   UNL     1     -32.012  -0.393   1.667 -0.16 -0.00    -0.001 A  
DOCKED: ATOM      7  C   UNL     1     -34.286  -0.256   3.328 -0.13 +0.00    +0.008 A  
DOCKED: ATOM      8  C   UNL     1     -33.239  -0.896   1.231 -0.25 +0.00    +0.010 A  
DOCKED: ATOM      9  C   UNL     1     -34.370  -0.827   2.058 -0.32 +0.00    +0.068 A  
DOCKED: ATOM     10  N   UNL     1     -36.634  -1.766   1.217 -2.21 -0.00    -0.191 NA 
DOCKED: ATOM     11  C   UNL     1     -35.619  -1.346   1.594 -0.44 +0.00    +0.101 C  
DOCKED: ENDROOT
DOCKED: BRANCH   2  12
DOCKED: ATOM     12  C   UNL     1     -30.282   2.067   2.987 -0.11 +0.00    +0.038 C  
DOCKED: BRANCH  12  13
DOCKED: ATOM     13  C   UNL     1     -31.449   2.879   2.429 -0.14 +0.00    +0.038 C  
DOCKED: BRANCH  13  14
DOCKED: ATOM     14  C   UNL     1     -32.150   3.666   3.535 -0.11 +0.00    +0.251 C  
DOCKED: BRANCH  14  15
DOCKED: ATOM     15  N   UNL     1     -31.195   4.046   4.569 -0.05 +0.00    +0.141 N  
DOCKED: ATOM     16  C   UNL     1     -30.411   5.207   4.146 -0.01 +0.00    +0.285 C  
DOCKED: ATOM     17  C   UNL     1     -31.885   4.332   5.828 -0.03 +0.00    +0.285 C  
DOCKED: ENDBRANCH  14  15
DOCKED: ENDBRANCH  13  14
DOCKED: ENDBRANCH  12  13
DOCKED: ENDBRANCH   2  12
DOCKED: BRANCH   2  18
DOCKED: ATOM     18  C   UNL     1     -29.638  -0.182   3.834 -0.04 +0.00    +0.006 A  
DOCKED: ATOM     19  C   UNL     1     -29.621  -1.021   4.948 -0.05 +0.00    +0.001 A  
DOCKED: ATOM     20  C   UNL     1     -28.567  -1.918   5.128 -0.01 +0.00    +0.029 A  
DOCKED: ATOM     21  C   UNL     1     -27.534  -1.975   4.194 -0.00 +0.00    +0.140 A  
DOCKED: ATOM     22  C   UNL     1     -27.552  -1.136   3.080 -0.00 +0.00    +0.029 A  
DOCKED: ATOM     23  F   UNL     1     -26.523  -2.838   4.365 +0.00 -0.00    -0.204 F  
DOCKED: ATOM     24  C   UNL     1     -28.605  -0.238   2.900 -0.02 +0.00    +0.001 A  
DOCKED: ENDBRANCH   2  18
DOCKED: TORSDOF 5
DOCKED: TER
DOCKED: ENDMDL
________________________________________________________________________________


    FINAL DOCKED STATE:
    ________________________


Run:   375 / 512
Time taken for this run:   0.002s

DOCKED: MODEL        375
DOCKED: USER    Run = 375
DOCKED: USER
DOCKED: USER    Estimated Free Energy of Binding    =  -4.37 kcal/mol  [=(1)+(2)+(3)-(4)]
DOCKED: USER
DOCKED: USER    (1) Final Intermolecular Energy     =  -5.86 kcal/mol
DOCKED: USER        vdW + Hbond + desolv Energy     =  -5.86 kcal/mol
DOCKED: USER        Electrostatic Energy            =  +0.00 kcal/mol
DOCKED: USER        Moving Ligand-Fixed Receptor    =  -5.86 kcal/mol
DOCKED: USER        Moving Ligand-Moving Receptor   =  +0.00 kcal/mol
DOCKED: USER    (2) Final Total Internal Energy     =  -1.31 kcal/mol
DOCKED: USER    (3) Torsional Free Energy           =  +1.49 kcal/mol
DOCKED: USER    (4) Unbound System's Energy         =  -1.31 kcal/mol
DOCKED: USER
DOCKED: USER
DOCKED: REMARK  5 active torsions:
DOCKED: REMARK  status: ('A' for Active; 'I' for Inactive)
DOCKED: REMARK    1  A    between atoms: C_2  and  C_19 
DOCKED: REMARK    2  A    between atoms: C_2  and  C_11 
DOCKED: REMARK    3  A    between atoms: C_19  and  C_20 
DOCKED: REMARK    4  A    between atoms: C_20  and  C_21 
DOCKED: REMARK    5  A    between atoms: C_21  and  N_22 
DOCKED: USER                              x       y       z     vdW  Elec       q    Type
DOCKED: USER                           _______ _______ _______ _____ _____    ______ ____
DOCKED: ROOT
DOCKED: ATOM      1  O   UNL     1     -32.079  -8.062   7.396 +0.00 -0.00    -0.346 OA 
DOCKED: ATOM      2  C   UNL     1     -32.749  -9.222   6.806 -0.20 +0.00    +0.130 C  
DOCKED: ATOM      3  C   UNL     1     -32.319 -10.367   7.677 -0.25 +0.00    +0.004 A  
DOCKED: ATOM      4  C   UNL     1     -31.561  -9.889   8.737 -0.14 +0.00    +0.006 A  
DOCKED: ATOM      5  C   UNL     1     -31.449  -8.416   8.649 -0.05 +0.00    +0.169 C  
DOCKED: ATOM      6  C   UNL     1     -32.587 -11.722   7.549 -0.32 -0.00    -0.001 A  
DOCKED: ATOM      7  C   UNL     1     -31.044 -10.742   9.696 -0.15 +0.00    +0.008 A  
DOCKED: ATOM      8  C   UNL     1     -32.069 -12.596   8.506 -0.32 +0.00    +0.010 A  
DOCKED: ATOM      9  C   UNL     1     -31.302 -12.109   9.575 -0.20 +0.00    +0.068 A  
DOCKED: ATOM     10  N   UNL     1     -30.360 -13.758  11.337 -1.95 -0.00    -0.191 NA 
DOCKED: ATOM     11  C   UNL     1     -30.782 -13.018  10.546 -0.23 +0.00    +0.101 C  
DOCKED: ENDROOT
DOCKED: BRANCH   2  12
DOCKED: ATOM     12  C   UNL     1     -34.253  -8.982   6.842 -0.31 +0.00    +0.038 C  
DOCKED: BRANCH  12  13
DOCKED: ATOM     13  C   UNL     1     -34.590  -7.663   7.536 -0.24 +0.00    +0.038 C  
DOCKED: BRANCH  13  14
DOCKED: ATOM     14  C   UNL     1     -35.057  -6.615   6.527 -0.17 +0.00    +0.251 C  
DOCKED: BRANCH  14  15
DOCKED: ATOM     15  N   UNL     1     -33.947  -5.752   6.142 -0.11 +0.00    +0.141 N  
DOCKED: ATOM     16  C   UNL     1     -33.982  -5.476   4.705 -0.14 +0.00    +0.285 C  
DOCKED: ATOM     17  C   UNL     1     -33.980  -4.500   6.900 -0.11 +0.00    +0.285 C  
DOCKED: ENDBRANCH  14  15
DOCKED: ENDBRANCH  13  14
DOCKED: ENDBRANCH  12  13
DOCKED: ENDBRANCH   2  12
DOCKED: BRANCH   2  18
DOCKED: ATOM     18  C   UNL     1     -32.256  -9.343   5.403 -0.17 +0.00    +0.006 A  
DOCKED: ATOM     19  C   UNL     1     -32.811  -8.550   4.399 -0.19 +0.00    +0.001 A  
DOCKED: ATOM     20  C   UNL     1     -32.350  -8.664   3.087 -0.22 +0.00    +0.029 A  
DOCKED: ATOM     21  C   UNL     1     -31.335  -9.570   2.781 -0.15 +0.00    +0.140 A  
DOCKED: ATOM     22  C   UNL     1     -30.781 -10.363   3.785 -0.13 +0.00    +0.029 A  
DOCKED: ATOM     23  F   UNL     1     -30.892  -9.678   1.522 -0.03 -0.00    -0.204 F  
DOCKED: ATOM     24  C   UNL     1     -31.242 -10.250   5.098 -0.10 +0.00    +0.001 A  
DOCKED: ENDBRANCH   2  18
DOCKED: TORSDOF 5
DOCKED: TER
DOCKED: ENDMDL
________________________________________________________________________________


    FINAL DOCKED STATE:
    ________________________


Run:   376 / 512
Time taken for this run:   0.002s

DOCKED: MODEL        376
DOCKED: USER    Run = 376
DOCKED: USER
DOCKED: USER    Estimated Free Energy of Binding    =  -3.50 kcal/mol  [=(1)+(2)+(3)-(4)]
DOCKED: USER
DOCKED: USER    (1) Final Intermolecular Energy     =  -4.99 kcal/mol
DOCKED: USER        vdW + Hbond + desolv Energy     =  -4.99 kcal/mol
DOCKED: USER        Electrostatic Energy            =  +0.00 kcal/mol
DOCKED: USER        Moving Ligand-Fixed Receptor    =  -4.99 kcal/mol
DOCKED: USER        Moving Ligand-Moving Receptor   =  +0.00 kcal/mol
DOCKED: USER    (2) Final Total Internal Energy     =  -1.36 kcal/mol
DOCKED: USER    (3) Torsional Free Energy           =  +1.49 kcal/mol
DOCKED: USER    (4) Unbound System's Energy         =  -1.36 kcal/mol
DOCKED: USER
DOCKED: USER
DOCKED: REMARK  5 active torsions:
DOCKED: REMARK  status: ('A' for Active; 'I' for Inactive)
DOCKED: REMARK    1  A    between atoms: C_2  and  C_19 
DOCKED: REMARK    2  A    between atoms: C_2  and  C_11 
DOCKED: REMARK    3  A    between atoms: C_19  and  C_20 
DOCKED: REMARK    4  A    between atoms: C_20  and  C_21 
DOCKED: REMARK    5  A    between atoms: C_21  and  N_22 
DOCKED: USER                              x       y       z     vdW  Elec       q    Type
DOCKED: USER                           _______ _______ _______ _____ _____    ______ ____
DOCKED: ROOT
DOCKED: ATOM      1  O   UNL     1     -38.157 -10.901  16.785 -0.00 -0.00    -0.346 OA 
DOCKED: ATOM      2  C   UNL     1     -36.953 -10.890  15.954 -0.06 +0.00    +0.130 C  
DOCKED: ATOM      3  C   UNL     1     -37.322 -11.742  14.774 -0.15 +0.00    +0.004 A  
DOCKED: ATOM      4  C   UNL     1     -38.655 -12.116  14.867 -0.12 +0.00    +0.006 A  
DOCKED: ATOM      5  C   UNL     1     -39.255 -11.536  16.090 -0.04 +0.00    +0.169 C  
DOCKED: ATOM      6  C   UNL     1     -36.544 -12.144  13.698 -0.27 -0.00    -0.001 A  
DOCKED: ATOM      7  C   UNL     1     -39.253 -12.903  13.898 -0.19 +0.00    +0.008 A  
DOCKED: ATOM      8  C   UNL     1     -37.131 -12.942  12.714 -0.35 +0.00    +0.010 A  
DOCKED: ATOM      9  C   UNL     1     -38.479 -13.319  12.814 -0.26 +0.00    +0.068 A  
DOCKED: ATOM     10  N   UNL     1     -39.538 -14.796  10.968 -2.30 -0.00    -0.191 NA 
DOCKED: ATOM     11  C   UNL     1     -39.063 -14.134  11.796 -0.14 +0.00    +0.101 C  
DOCKED: ENDROOT
DOCKED: BRANCH   2  12
DOCKED: ATOM     12  C   UNL     1     -36.644  -9.448  15.571 -0.05 +0.00    +0.038 C  
DOCKED: BRANCH  12  13
DOCKED: ATOM     13  C   UNL     1     -37.317  -9.065  14.254 -0.10 +0.00    +0.038 C  
DOCKED: BRANCH  13  14
DOCKED: ATOM     14  C   UNL     1     -38.682  -8.425  14.501 -0.04 +0.00    +0.251 C  
DOCKED: BRANCH  14  15
DOCKED: ATOM     15  N   UNL     1     -39.597  -8.747  13.413 -0.15 +0.00    +0.141 N  
DOCKED: ATOM     16  C   UNL     1     -40.012  -7.532  12.710 -0.16 +0.00    +0.285 C  
DOCKED: ATOM     17  C   UNL     1     -38.977  -9.687  12.478 -0.13 +0.00    +0.285 C  
DOCKED: ENDBRANCH  14  15
DOCKED: ENDBRANCH  13  14
DOCKED: ENDBRANCH  12  13
DOCKED: ENDBRANCH   2  12
DOCKED: BRANCH   2  18
DOCKED: ATOM     18  C   UNL     1     -35.852 -11.477  16.772 -0.08 +0.00    +0.006 A  
DOCKED: ATOM     19  C   UNL     1     -34.781 -10.680  17.174 -0.04 +0.00    +0.001 A  
DOCKED: ATOM     20  C   UNL     1     -33.752 -11.230  17.939 -0.04 +0.00    +0.029 A  
DOCKED: ATOM     21  C   UNL     1     -33.795 -12.576  18.302 -0.07 +0.00    +0.140 A  
DOCKED: ATOM     22  C   UNL     1     -34.867 -13.372  17.900 -0.10 +0.00    +0.029 A  
DOCKED: ATOM     23  F   UNL     1     -32.809 -13.103  19.038 -0.01 -0.00    -0.204 F  
DOCKED: ATOM     24  C   UNL     1     -35.897 -12.823  17.134 -0.12 +0.00    +0.001 A  
DOCKED: ENDBRANCH   2  18
DOCKED: TORSDOF 5
DOCKED: TER
DOCKED: ENDMDL
________________________________________________________________________________


    FINAL DOCKED STATE:
    ________________________


Run:   377 / 512
Time taken for this run:   0.002s

DOCKED: MODEL        377
DOCKED: USER    Run = 377
DOCKED: USER
DOCKED: USER    Estimated Free Energy of Binding    =  -5.58 kcal/mol  [=(1)+(2)+(3)-(4)]
DOCKED: USER
DOCKED: USER    (1) Final Intermolecular Energy     =  -7.07 kcal/mol
DOCKED: USER        vdW + Hbond + desolv Energy     =  -7.07 kcal/mol
DOCKED: USER        Electrostatic Energy            =  +0.00 kcal/mol
DOCKED: USER        Moving Ligand-Fixed Receptor    =  -7.07 kcal/mol
DOCKED: USER        Moving Ligand-Moving Receptor   =  +0.00 kcal/mol
DOCKED: USER    (2) Final Total Internal Energy     =  -1.57 kcal/mol
DOCKED: USER    (3) Torsional Free Energy           =  +1.49 kcal/mol
DOCKED: USER    (4) Unbound System's Energy         =  -1.57 kcal/mol
DOCKED: USER
DOCKED: USER
DOCKED: REMARK  5 active torsions:
DOCKED: REMARK  status: ('A' for Active; 'I' for Inactive)
DOCKED: REMARK    1  A    between atoms: C_2  and  C_19 
DOCKED: REMARK    2  A    between atoms: C_2  and  C_11 
DOCKED: REMARK    3  A    between atoms: C_19  and  C_20 
DOCKED: REMARK    4  A    between atoms: C_20  and  C_21 
DOCKED: REMARK    5  A    between atoms: C_21  and  N_22 
DOCKED: USER                              x       y       z     vdW  Elec       q    Type
DOCKED: USER                           _______ _______ _______ _____ _____    ______ ____
DOCKED: ROOT
DOCKED: ATOM      1  O   UNL     1     -37.053 -10.498  13.761 -0.07 -0.00    -0.346 OA 
DOCKED: ATOM      2  C   UNL     1     -36.862 -11.947  13.843 -0.23 +0.00    +0.130 C  
DOCKED: ATOM      3  C   UNL     1     -37.447 -12.461  12.560 -0.34 +0.00    +0.004 A  
DOCKED: ATOM      4  C   UNL     1     -37.838 -11.393  11.764 -0.31 +0.00    +0.006 A  
DOCKED: ATOM      5  C   UNL     1     -37.531 -10.117  12.450 -0.23 +0.00    +0.169 C  
DOCKED: ATOM      6  C   UNL     1     -37.610 -13.768  12.126 -0.42 -0.00    -0.001 A  
DOCKED: ATOM      7  C   UNL     1     -38.405 -11.593  10.517 -0.03 +0.00    +0.008 A  
DOCKED: ATOM      8  C   UNL     1     -38.185 -13.987  10.873 -0.47 +0.00    +0.010 A  
DOCKED: ATOM      9  C   UNL     1     -38.580 -12.904  10.073 -0.40 +0.00    +0.068 A  
DOCKED: ATOM     10  N   UNL     1     -39.639 -13.345   7.749 -2.83 -0.00    -0.191 NA 
DOCKED: ATOM     11  C   UNL     1     -39.164 -13.147   8.792 -0.46 +0.00    +0.101 C  
DOCKED: ENDROOT
DOCKED: BRANCH   2  12
DOCKED: ATOM     12  C   UNL     1     -35.369 -12.230  13.970 -0.20 +0.00    +0.038 C  
DOCKED: BRANCH  12  13
DOCKED: ATOM     13  C   UNL     1     -34.629 -11.047  14.591 -0.18 +0.00    +0.038 C  
DOCKED: BRANCH  13  14
DOCKED: ATOM     14  C   UNL     1     -34.696 -11.095  16.116 -0.06 +0.00    +0.251 C  
DOCKED: BRANCH  14  15
DOCKED: ATOM     15  N   UNL     1     -35.782 -10.253  16.603 -0.02 +0.00    +0.141 N  
DOCKED: ATOM     16  C   UNL     1     -35.713 -10.112  18.058 -0.01 +0.00    +0.285 C  
DOCKED: ATOM     17  C   UNL     1     -35.741  -8.937  15.962 -0.01 +0.00    +0.285 C  
DOCKED: ENDBRANCH  14  15
DOCKED: ENDBRANCH  13  14
DOCKED: ENDBRANCH  12  13
DOCKED: ENDBRANCH   2  12
DOCKED: BRANCH   2  18
DOCKED: ATOM     18  C   UNL     1     -37.604 -12.417  15.050 -0.16 +0.00    +0.006 A  
DOCKED: ATOM     19  C   UNL     1     -38.636 -11.643  15.578 -0.08 +0.00    +0.001 A  
DOCKED: ATOM     20  C   UNL     1     -39.329 -12.083  16.707 -0.06 +0.00    +0.029 A  
DOCKED: ATOM     21  C   UNL     1     -38.989 -13.296  17.304 -0.09 +0.00    +0.140 A  
DOCKED: ATOM     22  C   UNL     1     -37.956 -14.070  16.775 -0.19 +0.00    +0.029 A  
DOCKED: ATOM     23  F   UNL     1     -39.655 -13.719  18.386 -0.01 -0.00    -0.204 F  
DOCKED: ATOM     24  C   UNL     1     -37.262 -13.630  15.647 -0.20 +0.00    +0.001 A  
DOCKED: ENDBRANCH   2  18
DOCKED: TORSDOF 5
DOCKED: TER
DOCKED: ENDMDL
________________________________________________________________________________


    FINAL DOCKED STATE:
    ________________________


Run:   378 / 512
Time taken for this run:   0.002s

DOCKED: MODEL        378
DOCKED: USER    Run = 378
DOCKED: USER
DOCKED: USER    Estimated Free Energy of Binding    =  -3.76 kcal/mol  [=(1)+(2)+(3)-(4)]
DOCKED: USER
DOCKED: USER    (1) Final Intermolecular Energy     =  -5.25 kcal/mol
DOCKED: USER        vdW + Hbond + desolv Energy     =  -5.25 kcal/mol
DOCKED: USER        Electrostatic Energy            =  +0.00 kcal/mol
DOCKED: USER        Moving Ligand-Fixed Receptor    =  -5.25 kcal/mol
DOCKED: USER        Moving Ligand-Moving Receptor   =  +0.00 kcal/mol
DOCKED: USER    (2) Final Total Internal Energy     =  -1.00 kcal/mol
DOCKED: USER    (3) Torsional Free Energy           =  +1.49 kcal/mol
DOCKED: USER    (4) Unbound System's Energy         =  -1.00 kcal/mol
DOCKED: USER
DOCKED: USER
DOCKED: REMARK  5 active torsions:
DOCKED: REMARK  status: ('A' for Active; 'I' for Inactive)
DOCKED: REMARK    1  A    between atoms: C_2  and  C_19 
DOCKED: REMARK    2  A    between atoms: C_2  and  C_11 
DOCKED: REMARK    3  A    between atoms: C_19  and  C_20 
DOCKED: REMARK    4  A    between atoms: C_20  and  C_21 
DOCKED: REMARK    5  A    between atoms: C_21  and  N_22 
DOCKED: USER                              x       y       z     vdW  Elec       q    Type
DOCKED: USER                           _______ _______ _______ _____ _____    ______ ____
DOCKED: ROOT
DOCKED: ATOM      1  O   UNL     1     -32.817  -9.079   6.858 -0.03 -0.00    -0.346 OA 
DOCKED: ATOM      2  C   UNL     1     -31.379  -9.325   6.980 -0.09 +0.00    +0.130 C  
DOCKED: ATOM      3  C   UNL     1     -31.300 -10.676   7.632 -0.16 +0.00    +0.004 A  
DOCKED: ATOM      4  C   UNL     1     -32.576 -11.204   7.768 -0.31 +0.00    +0.006 A  
DOCKED: ATOM      5  C   UNL     1     -33.572 -10.260   7.214 -0.29 +0.00    +0.169 C  
DOCKED: ATOM      6  C   UNL     1     -30.187 -11.385   8.058 -0.09 -0.00    -0.001 A  
DOCKED: ATOM      7  C   UNL     1     -32.784 -12.449   8.336 -0.20 +0.00    +0.008 A  
DOCKED: ATOM      8  C   UNL     1     -30.380 -12.640   8.637 -0.17 +0.00    +0.010 A  
DOCKED: ATOM      9  C   UNL     1     -31.672 -13.170   8.775 -0.31 +0.00    +0.068 A  
DOCKED: ATOM     10  N   UNL     1     -31.995 -15.505   9.849 -2.41 -0.00    -0.191 NA 
DOCKED: ATOM     11  C   UNL     1     -31.851 -14.457   9.368 -0.36 +0.00    +0.101 C  
DOCKED: ENDROOT
DOCKED: BRANCH   2  12
DOCKED: ATOM     12  C   UNL     1     -30.765  -9.302   5.586 -0.09 +0.00    +0.038 C  
DOCKED: BRANCH  12  13
DOCKED: ATOM     13  C   UNL     1     -31.819  -9.021   4.517 -0.18 +0.00    +0.038 C  
DOCKED: BRANCH  13  14
DOCKED: ATOM     14  C   UNL     1     -31.208  -9.062   3.118 -0.11 +0.00    +0.251 C  
DOCKED: BRANCH  14  15
DOCKED: ATOM     15  N   UNL     1     -31.899  -8.130   2.235 -0.13 +0.00    +0.141 N  
DOCKED: ATOM     16  C   UNL     1     -33.216  -7.788   2.775 -0.19 +0.00    +0.285 C  
DOCKED: ATOM     17  C   UNL     1     -31.101  -6.918   2.039 -0.03 +0.00    +0.285 C  
DOCKED: ENDBRANCH  14  15
DOCKED: ENDBRANCH  13  14
DOCKED: ENDBRANCH  12  13
DOCKED: ENDBRANCH   2  12
DOCKED: BRANCH   2  18
DOCKED: ATOM     18  C   UNL     1     -30.821  -8.235   7.833 -0.03 +0.00    +0.006 A  
DOCKED: ATOM     19  C   UNL     1     -29.455  -8.196   8.109 -0.01 +0.00    +0.001 A  
DOCKED: ATOM     20  C   UNL     1     -28.934  -7.177   8.907 -0.00 +0.00    +0.029 A  
DOCKED: ATOM     21  C   UNL     1     -29.779  -6.198   9.426 -0.00 +0.00    +0.140 A  
DOCKED: ATOM     22  C   UNL     1     -31.146  -6.236   9.150 -0.01 +0.00    +0.029 A  
DOCKED: ATOM     23  F   UNL     1     -29.279  -5.218  10.190 +0.00 -0.00    -0.204 F  
DOCKED: ATOM     24  C   UNL     1     -31.668  -7.256   8.352 -0.03 +0.00    +0.001 A  
DOCKED: ENDBRANCH   2  18
DOCKED: TORSDOF 5
DOCKED: TER
DOCKED: ENDMDL
________________________________________________________________________________


    FINAL DOCKED STATE:
    ________________________


Run:   379 / 512
Time taken for this run:   0.002s

DOCKED: MODEL        379
DOCKED: USER    Run = 379
DOCKED: USER
DOCKED: USER    Estimated Free Energy of Binding    =  -6.37 kcal/mol  [=(1)+(2)+(3)-(4)]
DOCKED: USER
DOCKED: USER    (1) Final Intermolecular Energy     =  -7.86 kcal/mol
DOCKED: USER        vdW + Hbond + desolv Energy     =  -7.86 kcal/mol
DOCKED: USER        Electrostatic Energy            =  +0.00 kcal/mol
DOCKED: USER        Moving Ligand-Fixed Receptor    =  -7.86 kcal/mol
DOCKED: USER        Moving Ligand-Moving Receptor   =  +0.00 kcal/mol
DOCKED: USER    (2) Final Total Internal Energy     =  -0.96 kcal/mol
DOCKED: USER    (3) Torsional Free Energy           =  +1.49 kcal/mol
DOCKED: USER    (4) Unbound System's Energy         =  -0.96 kcal/mol
DOCKED: USER
DOCKED: USER
DOCKED: REMARK  5 active torsions:
DOCKED: REMARK  status: ('A' for Active; 'I' for Inactive)
DOCKED: REMARK    1  A    between atoms: C_2  and  C_19 
DOCKED: REMARK    2  A    between atoms: C_2  and  C_11 
DOCKED: REMARK    3  A    between atoms: C_19  and  C_20 
DOCKED: REMARK    4  A    between atoms: C_20  and  C_21 
DOCKED: REMARK    5  A    between atoms: C_21  and  N_22 
DOCKED: USER                              x       y       z     vdW  Elec       q    Type
DOCKED: USER                           _______ _______ _______ _____ _____    ______ ____
DOCKED: ROOT
DOCKED: ATOM      1  O   UNL     1     -36.389 -14.661  13.718 -0.35 -0.00    -0.346 OA 
DOCKED: ATOM      2  C   UNL     1     -37.349 -13.594  14.004 -0.29 +0.00    +0.130 C  
DOCKED: ATOM      3  C   UNL     1     -37.964 -13.297  12.667 -0.36 +0.00    +0.004 A  
DOCKED: ATOM      4  C   UNL     1     -37.480 -14.190  11.721 -0.34 +0.00    +0.006 A  
DOCKED: ATOM      5  C   UNL     1     -36.535 -15.134  12.359 -0.19 +0.00    +0.169 C  
DOCKED: ATOM      6  C   UNL     1     -38.887 -12.322  12.318 -0.30 -0.00    -0.001 A  
DOCKED: ATOM      7  C   UNL     1     -37.895 -14.137  10.401 -0.19 +0.00    +0.008 A  
DOCKED: ATOM      8  C   UNL     1     -39.312 -12.253  10.990 -0.31 +0.00    +0.010 A  
DOCKED: ATOM      9  C   UNL     1     -38.819 -13.156  10.037 -0.45 +0.00    +0.068 A  
DOCKED: ATOM     10  N   UNL     1     -39.633 -13.003   7.582 -3.16 -0.00    -0.191 NA 
DOCKED: ATOM     11  C   UNL     1     -39.267 -13.071   8.683 -0.38 +0.00    +0.101 C  
DOCKED: ENDROOT
DOCKED: BRANCH   2  12
DOCKED: ATOM     12  C   UNL     1     -38.360 -14.114  15.020 -0.30 +0.00    +0.038 C  
DOCKED: BRANCH  12  13
DOCKED: ATOM     13  C   UNL     1     -39.692 -13.374  14.908 -0.21 +0.00    +0.038 C  
DOCKED: BRANCH  13  14
DOCKED: ATOM     14  C   UNL     1     -39.765 -12.220  15.905 -0.04 +0.00    +0.251 C  
DOCKED: BRANCH  14  15
DOCKED: ATOM     15  N   UNL     1     -40.580 -12.594  17.055 -0.05 +0.00    +0.141 N  
DOCKED: ATOM     16  C   UNL     1     -41.584 -13.589  16.674 -0.05 +0.00    +0.285 C  
DOCKED: ATOM     17  C   UNL     1     -39.740 -13.110  18.137 -0.04 +0.00    +0.285 C  
DOCKED: ENDBRANCH  14  15
DOCKED: ENDBRANCH  13  14
DOCKED: ENDBRANCH  12  13
DOCKED: ENDBRANCH   2  12
DOCKED: BRANCH   2  18
DOCKED: ATOM     18  C   UNL     1     -36.573 -12.445  14.555 -0.22 +0.00    +0.006 A  
DOCKED: ATOM     19  C   UNL     1     -36.141 -11.426  13.708 -0.21 +0.00    +0.001 A  
DOCKED: ATOM     20  C   UNL     1     -35.415 -10.352  14.225 -0.14 +0.00    +0.029 A  
DOCKED: ATOM     21  C   UNL     1     -35.123 -10.299  15.587 -0.06 +0.00    +0.140 A  
DOCKED: ATOM     22  C   UNL     1     -35.556 -11.319  16.434 -0.08 +0.00    +0.029 A  
DOCKED: ATOM     23  F   UNL     1     -34.428  -9.268  16.084 -0.00 -0.00    -0.204 F  
DOCKED: ATOM     24  C   UNL     1     -36.282 -12.394  15.918 -0.13 +0.00    +0.001 A  
DOCKED: ENDBRANCH   2  18
DOCKED: TORSDOF 5
DOCKED: TER
DOCKED: ENDMDL
________________________________________________________________________________


    FINAL DOCKED STATE:
    ________________________


Run:   380 / 512
Time taken for this run:   0.002s

DOCKED: MODEL        380
DOCKED: USER    Run = 380
DOCKED: USER
DOCKED: USER    Estimated Free Energy of Binding    =  -4.77 kcal/mol  [=(1)+(2)+(3)-(4)]
DOCKED: USER
DOCKED: USER    (1) Final Intermolecular Energy     =  -6.26 kcal/mol
DOCKED: USER        vdW + Hbond + desolv Energy     =  -6.26 kcal/mol
DOCKED: USER        Electrostatic Energy            =  +0.00 kcal/mol
DOCKED: USER        Moving Ligand-Fixed Receptor    =  -6.26 kcal/mol
DOCKED: USER        Moving Ligand-Moving Receptor   =  +0.00 kcal/mol
DOCKED: USER    (2) Final Total Internal Energy     =  -1.13 kcal/mol
DOCKED: USER    (3) Torsional Free Energy           =  +1.49 kcal/mol
DOCKED: USER    (4) Unbound System's Energy         =  -1.13 kcal/mol
DOCKED: USER
DOCKED: USER
DOCKED: REMARK  5 active torsions:
DOCKED: REMARK  status: ('A' for Active; 'I' for Inactive)
DOCKED: REMARK    1  A    between atoms: C_2  and  C_19 
DOCKED: REMARK    2  A    between atoms: C_2  and  C_11 
DOCKED: REMARK    3  A    between atoms: C_19  and  C_20 
DOCKED: REMARK    4  A    between atoms: C_20  and  C_21 
DOCKED: REMARK    5  A    between atoms: C_21  and  N_22 
DOCKED: USER                              x       y       z     vdW  Elec       q    Type
DOCKED: USER                           _______ _______ _______ _____ _____    ______ ____
DOCKED: ROOT
DOCKED: ATOM      1  O   UNL     1     -36.647 -13.794  14.677 -0.06 -0.00    -0.346 OA 
DOCKED: ATOM      2  C   UNL     1     -37.294 -12.485  14.577 -0.18 +0.00    +0.130 C  
DOCKED: ATOM      3  C   UNL     1     -37.804 -12.444  13.166 -0.29 +0.00    +0.004 A  
DOCKED: ATOM      4  C   UNL     1     -37.568 -13.663  12.548 -0.38 +0.00    +0.006 A  
DOCKED: ATOM      5  C   UNL     1     -36.906 -14.587  13.496 -0.12 +0.00    +0.169 C  
DOCKED: ATOM      6  C   UNL     1     -38.437 -11.413  12.487 -0.30 -0.00    -0.001 A  
DOCKED: ATOM      7  C   UNL     1     -37.949 -13.893  11.237 -0.44 +0.00    +0.008 A  
DOCKED: ATOM      8  C   UNL     1     -38.824 -11.627  11.163 -0.16 +0.00    +0.010 A  
DOCKED: ATOM      9  C   UNL     1     -38.581 -12.861  10.541 -0.40 +0.00    +0.068 A  
DOCKED: ATOM     10  N   UNL     1     -39.317 -13.227   8.084 -2.20 -0.00    -0.191 NA 
DOCKED: ATOM     11  C   UNL     1     -38.986 -13.063   9.186 -0.50 +0.00    +0.101 C  
DOCKED: ENDROOT
DOCKED: BRANCH   2  12
DOCKED: ATOM     12  C   UNL     1     -38.409 -12.418  15.614 -0.14 +0.00    +0.038 C  
DOCKED: BRANCH  12  13
DOCKED: ATOM     13  C   UNL     1     -39.169 -13.740  15.701 -0.22 +0.00    +0.038 C  
DOCKED: BRANCH  13  14
DOCKED: ATOM     14  C   UNL     1     -40.392 -13.732  14.785 -0.11 +0.00    +0.251 C  
DOCKED: BRANCH  14  15
DOCKED: ATOM     15  N   UNL     1     -41.617 -13.688  15.574 -0.11 +0.00    +0.141 N  
DOCKED: ATOM     16  C   UNL     1     -41.343 -14.030  16.971 -0.06 +0.00    +0.285 C  
DOCKED: ATOM     17  C   UNL     1     -42.238 -12.365  15.488 -0.02 +0.00    +0.285 C  
DOCKED: ENDBRANCH  14  15
DOCKED: ENDBRANCH  13  14
DOCKED: ENDBRANCH  12  13
DOCKED: ENDBRANCH   2  12
DOCKED: BRANCH   2  18
DOCKED: ATOM     18  C   UNL     1     -36.246 -11.458  14.847 -0.16 +0.00    +0.006 A  
DOCKED: ATOM     19  C   UNL     1     -35.172 -11.311  13.970 -0.13 +0.00    +0.001 A  
DOCKED: ATOM     20  C   UNL     1     -34.192 -10.351  14.224 -0.12 +0.00    +0.029 A  
DOCKED: ATOM     21  C   UNL     1     -34.288  -9.539  15.353 -0.04 +0.00    +0.140 A  
DOCKED: ATOM     22  C   UNL     1     -35.362  -9.686  16.230 -0.03 +0.00    +0.029 A  
DOCKED: ATOM     23  F   UNL     1     -33.348  -8.615  15.595 -0.00 -0.00    -0.204 F  
DOCKED: ATOM     24  C   UNL     1     -36.342 -10.647  15.977 -0.07 +0.00    +0.001 A  
DOCKED: ENDBRANCH   2  18
DOCKED: TORSDOF 5
DOCKED: TER
DOCKED: ENDMDL
________________________________________________________________________________


    FINAL DOCKED STATE:
    ________________________


Run:   381 / 512
Time taken for this run:   0.002s

DOCKED: MODEL        381
DOCKED: USER    Run = 381
DOCKED: USER
DOCKED: USER    Estimated Free Energy of Binding    =  -2.97 kcal/mol  [=(1)+(2)+(3)-(4)]
DOCKED: USER
DOCKED: USER    (1) Final Intermolecular Energy     =  -4.46 kcal/mol
DOCKED: USER        vdW + Hbond + desolv Energy     =  -4.46 kcal/mol
DOCKED: USER        Electrostatic Energy            =  +0.00 kcal/mol
DOCKED: USER        Moving Ligand-Fixed Receptor    =  -4.46 kcal/mol
DOCKED: USER        Moving Ligand-Moving Receptor   =  +0.00 kcal/mol
DOCKED: USER    (2) Final Total Internal Energy     =  -1.45 kcal/mol
DOCKED: USER    (3) Torsional Free Energy           =  +1.49 kcal/mol
DOCKED: USER    (4) Unbound System's Energy         =  -1.45 kcal/mol
DOCKED: USER
DOCKED: USER
DOCKED: REMARK  5 active torsions:
DOCKED: REMARK  status: ('A' for Active; 'I' for Inactive)
DOCKED: REMARK    1  A    between atoms: C_2  and  C_19 
DOCKED: REMARK    2  A    between atoms: C_2  and  C_11 
DOCKED: REMARK    3  A    between atoms: C_19  and  C_20 
DOCKED: REMARK    4  A    between atoms: C_20  and  C_21 
DOCKED: REMARK    5  A    between atoms: C_21  and  N_22 
DOCKED: USER                              x       y       z     vdW  Elec       q    Type
DOCKED: USER                           _______ _______ _______ _____ _____    ______ ____
DOCKED: ROOT
DOCKED: ATOM      1  O   UNL     1     -30.442  -4.703   0.858 +0.01 -0.00    -0.346 OA 
DOCKED: ATOM      2  C   UNL     1     -30.141  -3.313   1.200 -0.01 +0.00    +0.130 C  
DOCKED: ATOM      3  C   UNL     1     -31.465  -2.616   1.074 -0.06 +0.00    +0.004 A  
DOCKED: ATOM      4  C   UNL     1     -32.456  -3.545   0.793 -0.15 +0.00    +0.006 A  
DOCKED: ATOM      5  C   UNL     1     -31.869  -4.902   0.727 -0.11 +0.00    +0.169 C  
DOCKED: ATOM      6  C   UNL     1     -31.769  -1.270   1.209 -0.12 -0.00    -0.001 A  
DOCKED: ATOM      7  C   UNL     1     -33.777  -3.164   0.633 -0.18 +0.00    +0.008 A  
DOCKED: ATOM      8  C   UNL     1     -33.096  -0.868   1.046 -0.24 +0.00    +0.010 A  
DOCKED: ATOM      9  C   UNL     1     -34.095  -1.811   0.760 -0.29 +0.00    +0.068 A  
DOCKED: ATOM     10  N   UNL     1     -36.549  -1.032   0.469 -2.55 -0.00    -0.191 NA 
DOCKED: ATOM     11  C   UNL     1     -35.448  -1.381   0.599 -0.36 +0.00    +0.101 C  
DOCKED: ENDROOT
DOCKED: BRANCH   2  12
DOCKED: ATOM     12  C   UNL     1     -29.583  -3.275   2.618 -0.01 +0.00    +0.038 C  
DOCKED: BRANCH  12  13
DOCKED: ATOM     13  C   UNL     1     -30.658  -2.879   3.629 -0.04 +0.00    +0.038 C  
DOCKED: BRANCH  13  14
DOCKED: ATOM     14  C   UNL     1     -31.169  -4.099   4.393 -0.02 +0.00    +0.251 C  
DOCKED: BRANCH  14  15
DOCKED: ATOM     15  N   UNL     1     -32.599  -3.974   4.650 -0.08 +0.00    +0.141 N  
DOCKED: ATOM     16  C   UNL     1     -33.077  -2.645   4.268 -0.10 +0.00    +0.285 C  
DOCKED: ATOM     17  C   UNL     1     -33.344  -5.009   3.931 -0.12 +0.00    +0.285 C  
DOCKED: ENDBRANCH  14  15
DOCKED: ENDBRANCH  13  14
DOCKED: ENDBRANCH  12  13
DOCKED: ENDBRANCH   2  12
DOCKED: BRANCH   2  18
DOCKED: ATOM     18  C   UNL     1     -29.132  -2.829   0.212 -0.01 +0.00    +0.006 A  
DOCKED: ATOM     19  C   UNL     1     -27.821  -2.584   0.618 -0.00 +0.00    +0.001 A  
DOCKED: ATOM     20  C   UNL     1     -26.880  -2.131  -0.307 -0.00 +0.00    +0.029 A  
DOCKED: ATOM     21  C   UNL     1     -27.250  -1.924  -1.635 +0.00 +0.00    +0.140 A  
DOCKED: ATOM     22  C   UNL     1     -28.562  -2.170  -2.040 -0.01 +0.00    +0.029 A  
DOCKED: ATOM     23  F   UNL     1     -26.345  -1.492  -2.523 +0.00 -0.00    -0.204 F  
DOCKED: ATOM     24  C   UNL     1     -29.504  -2.622  -1.116 -0.02 +0.00    +0.001 A  
DOCKED: ENDBRANCH   2  18
DOCKED: TORSDOF 5
DOCKED: TER
DOCKED: ENDMDL
________________________________________________________________________________


    FINAL DOCKED STATE:
    ________________________


Run:   382 / 512
Time taken for this run:   0.002s

DOCKED: MODEL        382
DOCKED: USER    Run = 382
DOCKED: USER
DOCKED: USER    Estimated Free Energy of Binding    =  -4.14 kcal/mol  [=(1)+(2)+(3)-(4)]
DOCKED: USER
DOCKED: USER    (1) Final Intermolecular Energy     =  -5.64 kcal/mol
DOCKED: USER        vdW + Hbond + desolv Energy     =  -5.64 kcal/mol
DOCKED: USER        Electrostatic Energy            =  +0.00 kcal/mol
DOCKED: USER        Moving Ligand-Fixed Receptor    =  -5.64 kcal/mol
DOCKED: USER        Moving Ligand-Moving Receptor   =  +0.00 kcal/mol
DOCKED: USER    (2) Final Total Internal Energy     =  -1.34 kcal/mol
DOCKED: USER    (3) Torsional Free Energy           =  +1.49 kcal/mol
DOCKED: USER    (4) Unbound System's Energy         =  -1.34 kcal/mol
DOCKED: USER
DOCKED: USER
DOCKED: REMARK  5 active torsions:
DOCKED: REMARK  status: ('A' for Active; 'I' for Inactive)
DOCKED: REMARK    1  A    between atoms: C_2  and  C_19 
DOCKED: REMARK    2  A    between atoms: C_2  and  C_11 
DOCKED: REMARK    3  A    between atoms: C_19  and  C_20 
DOCKED: REMARK    4  A    between atoms: C_20  and  C_21 
DOCKED: REMARK    5  A    between atoms: C_21  and  N_22 
DOCKED: USER                              x       y       z     vdW  Elec       q    Type
DOCKED: USER                           _______ _______ _______ _____ _____    ______ ____
DOCKED: ROOT
DOCKED: ATOM      1  O   UNL     1     -34.670 -10.494  14.554 -0.07 -0.00    -0.346 OA 
DOCKED: ATOM      2  C   UNL     1     -35.898  -9.708  14.426 -0.10 +0.00    +0.130 C  
DOCKED: ATOM      3  C   UNL     1     -36.850 -10.637  13.730 -0.19 +0.00    +0.004 A  
DOCKED: ATOM      4  C   UNL     1     -36.256 -11.881  13.572 -0.24 +0.00    +0.006 A  
DOCKED: ATOM      5  C   UNL     1     -34.896 -11.866  14.156 -0.10 +0.00    +0.169 C  
DOCKED: ATOM      6  C   UNL     1     -38.141 -10.403  13.282 -0.21 -0.00    -0.001 A  
DOCKED: ATOM      7  C   UNL     1     -36.926 -12.927  12.962 -0.35 +0.00    +0.008 A  
DOCKED: ATOM      8  C   UNL     1     -38.829 -11.447  12.660 -0.26 +0.00    +0.010 A  
DOCKED: ATOM      9  C   UNL     1     -38.224 -12.703  12.501 -0.29 +0.00    +0.068 A  
DOCKED: ATOM     10  N   UNL     1     -39.531 -14.620  11.347 -2.56 -0.00    -0.191 NA 
DOCKED: ATOM     11  C   UNL     1     -38.944 -13.760  11.864 -0.35 +0.00    +0.101 C  
DOCKED: ENDROOT
DOCKED: BRANCH   2  12
DOCKED: ATOM     12  C   UNL     1     -36.367  -9.315  15.822 -0.04 +0.00    +0.038 C  
DOCKED: BRANCH  12  13
DOCKED: ATOM     13  C   UNL     1     -35.993 -10.376  16.855 -0.04 +0.00    +0.038 C  
DOCKED: BRANCH  13  14
DOCKED: ATOM     14  C   UNL     1     -37.177 -11.294  17.154 -0.03 +0.00    +0.251 C  
DOCKED: BRANCH  14  15
DOCKED: ATOM     15  N   UNL     1     -36.737 -12.682  17.224 -0.09 +0.00    +0.141 N  
DOCKED: ATOM     16  C   UNL     1     -36.823 -13.181  18.598 -0.07 +0.00    +0.285 C  
DOCKED: ATOM     17  C   UNL     1     -37.535 -13.522  16.329 -0.13 +0.00    +0.285 C  
DOCKED: ENDBRANCH  14  15
DOCKED: ENDBRANCH  13  14
DOCKED: ENDBRANCH  12  13
DOCKED: ENDBRANCH   2  12
DOCKED: BRANCH   2  18
DOCKED: ATOM     18  C   UNL     1     -35.562  -8.503  13.612 -0.12 +0.00    +0.006 A  
DOCKED: ATOM     19  C   UNL     1     -35.421  -8.613  12.230 -0.15 +0.00    +0.001 A  
DOCKED: ATOM     20  C   UNL     1     -35.106  -7.486  11.470 -0.13 +0.00    +0.029 A  
DOCKED: ATOM     21  C   UNL     1     -34.933  -6.251  12.093 -0.05 +0.00    +0.140 A  
DOCKED: ATOM     22  C   UNL     1     -35.074  -6.141  13.476 -0.03 +0.00    +0.029 A  
DOCKED: ATOM     23  F   UNL     1     -34.632  -5.169  11.364 -0.00 -0.00    -0.204 F  
DOCKED: ATOM     24  C   UNL     1     -35.388  -7.268  14.237 -0.04 +0.00    +0.001 A  
DOCKED: ENDBRANCH   2  18
DOCKED: TORSDOF 5
DOCKED: TER
DOCKED: ENDMDL
________________________________________________________________________________


    FINAL DOCKED STATE:
    ________________________


Run:   383 / 512
Time taken for this run:   0.002s

DOCKED: MODEL        383
DOCKED: USER    Run = 383
DOCKED: USER
DOCKED: USER    Estimated Free Energy of Binding    =  -4.36 kcal/mol  [=(1)+(2)+(3)-(4)]
DOCKED: USER
DOCKED: USER    (1) Final Intermolecular Energy     =  -5.85 kcal/mol
DOCKED: USER        vdW + Hbond + desolv Energy     =  -5.85 kcal/mol
DOCKED: USER        Electrostatic Energy            =  +0.00 kcal/mol
DOCKED: USER        Moving Ligand-Fixed Receptor    =  -5.85 kcal/mol
DOCKED: USER        Moving Ligand-Moving Receptor   =  +0.00 kcal/mol
DOCKED: USER    (2) Final Total Internal Energy     =  -1.20 kcal/mol
DOCKED: USER    (3) Torsional Free Energy           =  +1.49 kcal/mol
DOCKED: USER    (4) Unbound System's Energy         =  -1.20 kcal/mol
DOCKED: USER
DOCKED: USER
DOCKED: REMARK  5 active torsions:
DOCKED: REMARK  status: ('A' for Active; 'I' for Inactive)
DOCKED: REMARK    1  A    between atoms: C_2  and  C_19 
DOCKED: REMARK    2  A    between atoms: C_2  and  C_11 
DOCKED: REMARK    3  A    between atoms: C_19  and  C_20 
DOCKED: REMARK    4  A    between atoms: C_20  and  C_21 
DOCKED: REMARK    5  A    between atoms: C_21  and  N_22 
DOCKED: USER                              x       y       z     vdW  Elec       q    Type
DOCKED: USER                           _______ _______ _______ _____ _____    ______ ____
DOCKED: ROOT
DOCKED: ATOM      1  O   UNL     1     -34.796 -10.369  14.524 -0.07 -0.00    -0.346 OA 
DOCKED: ATOM      2  C   UNL     1     -35.684  -9.523  13.725 -0.14 +0.00    +0.130 C  
DOCKED: ATOM      3  C   UNL     1     -36.627 -10.499  13.082 -0.21 +0.00    +0.004 A  
DOCKED: ATOM      4  C   UNL     1     -36.372 -11.777  13.558 -0.24 +0.00    +0.006 A  
DOCKED: ATOM      5  C   UNL     1     -35.268 -11.736  14.543 -0.17 +0.00    +0.169 C  
DOCKED: ATOM      6  C   UNL     1     -37.637 -10.271  12.159 -0.26 -0.00    -0.001 A  
DOCKED: ATOM      7  C   UNL     1     -37.110 -12.866  13.127 -0.34 +0.00    +0.008 A  
DOCKED: ATOM      8  C   UNL     1     -38.387 -11.360  11.712 -0.33 +0.00    +0.010 A  
DOCKED: ATOM      9  C   UNL     1     -38.125 -12.651  12.194 -0.31 +0.00    +0.068 A  
DOCKED: ATOM     10  N   UNL     1     -39.540 -14.649  11.347 -2.56 -0.00    -0.191 NA 
DOCKED: ATOM     11  C   UNL     1     -38.905 -13.753  11.726 -0.38 +0.00    +0.101 C  
DOCKED: ENDROOT
DOCKED: BRANCH   2  12
DOCKED: ATOM     12  C   UNL     1     -36.387  -8.544  14.658 -0.06 +0.00    +0.038 C  
DOCKED: BRANCH  12  13
DOCKED: ATOM     13  C   UNL     1     -36.891  -9.242  15.919 -0.03 +0.00    +0.038 C  
DOCKED: BRANCH  13  14
DOCKED: ATOM     14  C   UNL     1     -38.236  -9.923  15.670 -0.02 +0.00    +0.251 C  
DOCKED: BRANCH  14  15
DOCKED: ATOM     15  N   UNL     1     -38.671 -10.638  16.864 -0.01 +0.00    +0.141 N  
DOCKED: ATOM     16  C   UNL     1     -38.741 -12.077  16.607 -0.03 +0.00    +0.285 C  
DOCKED: ATOM     17  C   UNL     1     -37.770 -10.366  17.985 -0.00 +0.00    +0.285 C  
DOCKED: ENDBRANCH  14  15
DOCKED: ENDBRANCH  13  14
DOCKED: ENDBRANCH  12  13
DOCKED: ENDBRANCH   2  12
DOCKED: BRANCH   2  18
DOCKED: ATOM     18  C   UNL     1     -34.828  -8.804  12.736 -0.13 +0.00    +0.006 A  
DOCKED: ATOM     19  C   UNL     1     -33.439  -8.858  12.848 -0.11 +0.00    +0.001 A  
DOCKED: ATOM     20  C   UNL     1     -32.640  -8.185  11.923 -0.09 +0.00    +0.029 A  
DOCKED: ATOM     21  C   UNL     1     -33.229  -7.461  10.888 -0.08 +0.00    +0.140 A  
DOCKED: ATOM     22  C   UNL     1     -34.619  -7.408  10.777 -0.14 +0.00    +0.029 A  
DOCKED: ATOM     23  F   UNL     1     -32.462  -6.816   9.999 -0.00 -0.00    -0.204 F  
DOCKED: ATOM     24  C   UNL     1     -35.419  -8.080  11.702 -0.15 +0.00    +0.001 A  
DOCKED: ENDBRANCH   2  18
DOCKED: TORSDOF 5
DOCKED: TER
DOCKED: ENDMDL
________________________________________________________________________________


    FINAL DOCKED STATE:
    ________________________


Run:   384 / 512
Time taken for this run:   0.002s

DOCKED: MODEL        384
DOCKED: USER    Run = 384
DOCKED: USER
DOCKED: USER    Estimated Free Energy of Binding    =  -3.61 kcal/mol  [=(1)+(2)+(3)-(4)]
DOCKED: USER
DOCKED: USER    (1) Final Intermolecular Energy     =  -5.10 kcal/mol
DOCKED: USER        vdW + Hbond + desolv Energy     =  -5.10 kcal/mol
DOCKED: USER        Electrostatic Energy            =  +0.00 kcal/mol
DOCKED: USER        Moving Ligand-Fixed Receptor    =  -5.10 kcal/mol
DOCKED: USER        Moving Ligand-Moving Receptor   =  +0.00 kcal/mol
DOCKED: USER    (2) Final Total Internal Energy     =  -1.33 kcal/mol
DOCKED: USER    (3) Torsional Free Energy           =  +1.49 kcal/mol
DOCKED: USER    (4) Unbound System's Energy         =  -1.33 kcal/mol
DOCKED: USER
DOCKED: USER
DOCKED: REMARK  5 active torsions:
DOCKED: REMARK  status: ('A' for Active; 'I' for Inactive)
DOCKED: REMARK    1  A    between atoms: C_2  and  C_19 
DOCKED: REMARK    2  A    between atoms: C_2  and  C_11 
DOCKED: REMARK    3  A    between atoms: C_19  and  C_20 
DOCKED: REMARK    4  A    between atoms: C_20  and  C_21 
DOCKED: REMARK    5  A    between atoms: C_21  and  N_22 
DOCKED: USER                              x       y       z     vdW  Elec       q    Type
DOCKED: USER                           _______ _______ _______ _____ _____    ______ ____
DOCKED: ROOT
DOCKED: ATOM      1  O   UNL     1     -38.070  -9.119  15.020 -0.00 -0.00    -0.346 OA 
DOCKED: ATOM      2  C   UNL     1     -39.448  -9.049  14.532 -0.07 +0.00    +0.130 C  
DOCKED: ATOM      3  C   UNL     1     -39.591 -10.278  13.681 -0.16 +0.00    +0.004 A  
DOCKED: ATOM      4  C   UNL     1     -38.434 -11.040  13.764 -0.16 +0.00    +0.006 A  
DOCKED: ATOM      5  C   UNL     1     -37.465 -10.386  14.672 -0.08 +0.00    +0.169 C  
DOCKED: ATOM      6  C   UNL     1     -40.663 -10.693  12.905 -0.22 -0.00    -0.001 A  
DOCKED: ATOM      7  C   UNL     1     -38.308 -12.234  13.075 -0.26 +0.00    +0.008 A  
DOCKED: ATOM      8  C   UNL     1     -40.549 -11.893  12.201 -0.25 +0.00    +0.010 A  
DOCKED: ATOM      9  C   UNL     1     -39.377 -12.660  12.286 -0.24 +0.00    +0.068 A  
DOCKED: ATOM     10  N   UNL     1     -39.201 -14.884  10.970 -2.38 -0.00    -0.191 NA 
DOCKED: ATOM     11  C   UNL     1     -39.280 -13.886  11.560 -0.35 +0.00    +0.101 C  
DOCKED: ENDROOT
DOCKED: BRANCH   2  12
DOCKED: ATOM     12  C   UNL     1     -40.386  -9.047  15.734 -0.04 +0.00    +0.038 C  
DOCKED: BRANCH  12  13
DOCKED: ATOM     13  C   UNL     1     -39.633  -9.348  17.028 -0.01 +0.00    +0.038 C  
DOCKED: BRANCH  13  14
DOCKED: ATOM     14  C   UNL     1     -39.517 -10.854  17.259 -0.01 +0.00    +0.251 C  
DOCKED: BRANCH  14  15
DOCKED: ATOM     15  N   UNL     1     -40.823 -11.489  17.128 -0.02 +0.00    +0.141 N  
DOCKED: ATOM     16  C   UNL     1     -40.821 -12.451  16.025 -0.02 +0.00    +0.285 C  
DOCKED: ATOM     17  C   UNL     1     -41.201 -12.151  18.378 -0.00 +0.00    +0.285 C  
DOCKED: ENDBRANCH  14  15
DOCKED: ENDBRANCH  13  14
DOCKED: ENDBRANCH  12  13
DOCKED: ENDBRANCH   2  12
DOCKED: BRANCH   2  18
DOCKED: ATOM     18  C   UNL     1     -39.571  -7.783  13.751 -0.13 +0.00    +0.006 A  
DOCKED: ATOM     19  C   UNL     1     -38.547  -7.395  12.889 -0.17 +0.00    +0.001 A  
DOCKED: ATOM     20  C   UNL     1     -38.662  -6.211  12.159 -0.16 +0.00    +0.029 A  
DOCKED: ATOM     21  C   UNL     1     -39.801  -5.418  12.293 -0.12 +0.00    +0.140 A  
DOCKED: ATOM     22  C   UNL     1     -40.825  -5.807  13.156 -0.11 +0.00    +0.029 A  
DOCKED: ATOM     23  F   UNL     1     -39.913  -4.283  11.592 -0.02 -0.00    -0.204 F  
DOCKED: ATOM     24  C   UNL     1     -40.710  -6.991  13.887 -0.11 +0.00    +0.001 A  
DOCKED: ENDBRANCH   2  18
DOCKED: TORSDOF 5
DOCKED: TER
DOCKED: ENDMDL
________________________________________________________________________________


    FINAL DOCKED STATE:
    ________________________


Run:   385 / 512
Time taken for this run:   0.002s

DOCKED: MODEL        385
DOCKED: USER    Run = 385
DOCKED: USER
DOCKED: USER    Estimated Free Energy of Binding    =  -4.68 kcal/mol  [=(1)+(2)+(3)-(4)]
DOCKED: USER
DOCKED: USER    (1) Final Intermolecular Energy     =  -6.17 kcal/mol
DOCKED: USER        vdW + Hbond + desolv Energy     =  -6.17 kcal/mol
DOCKED: USER        Electrostatic Energy            =  +0.00 kcal/mol
DOCKED: USER        Moving Ligand-Fixed Receptor    =  -6.17 kcal/mol
DOCKED: USER        Moving Ligand-Moving Receptor   =  +0.00 kcal/mol
DOCKED: USER    (2) Final Total Internal Energy     =  -1.18 kcal/mol
DOCKED: USER    (3) Torsional Free Energy           =  +1.49 kcal/mol
DOCKED: USER    (4) Unbound System's Energy         =  -1.18 kcal/mol
DOCKED: USER
DOCKED: USER
DOCKED: REMARK  5 active torsions:
DOCKED: REMARK  status: ('A' for Active; 'I' for Inactive)
DOCKED: REMARK    1  A    between atoms: C_2  and  C_19 
DOCKED: REMARK    2  A    between atoms: C_2  and  C_11 
DOCKED: REMARK    3  A    between atoms: C_19  and  C_20 
DOCKED: REMARK    4  A    between atoms: C_20  and  C_21 
DOCKED: REMARK    5  A    between atoms: C_21  and  N_22 
DOCKED: USER                              x       y       z     vdW  Elec       q    Type
DOCKED: USER                           _______ _______ _______ _____ _____    ______ ____
DOCKED: ROOT
DOCKED: ATOM      1  O   UNL     1     -35.872  -4.717   7.271 -0.10 -0.00    -0.346 OA 
DOCKED: ATOM      2  C   UNL     1     -34.552  -4.703   6.639 -0.18 +0.00    +0.130 C  
DOCKED: ATOM      3  C   UNL     1     -34.788  -4.010   5.329 -0.27 +0.00    +0.004 A  
DOCKED: ATOM      4  C   UNL     1     -36.102  -3.568   5.265 -0.23 +0.00    +0.006 A  
DOCKED: ATOM      5  C   UNL     1     -36.813  -3.921   6.514 -0.06 +0.00    +0.169 C  
DOCKED: ATOM      6  C   UNL     1     -33.908  -3.779   4.282 -0.23 -0.00    -0.001 A  
DOCKED: ATOM      7  C   UNL     1     -36.580  -2.887   4.158 -0.29 +0.00    +0.008 A  
DOCKED: ATOM      8  C   UNL     1     -34.376  -3.098   3.157 -0.27 +0.00    +0.010 A  
DOCKED: ATOM      9  C   UNL     1     -35.705  -2.654   3.096 -0.26 +0.00    +0.068 A  
DOCKED: ATOM     10  N   UNL     1     -36.540  -1.389   0.994 -2.39 -0.00    -0.191 NA 
DOCKED: ATOM     11  C   UNL     1     -36.166  -1.957   1.936 -0.34 +0.00    +0.101 C  
DOCKED: ENDROOT
DOCKED: BRANCH   2  12
DOCKED: ATOM     12  C   UNL     1     -33.591  -3.946   7.547 -0.17 +0.00    +0.038 C  
DOCKED: BRANCH  12  13
DOCKED: ATOM     13  C   UNL     1     -32.788  -4.900   8.428 -0.08 +0.00    +0.038 C  
DOCKED: BRANCH  13  14
DOCKED: ATOM     14  C   UNL     1     -32.577  -4.315   9.823 -0.05 +0.00    +0.251 C  
DOCKED: BRANCH  14  15
DOCKED: ATOM     15  N   UNL     1     -33.644  -4.742  10.720 -0.03 +0.00    +0.141 N  
DOCKED: ATOM     16  C   UNL     1     -34.790  -3.836  10.627 -0.06 +0.00    +0.285 C  
DOCKED: ATOM     17  C   UNL     1     -34.056  -6.114  10.414 -0.04 +0.00    +0.285 C  
DOCKED: ENDBRANCH  14  15
DOCKED: ENDBRANCH  13  14
DOCKED: ENDBRANCH  12  13
DOCKED: ENDBRANCH   2  12
DOCKED: BRANCH   2  18
DOCKED: ATOM     18  C   UNL     1     -34.132  -6.126   6.477 -0.15 +0.00    +0.006 A  
DOCKED: ATOM     19  C   UNL     1     -33.117  -6.454   5.580 -0.12 +0.00    +0.001 A  
DOCKED: ATOM     20  C   UNL     1     -32.724  -7.785   5.429 -0.16 +0.00    +0.029 A  
DOCKED: ATOM     21  C   UNL     1     -33.347  -8.784   6.175 -0.18 +0.00    +0.140 A  
DOCKED: ATOM     22  C   UNL     1     -34.362  -8.455   7.073 -0.26 +0.00    +0.029 A  
DOCKED: ATOM     23  F   UNL     1     -32.969 -10.061   6.031 -0.06 -0.00    -0.204 F  
DOCKED: ATOM     24  C   UNL     1     -34.755  -7.124   7.224 -0.21 +0.00    +0.001 A  
DOCKED: ENDBRANCH   2  18
DOCKED: TORSDOF 5
DOCKED: TER
DOCKED: ENDMDL
________________________________________________________________________________


    FINAL DOCKED STATE:
    ________________________


Run:   386 / 512
Time taken for this run:   0.002s

DOCKED: MODEL        386
DOCKED: USER    Run = 386
DOCKED: USER
DOCKED: USER    Estimated Free Energy of Binding    =  -3.51 kcal/mol  [=(1)+(2)+(3)-(4)]
DOCKED: USER
DOCKED: USER    (1) Final Intermolecular Energy     =  -5.00 kcal/mol
DOCKED: USER        vdW + Hbond + desolv Energy     =  -5.00 kcal/mol
DOCKED: USER        Electrostatic Energy            =  +0.00 kcal/mol
DOCKED: USER        Moving Ligand-Fixed Receptor    =  -5.00 kcal/mol
DOCKED: USER        Moving Ligand-Moving Receptor   =  +0.00 kcal/mol
DOCKED: USER    (2) Final Total Internal Energy     =  -1.32 kcal/mol
DOCKED: USER    (3) Torsional Free Energy           =  +1.49 kcal/mol
DOCKED: USER    (4) Unbound System's Energy         =  -1.32 kcal/mol
DOCKED: USER
DOCKED: USER
DOCKED: REMARK  5 active torsions:
DOCKED: REMARK  status: ('A' for Active; 'I' for Inactive)
DOCKED: REMARK    1  A    between atoms: C_2  and  C_19 
DOCKED: REMARK    2  A    between atoms: C_2  and  C_11 
DOCKED: REMARK    3  A    between atoms: C_19  and  C_20 
DOCKED: REMARK    4  A    between atoms: C_20  and  C_21 
DOCKED: REMARK    5  A    between atoms: C_21  and  N_22 
DOCKED: USER                              x       y       z     vdW  Elec       q    Type
DOCKED: USER                           _______ _______ _______ _____ _____    ______ ____
DOCKED: ROOT
DOCKED: ATOM      1  O   UNL     1     -28.527 -11.090   5.391 +0.01 -0.00    -0.346 OA 
DOCKED: ATOM      2  C   UNL     1     -29.543 -10.263   6.045 -0.04 +0.00    +0.130 C  
DOCKED: ATOM      3  C   UNL     1     -30.241 -11.218   6.971 -0.09 +0.00    +0.004 A  
DOCKED: ATOM      4  C   UNL     1     -29.609 -12.452   6.932 -0.09 +0.00    +0.006 A  
DOCKED: ATOM      5  C   UNL     1     -28.459 -12.399   6.002 -0.02 +0.00    +0.169 C  
DOCKED: ATOM      6  C   UNL     1     -31.340 -11.006   7.791 -0.18 -0.00    -0.001 A  
DOCKED: ATOM      7  C   UNL     1     -30.053 -13.514   7.702 -0.17 +0.00    +0.008 A  
DOCKED: ATOM      8  C   UNL     1     -31.802 -12.068   8.570 -0.28 +0.00    +0.010 A  
DOCKED: ATOM      9  C   UNL     1     -31.161 -13.315   8.526 -0.27 +0.00    +0.068 A  
DOCKED: ATOM     10  N   UNL     1     -32.042 -15.263   9.990 -2.60 -0.00    -0.191 NA 
DOCKED: ATOM     11  C   UNL     1     -31.647 -14.389   9.333 -0.41 +0.00    +0.101 C  
DOCKED: ENDROOT
DOCKED: BRANCH   2  12
DOCKED: ATOM     12  C   UNL     1     -28.841  -9.129   6.781 -0.01 +0.00    +0.038 C  
DOCKED: BRANCH  12  13
DOCKED: ATOM     13  C   UNL     1     -27.404  -8.954   6.295 -0.00 +0.00    +0.038 C  
DOCKED: BRANCH  13  14
DOCKED: ATOM     14  C   UNL     1     -26.418  -9.649   7.232 -0.00 +0.00    +0.251 C  
DOCKED: BRANCH  14  15
DOCKED: ATOM     15  N   UNL     1     -25.706 -10.707   6.524 -0.00 +0.00    +0.141 N  
DOCKED: ATOM     16  C   UNL     1     -24.937 -10.154   5.408 +0.00 +0.00    +0.285 C  
DOCKED: ATOM     17  C   UNL     1     -24.823 -11.434   7.437 +0.00 +0.00    +0.285 C  
DOCKED: ENDBRANCH  14  15
DOCKED: ENDBRANCH  13  14
DOCKED: ENDBRANCH  12  13
DOCKED: ENDBRANCH   2  12
DOCKED: BRANCH   2  18
DOCKED: ATOM     18  C   UNL     1     -30.436  -9.738   4.971 -0.09 +0.00    +0.006 A  
DOCKED: ATOM     19  C   UNL     1     -30.815 -10.563   3.914 -0.12 +0.00    +0.001 A  
DOCKED: ATOM     20  C   UNL     1     -31.649 -10.070   2.910 -0.15 +0.00    +0.029 A  
DOCKED: ATOM     21  C   UNL     1     -32.103  -8.753   2.965 -0.19 +0.00    +0.140 A  
DOCKED: ATOM     22  C   UNL     1     -31.724  -7.928   4.023 -0.12 +0.00    +0.029 A  
DOCKED: ATOM     23  F   UNL     1     -32.906  -8.281   2.003 -0.11 -0.00    -0.204 F  
DOCKED: ATOM     24  C   UNL     1     -30.889  -8.420   5.028 -0.06 +0.00    +0.001 A  
DOCKED: ENDBRANCH   2  18
DOCKED: TORSDOF 5
DOCKED: TER
DOCKED: ENDMDL
________________________________________________________________________________


    FINAL DOCKED STATE:
    ________________________


Run:   387 / 512
Time taken for this run:   0.002s

DOCKED: MODEL        387
DOCKED: USER    Run = 387
DOCKED: USER
DOCKED: USER    Estimated Free Energy of Binding    =  -4.50 kcal/mol  [=(1)+(2)+(3)-(4)]
DOCKED: USER
DOCKED: USER    (1) Final Intermolecular Energy     =  -5.99 kcal/mol
DOCKED: USER        vdW + Hbond + desolv Energy     =  -5.99 kcal/mol
DOCKED: USER        Electrostatic Energy            =  +0.00 kcal/mol
DOCKED: USER        Moving Ligand-Fixed Receptor    =  -5.99 kcal/mol
DOCKED: USER        Moving Ligand-Moving Receptor   =  +0.00 kcal/mol
DOCKED: USER    (2) Final Total Internal Energy     =  -0.95 kcal/mol
DOCKED: USER    (3) Torsional Free Energy           =  +1.49 kcal/mol
DOCKED: USER    (4) Unbound System's Energy         =  -0.95 kcal/mol
DOCKED: USER
DOCKED: USER
DOCKED: REMARK  5 active torsions:
DOCKED: REMARK  status: ('A' for Active; 'I' for Inactive)
DOCKED: REMARK    1  A    between atoms: C_2  and  C_19 
DOCKED: REMARK    2  A    between atoms: C_2  and  C_11 
DOCKED: REMARK    3  A    between atoms: C_19  and  C_20 
DOCKED: REMARK    4  A    between atoms: C_20  and  C_21 
DOCKED: REMARK    5  A    between atoms: C_21  and  N_22 
DOCKED: USER                              x       y       z     vdW  Elec       q    Type
DOCKED: USER                           _______ _______ _______ _____ _____    ______ ____
DOCKED: ROOT
DOCKED: ATOM      1  O   UNL     1     -37.204  -8.191  12.661 -0.09 -0.00    -0.346 OA 
DOCKED: ATOM      2  C   UNL     1     -38.483  -8.374  13.349 -0.16 +0.00    +0.130 C  
DOCKED: ATOM      3  C   UNL     1     -38.878  -9.781  13.004 -0.22 +0.00    +0.004 A  
DOCKED: ATOM      4  C   UNL     1     -37.863 -10.386  12.277 -0.28 +0.00    +0.006 A  
DOCKED: ATOM      5  C   UNL     1     -36.737  -9.441  12.103 -0.09 +0.00    +0.169 C  
DOCKED: ATOM      6  C   UNL     1     -40.038 -10.474  13.319 -0.19 -0.00    -0.001 A  
DOCKED: ATOM      7  C   UNL     1     -37.972 -11.694  11.837 -0.35 +0.00    +0.008 A  
DOCKED: ATOM      8  C   UNL     1     -40.165 -11.792  12.880 -0.21 +0.00    +0.010 A  
DOCKED: ATOM      9  C   UNL     1     -39.137 -12.400  12.143 -0.26 +0.00    +0.068 A  
DOCKED: ATOM     10  N   UNL     1     -39.404 -14.851  11.347 -2.57 -0.00    -0.191 NA 
DOCKED: ATOM     11  C   UNL     1     -39.285 -13.751  11.703 -0.36 +0.00    +0.101 C  
DOCKED: ENDROOT
DOCKED: BRANCH   2  12
DOCKED: ATOM     12  C   UNL     1     -38.261  -8.169  14.843 -0.05 +0.00    +0.038 C  
DOCKED: BRANCH  12  13
DOCKED: ATOM     13  C   UNL     1     -37.306  -9.216  15.413 -0.05 +0.00    +0.038 C  
DOCKED: BRANCH  13  14
DOCKED: ATOM     14  C   UNL     1     -36.151  -8.554  16.162 -0.01 +0.00    +0.251 C  
DOCKED: BRANCH  14  15
DOCKED: ATOM     15  N   UNL     1     -35.574  -9.483  17.127 -0.01 +0.00    +0.141 N  
DOCKED: ATOM     16  C   UNL     1     -35.321 -10.783  16.504 -0.03 +0.00    +0.285 C  
DOCKED: ATOM     17  C   UNL     1     -34.337  -8.940  17.690 -0.00 +0.00    +0.285 C  
DOCKED: ENDBRANCH  14  15
DOCKED: ENDBRANCH  13  14
DOCKED: ENDBRANCH  12  13
DOCKED: ENDBRANCH   2  12
DOCKED: BRANCH   2  18
DOCKED: ATOM     18  C   UNL     1     -39.423  -7.355  12.799 -0.20 +0.00    +0.006 A  
DOCKED: ATOM     19  C   UNL     1     -38.926  -6.184  12.227 -0.17 +0.00    +0.001 A  
DOCKED: ATOM     20  C   UNL     1     -39.807  -5.232  11.714 -0.16 +0.00    +0.029 A  
DOCKED: ATOM     21  C   UNL     1     -41.182  -5.451  11.772 -0.11 +0.00    +0.140 A  
DOCKED: ATOM     22  C   UNL     1     -41.679  -6.621  12.344 -0.17 +0.00    +0.029 A  
DOCKED: ATOM     23  F   UNL     1     -42.028  -4.537  11.278 -0.02 -0.00    -0.204 F  
DOCKED: ATOM     24  C   UNL     1     -40.799  -7.575  12.859 -0.22 +0.00    +0.001 A  
DOCKED: ENDBRANCH   2  18
DOCKED: TORSDOF 5
DOCKED: TER
DOCKED: ENDMDL
________________________________________________________________________________


    FINAL DOCKED STATE:
    ________________________


Run:   388 / 512
Time taken for this run:   0.002s

DOCKED: MODEL        388
DOCKED: USER    Run = 388
DOCKED: USER
DOCKED: USER    Estimated Free Energy of Binding    =  -3.90 kcal/mol  [=(1)+(2)+(3)-(4)]
DOCKED: USER
DOCKED: USER    (1) Final Intermolecular Energy     =  -5.39 kcal/mol
DOCKED: USER        vdW + Hbond + desolv Energy     =  -5.39 kcal/mol
DOCKED: USER        Electrostatic Energy            =  +0.00 kcal/mol
DOCKED: USER        Moving Ligand-Fixed Receptor    =  -5.39 kcal/mol
DOCKED: USER        Moving Ligand-Moving Receptor   =  +0.00 kcal/mol
DOCKED: USER    (2) Final Total Internal Energy     =  -1.41 kcal/mol
DOCKED: USER    (3) Torsional Free Energy           =  +1.49 kcal/mol
DOCKED: USER    (4) Unbound System's Energy         =  -1.41 kcal/mol
DOCKED: USER
DOCKED: USER
DOCKED: REMARK  5 active torsions:
DOCKED: REMARK  status: ('A' for Active; 'I' for Inactive)
DOCKED: REMARK    1  A    between atoms: C_2  and  C_19 
DOCKED: REMARK    2  A    between atoms: C_2  and  C_11 
DOCKED: REMARK    3  A    between atoms: C_19  and  C_20 
DOCKED: REMARK    4  A    between atoms: C_20  and  C_21 
DOCKED: REMARK    5  A    between atoms: C_21  and  N_22 
DOCKED: USER                              x       y       z     vdW  Elec       q    Type
DOCKED: USER                           _______ _______ _______ _____ _____    ______ ____
DOCKED: ROOT
DOCKED: ATOM      1  O   UNL     1     -36.684  -8.560  13.685 -0.04 -0.00    -0.346 OA 
DOCKED: ATOM      2  C   UNL     1     -38.120  -8.510  13.961 -0.10 +0.00    +0.130 C  
DOCKED: ATOM      3  C   UNL     1     -38.635  -9.813  13.423 -0.19 +0.00    +0.004 A  
DOCKED: ATOM      4  C   UNL     1     -37.572 -10.588  12.980 -0.25 +0.00    +0.006 A  
DOCKED: ATOM      5  C   UNL     1     -36.299  -9.867  13.201 -0.17 +0.00    +0.169 C  
DOCKED: ATOM      6  C   UNL     1     -39.939 -10.281  13.344 -0.19 -0.00    -0.001 A  
DOCKED: ATOM      7  C   UNL     1     -37.774 -11.847  12.440 -0.33 +0.00    +0.008 A  
DOCKED: ATOM      8  C   UNL     1     -40.159 -11.547  12.798 -0.22 +0.00    +0.010 A  
DOCKED: ATOM      9  C   UNL     1     -39.082 -12.326  12.349 -0.24 +0.00    +0.068 A  
DOCKED: ATOM     10  N   UNL     1     -39.525 -14.673  11.346 -2.56 -0.00    -0.191 NA 
DOCKED: ATOM     11  C   UNL     1     -39.326 -13.620  11.795 -0.35 +0.00    +0.101 C  
DOCKED: ENDROOT
DOCKED: BRANCH   2  12
DOCKED: ATOM     12  C   UNL     1     -38.318  -8.369  15.466 -0.03 +0.00    +0.038 C  
DOCKED: BRANCH  12  13
DOCKED: ATOM     13  C   UNL     1     -37.012  -8.602  16.223 -0.02 +0.00    +0.038 C  
DOCKED: BRANCH  13  14
DOCKED: ATOM     14  C   UNL     1     -36.611  -7.362  17.020 -0.00 +0.00    +0.251 C  
DOCKED: BRANCH  14  15
DOCKED: ATOM     15  N   UNL     1     -36.902  -6.153  16.258 -0.00 +0.00    +0.141 N  
DOCKED: ATOM     16  C   UNL     1     -36.940  -4.984  17.139 +0.00 +0.00    +0.285 C  
DOCKED: ATOM     17  C   UNL     1     -35.910  -5.959  15.200 -0.00 +0.00    +0.285 C  
DOCKED: ENDBRANCH  14  15
DOCKED: ENDBRANCH  13  14
DOCKED: ENDBRANCH  12  13
DOCKED: ENDBRANCH   2  12
DOCKED: BRANCH   2  18
DOCKED: ATOM     18  C   UNL     1     -38.663  -7.325  13.234 -0.15 +0.00    +0.006 A  
DOCKED: ATOM     19  C   UNL     1     -38.066  -6.902  12.048 -0.09 +0.00    +0.001 A  
DOCKED: ATOM     20  C   UNL     1     -38.575  -5.794  11.369 -0.13 +0.00    +0.029 A  
DOCKED: ATOM     21  C   UNL     1     -39.679  -5.112  11.877 -0.12 +0.00    +0.140 A  
DOCKED: ATOM     22  C   UNL     1     -40.277  -5.536  13.063 -0.10 +0.00    +0.029 A  
DOCKED: ATOM     23  F   UNL     1     -40.169  -4.050  11.224 -0.01 -0.00    -0.204 F  
DOCKED: ATOM     24  C   UNL     1     -39.768  -6.644  13.743 -0.10 +0.00    +0.001 A  
DOCKED: ENDBRANCH   2  18
DOCKED: TORSDOF 5
DOCKED: TER
DOCKED: ENDMDL
________________________________________________________________________________


    FINAL DOCKED STATE:
    ________________________


Run:   389 / 512
Time taken for this run:   0.002s

DOCKED: MODEL        389
DOCKED: USER    Run = 389
DOCKED: USER
DOCKED: USER    Estimated Free Energy of Binding    =  -3.96 kcal/mol  [=(1)+(2)+(3)-(4)]
DOCKED: USER
DOCKED: USER    (1) Final Intermolecular Energy     =  -5.45 kcal/mol
DOCKED: USER        vdW + Hbond + desolv Energy     =  -5.45 kcal/mol
DOCKED: USER        Electrostatic Energy            =  +0.00 kcal/mol
DOCKED: USER        Moving Ligand-Fixed Receptor    =  -5.45 kcal/mol
DOCKED: USER        Moving Ligand-Moving Receptor   =  +0.00 kcal/mol
DOCKED: USER    (2) Final Total Internal Energy     =  -1.17 kcal/mol
DOCKED: USER    (3) Torsional Free Energy           =  +1.49 kcal/mol
DOCKED: USER    (4) Unbound System's Energy         =  -1.17 kcal/mol
DOCKED: USER
DOCKED: USER
DOCKED: REMARK  5 active torsions:
DOCKED: REMARK  status: ('A' for Active; 'I' for Inactive)
DOCKED: REMARK    1  A    between atoms: C_2  and  C_19 
DOCKED: REMARK    2  A    between atoms: C_2  and  C_11 
DOCKED: REMARK    3  A    between atoms: C_19  and  C_20 
DOCKED: REMARK    4  A    between atoms: C_20  and  C_21 
DOCKED: REMARK    5  A    between atoms: C_21  and  N_22 
DOCKED: USER                              x       y       z     vdW  Elec       q    Type
DOCKED: USER                           _______ _______ _______ _____ _____    ______ ____
DOCKED: ROOT
DOCKED: ATOM      1  O   UNL     1     -36.308  -8.606  13.637 -0.04 -0.00    -0.346 OA 
DOCKED: ATOM      2  C   UNL     1     -37.721  -8.508  14.006 -0.09 +0.00    +0.130 C  
DOCKED: ATOM      3  C   UNL     1     -38.320  -9.777  13.473 -0.18 +0.00    +0.004 A  
DOCKED: ATOM      4  C   UNL     1     -37.320 -10.580  12.944 -0.26 +0.00    +0.006 A  
DOCKED: ATOM      5  C   UNL     1     -36.007  -9.915  13.100 -0.11 +0.00    +0.169 C  
DOCKED: ATOM      6  C   UNL     1     -39.644 -10.193  13.467 -0.18 -0.00    -0.001 A  
DOCKED: ATOM      7  C   UNL     1     -37.605 -11.817  12.391 -0.32 +0.00    +0.008 A  
DOCKED: ATOM      8  C   UNL     1     -39.948 -11.435  12.909 -0.21 +0.00    +0.010 A  
DOCKED: ATOM      9  C   UNL     1     -38.934 -12.243  12.374 -0.25 +0.00    +0.068 A  
DOCKED: ATOM     10  N   UNL     1     -39.533 -14.546  11.350 -2.56 -0.00    -0.191 NA 
DOCKED: ATOM     11  C   UNL     1     -39.265 -13.513  11.809 -0.35 +0.00    +0.101 C  
DOCKED: ENDROOT
DOCKED: BRANCH   2  12
DOCKED: ATOM     12  C   UNL     1     -37.817  -8.397  15.523 -0.03 +0.00    +0.038 C  
DOCKED: BRANCH  12  13
DOCKED: ATOM     13  C   UNL     1     -38.156  -9.744  16.159 -0.03 +0.00    +0.038 C  
DOCKED: BRANCH  13  14
DOCKED: ATOM     14  C   UNL     1     -36.923 -10.373  16.805 -0.01 +0.00    +0.251 C  
DOCKED: BRANCH  14  15
DOCKED: ATOM     15  N   UNL     1     -36.046 -10.935  15.784 -0.06 +0.00    +0.141 N  
DOCKED: ATOM     16  C   UNL     1     -34.658 -10.536  16.020 -0.04 +0.00    +0.285 C  
DOCKED: ATOM     17  C   UNL     1     -36.158 -12.394  15.755 -0.06 +0.00    +0.285 C  
DOCKED: ENDBRANCH  14  15
DOCKED: ENDBRANCH  13  14
DOCKED: ENDBRANCH  12  13
DOCKED: ENDBRANCH   2  12
DOCKED: BRANCH   2  18
DOCKED: ATOM     18  C   UNL     1     -38.262  -7.286  13.342 -0.13 +0.00    +0.006 A  
DOCKED: ATOM     19  C   UNL     1     -39.343  -7.389  12.467 -0.21 +0.00    +0.001 A  
DOCKED: ATOM     20  C   UNL     1     -39.847  -6.245  11.847 -0.09 +0.00    +0.029 A  
DOCKED: ATOM     21  C   UNL     1     -39.271  -5.002  12.102 -0.10 +0.00    +0.140 A  
DOCKED: ATOM     22  C   UNL     1     -38.190  -4.900  12.976 -0.05 +0.00    +0.029 A  
DOCKED: ATOM     23  F   UNL     1     -39.757  -3.904  11.507 -0.01 -0.00    -0.204 F  
DOCKED: ATOM     24  C   UNL     1     -37.684  -6.043  13.597 -0.06 +0.00    +0.001 A  
DOCKED: ENDBRANCH   2  18
DOCKED: TORSDOF 5
DOCKED: TER
DOCKED: ENDMDL
________________________________________________________________________________


    FINAL DOCKED STATE:
    ________________________


Run:   390 / 512
Time taken for this run:   0.002s

DOCKED: MODEL        390
DOCKED: USER    Run = 390
DOCKED: USER
DOCKED: USER    Estimated Free Energy of Binding    =  -3.71 kcal/mol  [=(1)+(2)+(3)-(4)]
DOCKED: USER
DOCKED: USER    (1) Final Intermolecular Energy     =  -5.20 kcal/mol
DOCKED: USER        vdW + Hbond + desolv Energy     =  -5.20 kcal/mol
DOCKED: USER        Electrostatic Energy            =  +0.00 kcal/mol
DOCKED: USER        Moving Ligand-Fixed Receptor    =  -5.20 kcal/mol
DOCKED: USER        Moving Ligand-Moving Receptor   =  +0.00 kcal/mol
DOCKED: USER    (2) Final Total Internal Energy     =  -1.31 kcal/mol
DOCKED: USER    (3) Torsional Free Energy           =  +1.49 kcal/mol
DOCKED: USER    (4) Unbound System's Energy         =  -1.31 kcal/mol
DOCKED: USER
DOCKED: USER
DOCKED: REMARK  5 active torsions:
DOCKED: REMARK  status: ('A' for Active; 'I' for Inactive)
DOCKED: REMARK    1  A    between atoms: C_2  and  C_19 
DOCKED: REMARK    2  A    between atoms: C_2  and  C_11 
DOCKED: REMARK    3  A    between atoms: C_19  and  C_20 
DOCKED: REMARK    4  A    between atoms: C_20  and  C_21 
DOCKED: REMARK    5  A    between atoms: C_21  and  N_22 
DOCKED: USER                              x       y       z     vdW  Elec       q    Type
DOCKED: USER                           _______ _______ _______ _____ _____    ______ ____
DOCKED: ROOT
DOCKED: ATOM      1  O   UNL     1     -29.302 -10.717   5.174 +0.01 -0.00    -0.346 OA 
DOCKED: ATOM      2  C   UNL     1     -30.055  -9.927   6.149 -0.05 +0.00    +0.130 C  
DOCKED: ATOM      3  C   UNL     1     -30.607 -10.954   7.095 -0.11 +0.00    +0.004 A  
DOCKED: ATOM      4  C   UNL     1     -30.122 -12.209   6.756 -0.11 +0.00    +0.006 A  
DOCKED: ATOM      5  C   UNL     1     -29.220 -12.101   5.588 -0.05 +0.00    +0.169 C  
DOCKED: ATOM      6  C   UNL     1     -31.461 -10.789   8.176 -0.19 -0.00    -0.001 A  
DOCKED: ATOM      7  C   UNL     1     -30.475 -13.337   7.478 -0.19 +0.00    +0.008 A  
DOCKED: ATOM      8  C   UNL     1     -31.829 -11.917   8.911 -0.25 +0.00    +0.010 A  
DOCKED: ATOM      9  C   UNL     1     -31.338 -13.184   8.564 -0.28 +0.00    +0.068 A  
DOCKED: ATOM     10  N   UNL     1     -32.037 -15.256   9.953 -2.59 -0.00    -0.191 NA 
DOCKED: ATOM     11  C   UNL     1     -31.724 -14.327   9.330 -0.39 +0.00    +0.101 C  
DOCKED: ENDROOT
DOCKED: BRANCH   2  12
DOCKED: ATOM     12  C   UNL     1     -29.097  -8.953   6.824 -0.01 +0.00    +0.038 C  
DOCKED: BRANCH  12  13
DOCKED: ATOM     13  C   UNL     1     -28.107  -9.683   7.729 -0.01 +0.00    +0.038 C  
DOCKED: BRANCH  13  14
DOCKED: ATOM     14  C   UNL     1     -26.733  -9.787   7.070 -0.00 +0.00    +0.251 C  
DOCKED: BRANCH  14  15
DOCKED: ATOM     15  N   UNL     1     -26.221 -11.148   7.175 -0.00 +0.00    +0.141 N  
DOCKED: ATOM     16  C   UNL     1     -24.765 -11.166   7.023 -0.00 +0.00    +0.285 C  
DOCKED: ATOM     17  C   UNL     1     -26.604 -11.745   8.456 -0.00 +0.00    +0.285 C  
DOCKED: ENDBRANCH  14  15
DOCKED: ENDBRANCH  13  14
DOCKED: ENDBRANCH  12  13
DOCKED: ENDBRANCH   2  12
DOCKED: BRANCH   2  18
DOCKED: ATOM     18  C   UNL     1     -31.118  -9.200   5.394 -0.11 +0.00    +0.006 A  
DOCKED: ATOM     19  C   UNL     1     -31.446  -9.596   4.098 -0.16 +0.00    +0.001 A  
DOCKED: ATOM     20  C   UNL     1     -32.440  -8.915   3.394 -0.21 +0.00    +0.029 A  
DOCKED: ATOM     21  C   UNL     1     -33.104  -7.842   3.986 -0.17 +0.00    +0.140 A  
DOCKED: ATOM     22  C   UNL     1     -32.776  -7.448   5.283 -0.15 +0.00    +0.029 A  
DOCKED: ATOM     23  F   UNL     1     -34.059  -7.190   3.310 -0.09 -0.00    -0.204 F  
DOCKED: ATOM     24  C   UNL     1     -31.781  -8.127   5.988 -0.09 +0.00    +0.001 A  
DOCKED: ENDBRANCH   2  18
DOCKED: TORSDOF 5
DOCKED: TER
DOCKED: ENDMDL
________________________________________________________________________________


    FINAL DOCKED STATE:
    ________________________


Run:   391 / 512
Time taken for this run:   0.002s

DOCKED: MODEL        391
DOCKED: USER    Run = 391
DOCKED: USER
DOCKED: USER    Estimated Free Energy of Binding    =  -5.92 kcal/mol  [=(1)+(2)+(3)-(4)]
DOCKED: USER
DOCKED: USER    (1) Final Intermolecular Energy     =  -7.41 kcal/mol
DOCKED: USER        vdW + Hbond + desolv Energy     =  -7.41 kcal/mol
DOCKED: USER        Electrostatic Energy            =  +0.00 kcal/mol
DOCKED: USER        Moving Ligand-Fixed Receptor    =  -7.41 kcal/mol
DOCKED: USER        Moving Ligand-Moving Receptor   =  +0.00 kcal/mol
DOCKED: USER    (2) Final Total Internal Energy     =  -1.04 kcal/mol
DOCKED: USER    (3) Torsional Free Energy           =  +1.49 kcal/mol
DOCKED: USER    (4) Unbound System's Energy         =  -1.04 kcal/mol
DOCKED: USER
DOCKED: USER
DOCKED: REMARK  5 active torsions:
DOCKED: REMARK  status: ('A' for Active; 'I' for Inactive)
DOCKED: REMARK    1  A    between atoms: C_2  and  C_19 
DOCKED: REMARK    2  A    between atoms: C_2  and  C_11 
DOCKED: REMARK    3  A    between atoms: C_19  and  C_20 
DOCKED: REMARK    4  A    between atoms: C_20  and  C_21 
DOCKED: REMARK    5  A    between atoms: C_21  and  N_22 
DOCKED: USER                              x       y       z     vdW  Elec       q    Type
DOCKED: USER                           _______ _______ _______ _____ _____    ______ ____
DOCKED: ROOT
DOCKED: ATOM      1  O   UNL     1     -37.280 -10.721  13.821 -0.06 -0.00    -0.346 OA 
DOCKED: ATOM      2  C   UNL     1     -37.017 -12.161  13.832 -0.23 +0.00    +0.130 C  
DOCKED: ATOM      3  C   UNL     1     -37.552 -12.634  12.512 -0.35 +0.00    +0.004 A  
DOCKED: ATOM      4  C   UNL     1     -37.982 -11.547  11.765 -0.34 +0.00    +0.006 A  
DOCKED: ATOM      5  C   UNL     1     -37.753 -10.295  12.522 -0.24 +0.00    +0.169 C  
DOCKED: ATOM      6  C   UNL     1     -37.641 -13.923  12.007 -0.36 -0.00    -0.001 A  
DOCKED: ATOM      7  C   UNL     1     -38.517 -11.708  10.498 -0.04 +0.00    +0.008 A  
DOCKED: ATOM      8  C   UNL     1     -38.182 -14.103  10.733 -0.46 +0.00    +0.010 A  
DOCKED: ATOM      9  C   UNL     1     -38.617 -13.001   9.982 -0.42 +0.00    +0.068 A  
DOCKED: ATOM     10  N   UNL     1     -39.611 -13.370   7.618 -2.97 -0.00    -0.191 NA 
DOCKED: ATOM     11  C   UNL     1     -39.165 -13.204   8.679 -0.41 +0.00    +0.101 C  
DOCKED: ENDROOT
DOCKED: BRANCH   2  12
DOCKED: ATOM     12  C   UNL     1     -35.515 -12.376  13.975 -0.21 +0.00    +0.038 C  
DOCKED: BRANCH  12  13
DOCKED: ATOM     13  C   UNL     1     -34.825 -11.133  14.532 -0.19 +0.00    +0.038 C  
DOCKED: BRANCH  13  14
DOCKED: ATOM     14  C   UNL     1     -33.731 -11.512  15.529 -0.10 +0.00    +0.251 C  
DOCKED: BRANCH  14  15
DOCKED: ATOM     15  N   UNL     1     -32.651 -10.533  15.493 -0.05 +0.00    +0.141 N  
DOCKED: ATOM     16  C   UNL     1     -31.405 -11.154  15.040 -0.04 +0.00    +0.285 C  
DOCKED: ATOM     17  C   UNL     1     -33.002  -9.409  14.624 -0.05 +0.00    +0.285 C  
DOCKED: ENDBRANCH  14  15
DOCKED: ENDBRANCH  13  14
DOCKED: ENDBRANCH  12  13
DOCKED: ENDBRANCH   2  12
DOCKED: BRANCH   2  18
DOCKED: ATOM     18  C   UNL     1     -37.756 -12.730  14.997 -0.18 +0.00    +0.006 A  
DOCKED: ATOM     19  C   UNL     1     -37.091 -13.547  15.912 -0.15 +0.00    +0.001 A  
DOCKED: ATOM     20  C   UNL     1     -37.783 -14.079  17.000 -0.21 +0.00    +0.029 A  
DOCKED: ATOM     21  C   UNL     1     -39.137 -13.793  17.173 -0.10 +0.00    +0.140 A  
DOCKED: ATOM     22  C   UNL     1     -39.800 -12.976  16.258 -0.12 +0.00    +0.029 A  
DOCKED: ATOM     23  F   UNL     1     -39.800 -14.302  18.219 -0.03 -0.00    -0.204 F  
DOCKED: ATOM     24  C   UNL     1     -39.109 -12.444  15.169 -0.13 +0.00    +0.001 A  
DOCKED: ENDBRANCH   2  18
DOCKED: TORSDOF 5
DOCKED: TER
DOCKED: ENDMDL
________________________________________________________________________________


    FINAL DOCKED STATE:
    ________________________


Run:   392 / 512
Time taken for this run:   0.002s

DOCKED: MODEL        392
DOCKED: USER    Run = 392
DOCKED: USER
DOCKED: USER    Estimated Free Energy of Binding    =  -4.88 kcal/mol  [=(1)+(2)+(3)-(4)]
DOCKED: USER
DOCKED: USER    (1) Final Intermolecular Energy     =  -6.37 kcal/mol
DOCKED: USER        vdW + Hbond + desolv Energy     =  -6.37 kcal/mol
DOCKED: USER        Electrostatic Energy            =  +0.00 kcal/mol
DOCKED: USER        Moving Ligand-Fixed Receptor    =  -6.37 kcal/mol
DOCKED: USER        Moving Ligand-Moving Receptor   =  +0.00 kcal/mol
DOCKED: USER    (2) Final Total Internal Energy     =  -0.96 kcal/mol
DOCKED: USER    (3) Torsional Free Energy           =  +1.49 kcal/mol
DOCKED: USER    (4) Unbound System's Energy         =  -0.96 kcal/mol
DOCKED: USER
DOCKED: USER
DOCKED: REMARK  5 active torsions:
DOCKED: REMARK  status: ('A' for Active; 'I' for Inactive)
DOCKED: REMARK    1  A    between atoms: C_2  and  C_19 
DOCKED: REMARK    2  A    between atoms: C_2  and  C_11 
DOCKED: REMARK    3  A    between atoms: C_19  and  C_20 
DOCKED: REMARK    4  A    between atoms: C_20  and  C_21 
DOCKED: REMARK    5  A    between atoms: C_21  and  N_22 
DOCKED: USER                              x       y       z     vdW  Elec       q    Type
DOCKED: USER                           _______ _______ _______ _____ _____    ______ ____
DOCKED: ROOT
DOCKED: ATOM      1  O   UNL     1     -35.602  -4.384   6.978 -0.11 -0.00    -0.346 OA 
DOCKED: ATOM      2  C   UNL     1     -34.302  -4.352   6.307 -0.18 +0.00    +0.130 C  
DOCKED: ATOM      3  C   UNL     1     -34.594  -3.693   4.990 -0.26 +0.00    +0.004 A  
DOCKED: ATOM      4  C   UNL     1     -35.920  -3.284   4.956 -0.18 +0.00    +0.006 A  
DOCKED: ATOM      5  C   UNL     1     -36.584  -3.627   6.233 -0.17 +0.00    +0.169 C  
DOCKED: ATOM      6  C   UNL     1     -33.751  -3.463   3.913 -0.22 -0.00    -0.001 A  
DOCKED: ATOM      7  C   UNL     1     -36.447  -2.639   3.850 -0.32 +0.00    +0.008 A  
DOCKED: ATOM      8  C   UNL     1     -34.269  -2.818   2.788 -0.28 +0.00    +0.010 A  
DOCKED: ATOM      9  C   UNL     1     -35.610  -2.408   2.758 -0.30 +0.00    +0.068 A  
DOCKED: ATOM     10  N   UNL     1     -36.538  -1.209   0.657 -2.50 -0.00    -0.191 NA 
DOCKED: ATOM     11  C   UNL     1     -36.122  -1.747   1.599 -0.38 +0.00    +0.101 C  
DOCKED: ENDROOT
DOCKED: BRANCH   2  12
DOCKED: ATOM     12  C   UNL     1     -33.333  -3.552   7.169 -0.15 +0.00    +0.038 C  
DOCKED: BRANCH  12  13
DOCKED: ATOM     13  C   UNL     1     -32.700  -4.424   8.251 -0.10 +0.00    +0.038 C  
DOCKED: BRANCH  13  14
DOCKED: ATOM     14  C   UNL     1     -33.238  -4.062   9.634 -0.07 +0.00    +0.251 C  
DOCKED: BRANCH  14  15
DOCKED: ATOM     15  N   UNL     1     -32.362  -3.094  10.283 -0.07 +0.00    +0.141 N  
DOCKED: ATOM     16  C   UNL     1     -33.142  -2.137  11.069 -0.04 +0.00    +0.285 C  
DOCKED: ATOM     17  C   UNL     1     -31.384  -3.774  11.135 -0.02 +0.00    +0.285 C  
DOCKED: ENDBRANCH  14  15
DOCKED: ENDBRANCH  13  14
DOCKED: ENDBRANCH  12  13
DOCKED: ENDBRANCH   2  12
DOCKED: BRANCH   2  18
DOCKED: ATOM     18  C   UNL     1     -33.851  -5.767   6.161 -0.14 +0.00    +0.006 A  
DOCKED: ATOM     19  C   UNL     1     -34.446  -6.770   6.926 -0.18 +0.00    +0.001 A  
DOCKED: ATOM     20  C   UNL     1     -34.023  -8.092   6.789 -0.22 +0.00    +0.029 A  
DOCKED: ATOM     21  C   UNL     1     -33.007  -8.410   5.889 -0.16 +0.00    +0.140 A  
DOCKED: ATOM     22  C   UNL     1     -32.412  -7.406   5.125 -0.12 +0.00    +0.029 A  
DOCKED: ATOM     23  F   UNL     1     -32.602  -9.680   5.757 -0.08 -0.00    -0.204 F  
DOCKED: ATOM     24  C   UNL     1     -32.834  -6.083   5.261 -0.10 +0.00    +0.001 A  
DOCKED: ENDBRANCH   2  18
DOCKED: TORSDOF 5
DOCKED: TER
DOCKED: ENDMDL
________________________________________________________________________________


    FINAL DOCKED STATE:
    ________________________


Run:   393 / 512
Time taken for this run:   0.002s

DOCKED: MODEL        393
DOCKED: USER    Run = 393
DOCKED: USER
DOCKED: USER    Estimated Free Energy of Binding    =  -3.88 kcal/mol  [=(1)+(2)+(3)-(4)]
DOCKED: USER
DOCKED: USER    (1) Final Intermolecular Energy     =  -5.37 kcal/mol
DOCKED: USER        vdW + Hbond + desolv Energy     =  -5.37 kcal/mol
DOCKED: USER        Electrostatic Energy            =  +0.00 kcal/mol
DOCKED: USER        Moving Ligand-Fixed Receptor    =  -5.37 kcal/mol
DOCKED: USER        Moving Ligand-Moving Receptor   =  +0.00 kcal/mol
DOCKED: USER    (2) Final Total Internal Energy     =  -1.44 kcal/mol
DOCKED: USER    (3) Torsional Free Energy           =  +1.49 kcal/mol
DOCKED: USER    (4) Unbound System's Energy         =  -1.44 kcal/mol
DOCKED: USER
DOCKED: USER
DOCKED: REMARK  5 active torsions:
DOCKED: REMARK  status: ('A' for Active; 'I' for Inactive)
DOCKED: REMARK    1  A    between atoms: C_2  and  C_19 
DOCKED: REMARK    2  A    between atoms: C_2  and  C_11 
DOCKED: REMARK    3  A    between atoms: C_19  and  C_20 
DOCKED: REMARK    4  A    between atoms: C_20  and  C_21 
DOCKED: REMARK    5  A    between atoms: C_21  and  N_22 
DOCKED: USER                              x       y       z     vdW  Elec       q    Type
DOCKED: USER                           _______ _______ _______ _____ _____    ______ ____
DOCKED: ROOT
DOCKED: ATOM      1  O   UNL     1     -36.260  -8.546  13.388 -0.05 -0.00    -0.346 OA 
DOCKED: ATOM      2  C   UNL     1     -35.519  -9.666  13.969 -0.13 +0.00    +0.130 C  
DOCKED: ATOM      3  C   UNL     1     -36.282 -10.876  13.513 -0.19 +0.00    +0.004 A  
DOCKED: ATOM      4  C   UNL     1     -37.303 -10.490  12.657 -0.27 +0.00    +0.006 A  
DOCKED: ATOM      5  C   UNL     1     -37.280  -9.021  12.478 -0.18 +0.00    +0.169 C  
DOCKED: ATOM      6  C   UNL     1     -36.081 -12.214  13.823 -0.26 -0.00    -0.001 A  
DOCKED: ATOM      7  C   UNL     1     -38.157 -11.419  12.087 -0.33 +0.00    +0.008 A  
DOCKED: ATOM      8  C   UNL     1     -36.937 -13.163  13.260 -0.35 +0.00    +0.010 A  
DOCKED: ATOM      9  C   UNL     1     -37.969 -12.767  12.396 -0.31 +0.00    +0.068 A  
DOCKED: ATOM     10  N   UNL     1     -39.535 -14.554  11.364 -2.56 -0.00    -0.191 NA 
DOCKED: ATOM     11  C   UNL     1     -38.833 -13.753  11.828 -0.36 +0.00    +0.101 C  
DOCKED: ENDROOT
DOCKED: BRANCH   2  12
DOCKED: ATOM     12  C   UNL     1     -34.092  -9.629  13.435 -0.03 +0.00    +0.038 C  
DOCKED: BRANCH  12  13
DOCKED: ATOM     13  C   UNL     1     -33.878  -8.443  12.498 -0.13 +0.00    +0.038 C  
DOCKED: BRANCH  13  14
DOCKED: ATOM     14  C   UNL     1     -33.053  -7.350  13.174 -0.03 +0.00    +0.251 C  
DOCKED: BRANCH  14  15
DOCKED: ATOM     15  N   UNL     1     -33.781  -6.087  13.168 -0.01 +0.00    +0.141 N  
DOCKED: ATOM     16  C   UNL     1     -34.393  -5.850  11.860 -0.03 +0.00    +0.285 C  
DOCKED: ATOM     17  C   UNL     1     -34.804  -6.077  14.215 -0.01 +0.00    +0.285 C  
DOCKED: ENDBRANCH  14  15
DOCKED: ENDBRANCH  13  14
DOCKED: ENDBRANCH  12  13
DOCKED: ENDBRANCH   2  12
DOCKED: BRANCH   2  18
DOCKED: ATOM     18  C   UNL     1     -35.545  -9.486  15.450 -0.05 +0.00    +0.006 A  
DOCKED: ATOM     19  C   UNL     1     -34.557 -10.071  16.240 -0.05 +0.00    +0.001 A  
DOCKED: ATOM     20  C   UNL     1     -34.583  -9.901  17.625 -0.01 +0.00    +0.029 A  
DOCKED: ATOM     21  C   UNL     1     -35.596  -9.147  18.217 -0.00 +0.00    +0.140 A  
DOCKED: ATOM     22  C   UNL     1     -36.583  -8.562  17.425 -0.00 +0.00    +0.029 A  
DOCKED: ATOM     23  F   UNL     1     -35.619  -8.983  19.546 +0.00 -0.00    -0.204 F  
DOCKED: ATOM     24  C   UNL     1     -36.559  -8.732  16.040 -0.02 +0.00    +0.001 A  
DOCKED: ENDBRANCH   2  18
DOCKED: TORSDOF 5
DOCKED: TER
DOCKED: ENDMDL
________________________________________________________________________________


    FINAL DOCKED STATE:
    ________________________


Run:   394 / 512
Time taken for this run:   0.002s

DOCKED: MODEL        394
DOCKED: USER    Run = 394
DOCKED: USER
DOCKED: USER    Estimated Free Energy of Binding    =  -4.10 kcal/mol  [=(1)+(2)+(3)-(4)]
DOCKED: USER
DOCKED: USER    (1) Final Intermolecular Energy     =  -5.59 kcal/mol
DOCKED: USER        vdW + Hbond + desolv Energy     =  -5.59 kcal/mol
DOCKED: USER        Electrostatic Energy            =  +0.00 kcal/mol
DOCKED: USER        Moving Ligand-Fixed Receptor    =  -5.59 kcal/mol
DOCKED: USER        Moving Ligand-Moving Receptor   =  +0.00 kcal/mol
DOCKED: USER    (2) Final Total Internal Energy     =  -1.35 kcal/mol
DOCKED: USER    (3) Torsional Free Energy           =  +1.49 kcal/mol
DOCKED: USER    (4) Unbound System's Energy         =  -1.35 kcal/mol
DOCKED: USER
DOCKED: USER
DOCKED: REMARK  5 active torsions:
DOCKED: REMARK  status: ('A' for Active; 'I' for Inactive)
DOCKED: REMARK    1  A    between atoms: C_2  and  C_19 
DOCKED: REMARK    2  A    between atoms: C_2  and  C_11 
DOCKED: REMARK    3  A    between atoms: C_19  and  C_20 
DOCKED: REMARK    4  A    between atoms: C_20  and  C_21 
DOCKED: REMARK    5  A    between atoms: C_21  and  N_22 
DOCKED: USER                              x       y       z     vdW  Elec       q    Type
DOCKED: USER                           _______ _______ _______ _____ _____    ______ ____
DOCKED: ROOT
DOCKED: ATOM      1  O   UNL     1     -35.003  -4.978   6.848 -0.07 -0.00    -0.346 OA 
DOCKED: ATOM      2  C   UNL     1     -33.802  -4.233   6.467 -0.16 +0.00    +0.130 C  
DOCKED: ATOM      3  C   UNL     1     -34.204  -3.524   5.207 -0.17 +0.00    +0.004 A  
DOCKED: ATOM      4  C   UNL     1     -35.549  -3.754   4.950 -0.28 +0.00    +0.006 A  
DOCKED: ATOM      5  C   UNL     1     -36.124  -4.608   6.013 -0.14 +0.00    +0.169 C  
DOCKED: ATOM      6  C   UNL     1     -33.444  -2.730   4.361 -0.16 -0.00    -0.001 A  
DOCKED: ATOM      7  C   UNL     1     -36.175  -3.205   3.844 -0.23 +0.00    +0.008 A  
DOCKED: ATOM      8  C   UNL     1     -34.061  -2.172   3.239 -0.27 +0.00    +0.010 A  
DOCKED: ATOM      9  C   UNL     1     -35.419  -2.409   2.983 -0.34 +0.00    +0.068 A  
DOCKED: ATOM     10  N   UNL     1     -36.534  -1.356   0.894 -2.47 -0.00    -0.191 NA 
DOCKED: ATOM     11  C   UNL     1     -36.034  -1.829   1.830 -0.39 +0.00    +0.101 C  
DOCKED: ENDROOT
DOCKED: BRANCH   2  12
DOCKED: ATOM     12  C   UNL     1     -33.448  -3.277   7.599 -0.12 +0.00    +0.038 C  
DOCKED: BRANCH  12  13
DOCKED: ATOM     13  C   UNL     1     -34.538  -3.251   8.669 -0.19 +0.00    +0.038 C  
DOCKED: BRANCH  13  14
DOCKED: ATOM     14  C   UNL     1     -34.294  -4.325   9.728 -0.07 +0.00    +0.251 C  
DOCKED: BRANCH  14  15
DOCKED: ATOM     15  N   UNL     1     -35.372  -5.306   9.713 -0.08 +0.00    +0.141 N  
DOCKED: ATOM     16  C   UNL     1     -35.429  -6.030  10.984 -0.06 +0.00    +0.285 C  
DOCKED: ATOM     17  C   UNL     1     -36.656  -4.658   9.440 -0.10 +0.00    +0.285 C  
DOCKED: ENDBRANCH  14  15
DOCKED: ENDBRANCH  13  14
DOCKED: ENDBRANCH  12  13
DOCKED: ENDBRANCH   2  12
DOCKED: BRANCH   2  18
DOCKED: ATOM     18  C   UNL     1     -32.718  -5.235   6.250 -0.07 +0.00    +0.006 A  
DOCKED: ATOM     19  C   UNL     1     -31.406  -4.809   6.044 -0.04 +0.00    +0.001 A  
DOCKED: ATOM     20  C   UNL     1     -30.393  -5.747   5.840 -0.01 +0.00    +0.029 A  
DOCKED: ATOM     21  C   UNL     1     -30.693  -7.108   5.844 -0.01 +0.00    +0.140 A  
DOCKED: ATOM     22  C   UNL     1     -32.005  -7.534   6.051 -0.07 +0.00    +0.029 A  
DOCKED: ATOM     23  F   UNL     1     -29.720  -8.009   5.651 +0.00 -0.00    -0.204 F  
DOCKED: ATOM     24  C   UNL     1     -33.019  -6.597   6.254 -0.10 +0.00    +0.001 A  
DOCKED: ENDBRANCH   2  18
DOCKED: TORSDOF 5
DOCKED: TER
DOCKED: ENDMDL
________________________________________________________________________________


    FINAL DOCKED STATE:
    ________________________


Run:   395 / 512
Time taken for this run:   0.002s

DOCKED: MODEL        395
DOCKED: USER    Run = 395
DOCKED: USER
DOCKED: USER    Estimated Free Energy of Binding    =  -3.90 kcal/mol  [=(1)+(2)+(3)-(4)]
DOCKED: USER
DOCKED: USER    (1) Final Intermolecular Energy     =  -5.39 kcal/mol
DOCKED: USER        vdW + Hbond + desolv Energy     =  -5.39 kcal/mol
DOCKED: USER        Electrostatic Energy            =  +0.00 kcal/mol
DOCKED: USER        Moving Ligand-Fixed Receptor    =  -5.39 kcal/mol
DOCKED: USER        Moving Ligand-Moving Receptor   =  +0.00 kcal/mol
DOCKED: USER    (2) Final Total Internal Energy     =  -1.23 kcal/mol
DOCKED: USER    (3) Torsional Free Energy           =  +1.49 kcal/mol
DOCKED: USER    (4) Unbound System's Energy         =  -1.23 kcal/mol
DOCKED: USER
DOCKED: USER
DOCKED: REMARK  5 active torsions:
DOCKED: REMARK  status: ('A' for Active; 'I' for Inactive)
DOCKED: REMARK    1  A    between atoms: C_2  and  C_19 
DOCKED: REMARK    2  A    between atoms: C_2  and  C_11 
DOCKED: REMARK    3  A    between atoms: C_19  and  C_20 
DOCKED: REMARK    4  A    between atoms: C_20  and  C_21 
DOCKED: REMARK    5  A    between atoms: C_21  and  N_22 
DOCKED: USER                              x       y       z     vdW  Elec       q    Type
DOCKED: USER                           _______ _______ _______ _____ _____    ______ ____
DOCKED: ROOT
DOCKED: ATOM      1  O   UNL     1     -29.639 -14.059   3.853 -0.02 -0.00    -0.346 OA 
DOCKED: ATOM      2  C   UNL     1     -29.412 -12.844   4.636 -0.09 +0.00    +0.130 C  
DOCKED: ATOM      3  C   UNL     1     -29.976 -13.176   5.987 -0.13 +0.00    +0.004 A  
DOCKED: ATOM      4  C   UNL     1     -30.389 -14.500   6.008 -0.20 +0.00    +0.006 A  
DOCKED: ATOM      5  C   UNL     1     -30.119 -15.132   4.697 -0.11 +0.00    +0.169 C  
DOCKED: ATOM      6  C   UNL     1     -30.103 -12.373   7.111 -0.12 -0.00    -0.001 A  
DOCKED: ATOM      7  C   UNL     1     -30.944 -15.064   7.144 -0.30 +0.00    +0.008 A  
DOCKED: ATOM      8  C   UNL     1     -30.665 -12.925   8.263 -0.21 +0.00    +0.010 A  
DOCKED: ATOM      9  C   UNL     1     -31.083 -14.264   8.280 -0.31 +0.00    +0.068 A  
DOCKED: ATOM     10  N   UNL     1     -32.117 -15.260  10.437 -2.61 -0.00    -0.191 NA 
DOCKED: ATOM     11  C   UNL     1     -31.653 -14.813   9.469 -0.38 +0.00    +0.101 C  
DOCKED: ENDROOT
DOCKED: BRANCH   2  12
DOCKED: ATOM     12  C   UNL     1     -27.914 -12.566   4.671 -0.03 +0.00    +0.038 C  
DOCKED: BRANCH  12  13
DOCKED: ATOM     13  C   UNL     1     -27.108 -13.804   4.283 -0.02 +0.00    +0.038 C  
DOCKED: BRANCH  13  14
DOCKED: ATOM     14  C   UNL     1     -26.595 -13.699   2.848 -0.00 +0.00    +0.251 C  
DOCKED: BRANCH  14  15
DOCKED: ATOM     15  N   UNL     1     -26.851 -12.366   2.314 -0.00 +0.00    +0.141 N  
DOCKED: ATOM     16  C   UNL     1     -25.616 -11.582   2.273 -0.00 +0.00    +0.285 C  
DOCKED: ATOM     17  C   UNL     1     -27.443 -12.451   0.978 -0.00 +0.00    +0.285 C  
DOCKED: ENDBRANCH  14  15
DOCKED: ENDBRANCH  13  14
DOCKED: ENDBRANCH  12  13
DOCKED: ENDBRANCH   2  12
DOCKED: BRANCH   2  18
DOCKED: ATOM     18  C   UNL     1     -30.149 -11.741   3.953 -0.12 +0.00    +0.006 A  
DOCKED: ATOM     19  C   UNL     1     -30.392 -11.810   2.582 -0.07 +0.00    +0.001 A  
DOCKED: ATOM     20  C   UNL     1     -31.081 -10.777   1.944 -0.17 +0.00    +0.029 A  
DOCKED: ATOM     21  C   UNL     1     -31.525  -9.678   2.678 -0.17 +0.00    +0.140 A  
DOCKED: ATOM     22  C   UNL     1     -31.282  -9.610   4.049 -0.15 +0.00    +0.029 A  
DOCKED: ATOM     23  F   UNL     1     -32.188  -8.688   2.066 -0.08 -0.00    -0.204 F  
DOCKED: ATOM     24  C   UNL     1     -30.592 -10.642   4.688 -0.12 +0.00    +0.001 A  
DOCKED: ENDBRANCH   2  18
DOCKED: TORSDOF 5
DOCKED: TER
DOCKED: ENDMDL
________________________________________________________________________________


    FINAL DOCKED STATE:
    ________________________


Run:   396 / 512
Time taken for this run:   0.002s

DOCKED: MODEL        396
DOCKED: USER    Run = 396
DOCKED: USER
DOCKED: USER    Estimated Free Energy of Binding    =  -4.03 kcal/mol  [=(1)+(2)+(3)-(4)]
DOCKED: USER
DOCKED: USER    (1) Final Intermolecular Energy     =  -5.52 kcal/mol
DOCKED: USER        vdW + Hbond + desolv Energy     =  -5.52 kcal/mol
DOCKED: USER        Electrostatic Energy            =  +0.00 kcal/mol
DOCKED: USER        Moving Ligand-Fixed Receptor    =  -5.52 kcal/mol
DOCKED: USER        Moving Ligand-Moving Receptor   =  +0.00 kcal/mol
DOCKED: USER    (2) Final Total Internal Energy     =  -1.48 kcal/mol
DOCKED: USER    (3) Torsional Free Energy           =  +1.49 kcal/mol
DOCKED: USER    (4) Unbound System's Energy         =  -1.48 kcal/mol
DOCKED: USER
DOCKED: USER
DOCKED: REMARK  5 active torsions:
DOCKED: REMARK  status: ('A' for Active; 'I' for Inactive)
DOCKED: REMARK    1  A    between atoms: C_2  and  C_19 
DOCKED: REMARK    2  A    between atoms: C_2  and  C_11 
DOCKED: REMARK    3  A    between atoms: C_19  and  C_20 
DOCKED: REMARK    4  A    between atoms: C_20  and  C_21 
DOCKED: REMARK    5  A    between atoms: C_21  and  N_22 
DOCKED: USER                              x       y       z     vdW  Elec       q    Type
DOCKED: USER                           _______ _______ _______ _____ _____    ______ ____
DOCKED: ROOT
DOCKED: ATOM      1  O   UNL     1     -35.409  -9.529  14.421 -0.04 -0.00    -0.346 OA 
DOCKED: ATOM      2  C   UNL     1     -36.514  -8.908  13.689 -0.12 +0.00    +0.130 C  
DOCKED: ATOM      3  C   UNL     1     -37.229 -10.071  13.063 -0.23 +0.00    +0.004 A  
DOCKED: ATOM      4  C   UNL     1     -36.651 -11.258  13.489 -0.23 +0.00    +0.006 A  
DOCKED: ATOM      5  C   UNL     1     -35.538 -10.970  14.421 -0.15 +0.00    +0.169 C  
DOCKED: ATOM      6  C   UNL     1     -38.311 -10.077  12.196 -0.21 -0.00    -0.001 A  
DOCKED: ATOM      7  C   UNL     1     -37.128 -12.486  13.061 -0.32 +0.00    +0.008 A  
DOCKED: ATOM      8  C   UNL     1     -38.802 -11.306  11.752 -0.27 +0.00    +0.010 A  
DOCKED: ATOM      9  C   UNL     1     -38.213 -12.504  12.184 -0.31 +0.00    +0.068 A  
DOCKED: ATOM     10  N   UNL     1     -39.151 -14.770  11.345 -2.55 -0.00    -0.191 NA 
DOCKED: ATOM     11  C   UNL     1     -38.730 -13.754  11.721 -0.38 +0.00    +0.101 C  
DOCKED: ENDROOT
DOCKED: BRANCH   2  12
DOCKED: ATOM     12  C   UNL     1     -37.381  -8.144  14.683 -0.06 +0.00    +0.038 C  
DOCKED: BRANCH  12  13
DOCKED: ATOM     13  C   UNL     1     -36.991  -8.465  16.124 -0.02 +0.00    +0.038 C  
DOCKED: BRANCH  13  14
DOCKED: ATOM     14  C   UNL     1     -38.145  -9.132  16.870 -0.00 +0.00    +0.251 C  
DOCKED: BRANCH  14  15
DOCKED: ATOM     15  N   UNL     1     -38.465 -10.419  16.262 -0.02 +0.00    +0.141 N  
DOCKED: ATOM     16  C   UNL     1     -38.210 -11.511  17.203 -0.02 +0.00    +0.285 C  
DOCKED: ATOM     17  C   UNL     1     -39.860 -10.446  15.818 -0.01 +0.00    +0.285 C  
DOCKED: ENDBRANCH  14  15
DOCKED: ENDBRANCH  13  14
DOCKED: ENDBRANCH  12  13
DOCKED: ENDBRANCH   2  12
DOCKED: BRANCH   2  18
DOCKED: ATOM     18  C   UNL     1     -35.908  -7.988  12.683 -0.15 +0.00    +0.006 A  
DOCKED: ATOM     19  C   UNL     1     -35.174  -8.506  11.617 -0.07 +0.00    +0.001 A  
DOCKED: ATOM     20  C   UNL     1     -34.608  -7.644  10.677 -0.14 +0.00    +0.029 A  
DOCKED: ATOM     21  C   UNL     1     -34.777  -6.266  10.804 -0.07 +0.00    +0.140 A  
DOCKED: ATOM     22  C   UNL     1     -35.512  -5.748  11.870 -0.07 +0.00    +0.029 A  
DOCKED: ATOM     23  F   UNL     1     -34.236  -5.439   9.900 -0.01 -0.00    -0.204 F  
DOCKED: ATOM     24  C   UNL     1     -36.078  -6.610  12.811 -0.08 +0.00    +0.001 A  
DOCKED: ENDBRANCH   2  18
DOCKED: TORSDOF 5
DOCKED: TER
DOCKED: ENDMDL
________________________________________________________________________________


    FINAL DOCKED STATE:
    ________________________


Run:   397 / 512
Time taken for this run:   0.002s

DOCKED: MODEL        397
DOCKED: USER    Run = 397
DOCKED: USER
DOCKED: USER    Estimated Free Energy of Binding    =  -3.71 kcal/mol  [=(1)+(2)+(3)-(4)]
DOCKED: USER
DOCKED: USER    (1) Final Intermolecular Energy     =  -5.21 kcal/mol
DOCKED: USER        vdW + Hbond + desolv Energy     =  -5.21 kcal/mol
DOCKED: USER        Electrostatic Energy            =  +0.00 kcal/mol
DOCKED: USER        Moving Ligand-Fixed Receptor    =  -5.21 kcal/mol
DOCKED: USER        Moving Ligand-Moving Receptor   =  +0.00 kcal/mol
DOCKED: USER    (2) Final Total Internal Energy     =  -1.46 kcal/mol
DOCKED: USER    (3) Torsional Free Energy           =  +1.49 kcal/mol
DOCKED: USER    (4) Unbound System's Energy         =  -1.46 kcal/mol
DOCKED: USER
DOCKED: USER
DOCKED: REMARK  5 active torsions:
DOCKED: REMARK  status: ('A' for Active; 'I' for Inactive)
DOCKED: REMARK    1  A    between atoms: C_2  and  C_19 
DOCKED: REMARK    2  A    between atoms: C_2  and  C_11 
DOCKED: REMARK    3  A    between atoms: C_19  and  C_20 
DOCKED: REMARK    4  A    between atoms: C_20  and  C_21 
DOCKED: REMARK    5  A    between atoms: C_21  and  N_22 
DOCKED: USER                              x       y       z     vdW  Elec       q    Type
DOCKED: USER                           _______ _______ _______ _____ _____    ______ ____
DOCKED: ROOT
DOCKED: ATOM      1  O   UNL     1     -36.238  -8.539  14.101 -0.02 -0.00    -0.346 OA 
DOCKED: ATOM      2  C   UNL     1     -37.590  -8.211  13.646 -0.11 +0.00    +0.130 C  
DOCKED: ATOM      3  C   UNL     1     -38.118  -9.514  13.118 -0.21 +0.00    +0.004 A  
DOCKED: ATOM      4  C   UNL     1     -37.192 -10.521  13.351 -0.22 +0.00    +0.006 A  
DOCKED: ATOM      5  C   UNL     1     -36.011  -9.966  14.051 -0.13 +0.00    +0.169 C  
DOCKED: ATOM      6  C   UNL     1     -39.325  -9.788  12.492 -0.20 -0.00    -0.001 A  
DOCKED: ATOM      7  C   UNL     1     -37.437 -11.828  12.965 -0.29 +0.00    +0.008 A  
DOCKED: ATOM      8  C   UNL     1     -39.585 -11.100  12.093 -0.15 +0.00    +0.010 A  
DOCKED: ATOM      9  C   UNL     1     -38.645 -12.115  12.329 -0.27 +0.00    +0.068 A  
DOCKED: ATOM     10  N   UNL     1     -39.161 -14.541  11.580 -2.40 -0.00    -0.191 NA 
DOCKED: ATOM     11  C   UNL     1     -38.929 -13.452  11.915 -0.36 +0.00    +0.101 C  
DOCKED: ENDROOT
DOCKED: BRANCH   2  12
DOCKED: ATOM     12  C   UNL     1     -38.386  -7.687  14.836 -0.05 +0.00    +0.038 C  
DOCKED: BRANCH  12  13
DOCKED: ATOM     13  C   UNL     1     -37.702  -8.029  16.158 -0.02 +0.00    +0.038 C  
DOCKED: BRANCH  13  14
DOCKED: ATOM     14  C   UNL     1     -36.690  -6.953  16.547 -0.00 +0.00    +0.251 C  
DOCKED: BRANCH  14  15
DOCKED: ATOM     15  N   UNL     1     -36.493  -6.019  15.445 -0.00 +0.00    +0.141 N  
DOCKED: ATOM     16  C   UNL     1     -37.268  -4.796  15.660 -0.00 +0.00    +0.285 C  
DOCKED: ATOM     17  C   UNL     1     -35.073  -5.699  15.288 -0.00 +0.00    +0.285 C  
DOCKED: ENDBRANCH  14  15
DOCKED: ENDBRANCH  13  14
DOCKED: ENDBRANCH  12  13
DOCKED: ENDBRANCH   2  12
DOCKED: BRANCH   2  18
DOCKED: ATOM     18  C   UNL     1     -37.454  -7.167  12.589 -0.14 +0.00    +0.006 A  
DOCKED: ATOM     19  C   UNL     1     -36.198  -6.870  12.061 -0.12 +0.00    +0.001 A  
DOCKED: ATOM     20  C   UNL     1     -36.072  -5.893  11.073 -0.09 +0.00    +0.029 A  
DOCKED: ATOM     21  C   UNL     1     -37.200  -5.217  10.612 -0.09 +0.00    +0.140 A  
DOCKED: ATOM     22  C   UNL     1     -38.456  -5.515  11.140 -0.15 +0.00    +0.029 A  
DOCKED: ATOM     23  F   UNL     1     -37.079  -4.281   9.662 -0.03 -0.00    -0.204 F  
DOCKED: ATOM     24  C   UNL     1     -38.584  -6.491  12.130 -0.17 +0.00    +0.001 A  
DOCKED: ENDBRANCH   2  18
DOCKED: TORSDOF 5
DOCKED: TER
DOCKED: ENDMDL
________________________________________________________________________________


    FINAL DOCKED STATE:
    ________________________


Run:   398 / 512
Time taken for this run:   0.002s

DOCKED: MODEL        398
DOCKED: USER    Run = 398
DOCKED: USER
DOCKED: USER    Estimated Free Energy of Binding    =  -3.95 kcal/mol  [=(1)+(2)+(3)-(4)]
DOCKED: USER
DOCKED: USER    (1) Final Intermolecular Energy     =  -5.44 kcal/mol
DOCKED: USER        vdW + Hbond + desolv Energy     =  -5.44 kcal/mol
DOCKED: USER        Electrostatic Energy            =  +0.00 kcal/mol
DOCKED: USER        Moving Ligand-Fixed Receptor    =  -5.44 kcal/mol
DOCKED: USER        Moving Ligand-Moving Receptor   =  +0.00 kcal/mol
DOCKED: USER    (2) Final Total Internal Energy     =  -1.25 kcal/mol
DOCKED: USER    (3) Torsional Free Energy           =  +1.49 kcal/mol
DOCKED: USER    (4) Unbound System's Energy         =  -1.25 kcal/mol
DOCKED: USER
DOCKED: USER
DOCKED: REMARK  5 active torsions:
DOCKED: REMARK  status: ('A' for Active; 'I' for Inactive)
DOCKED: REMARK    1  A    between atoms: C_2  and  C_19 
DOCKED: REMARK    2  A    between atoms: C_2  and  C_11 
DOCKED: REMARK    3  A    between atoms: C_19  and  C_20 
DOCKED: REMARK    4  A    between atoms: C_20  and  C_21 
DOCKED: REMARK    5  A    between atoms: C_21  and  N_22 
DOCKED: USER                              x       y       z     vdW  Elec       q    Type
DOCKED: USER                           _______ _______ _______ _____ _____    ______ ____
DOCKED: ROOT
DOCKED: ATOM      1  O   UNL     1     -38.967  -8.003  13.236 -0.08 -0.00    -0.346 OA 
DOCKED: ATOM      2  C   UNL     1     -37.619  -8.550  13.397 -0.14 +0.00    +0.130 C  
DOCKED: ATOM      3  C   UNL     1     -37.765  -9.990  13.000 -0.24 +0.00    +0.004 A  
DOCKED: ATOM      4  C   UNL     1     -39.056 -10.221  12.547 -0.24 +0.00    +0.006 A  
DOCKED: ATOM      5  C   UNL     1     -39.839  -8.966  12.599 -0.15 +0.00    +0.169 C  
DOCKED: ATOM      6  C   UNL     1     -36.827 -11.012  13.028 -0.24 -0.00    -0.001 A  
DOCKED: ATOM      7  C   UNL     1     -39.454 -11.474  12.113 -0.25 +0.00    +0.008 A  
DOCKED: ATOM      8  C   UNL     1     -37.214 -12.282  12.597 -0.31 +0.00    +0.010 A  
DOCKED: ATOM      9  C   UNL     1     -38.521 -12.511  12.141 -0.30 +0.00    +0.068 A  
DOCKED: ATOM     10  N   UNL     1     -39.206 -14.880  11.344 -2.61 -0.00    -0.191 NA 
DOCKED: ATOM     11  C   UNL     1     -38.899 -13.818  11.702 -0.35 +0.00    +0.101 C  
DOCKED: ENDROOT
DOCKED: BRANCH   2  12
DOCKED: ATOM     12  C   UNL     1     -36.673  -7.776  12.485 -0.17 +0.00    +0.038 C  
DOCKED: BRANCH  12  13
DOCKED: ATOM     13  C   UNL     1     -37.382  -6.600  11.816 -0.06 +0.00    +0.038 C  
DOCKED: BRANCH  13  14
DOCKED: ATOM     14  C   UNL     1     -37.466  -5.401  12.758 -0.05 +0.00    +0.251 C  
DOCKED: BRANCH  14  15
DOCKED: ATOM     15  N   UNL     1     -38.859  -5.055  13.016 -0.05 +0.00    +0.141 N  
DOCKED: ATOM     16  C   UNL     1     -38.947  -3.841  13.828 -0.00 +0.00    +0.285 C  
DOCKED: ATOM     17  C   UNL     1     -39.587  -4.879  11.758 -0.09 +0.00    +0.285 C  
DOCKED: ENDBRANCH  14  15
DOCKED: ENDBRANCH  13  14
DOCKED: ENDBRANCH  12  13
DOCKED: ENDBRANCH   2  12
DOCKED: BRANCH   2  18
DOCKED: ATOM     18  C   UNL     1     -37.246  -8.376  14.831 -0.05 +0.00    +0.006 A  
DOCKED: ATOM     19  C   UNL     1     -37.140  -9.490  15.663 -0.04 +0.00    +0.001 A  
DOCKED: ATOM     20  C   UNL     1     -36.791  -9.326  17.004 -0.01 +0.00    +0.029 A  
DOCKED: ATOM     21  C   UNL     1     -36.548  -8.050  17.511 -0.00 +0.00    +0.140 A  
DOCKED: ATOM     22  C   UNL     1     -36.654  -6.937  16.678 -0.00 +0.00    +0.029 A  
DOCKED: ATOM     23  F   UNL     1     -36.212  -7.893  18.798 +0.00 -0.00    -0.204 F  
DOCKED: ATOM     24  C   UNL     1     -37.003  -7.099  15.336 -0.02 +0.00    +0.001 A  
DOCKED: ENDBRANCH   2  18
DOCKED: TORSDOF 5
DOCKED: TER
DOCKED: ENDMDL
________________________________________________________________________________


    FINAL DOCKED STATE:
    ________________________


Run:   399 / 512
Time taken for this run:   0.002s

DOCKED: MODEL        399
DOCKED: USER    Run = 399
DOCKED: USER
DOCKED: USER    Estimated Free Energy of Binding    =  -3.99 kcal/mol  [=(1)+(2)+(3)-(4)]
DOCKED: USER
DOCKED: USER    (1) Final Intermolecular Energy     =  -5.48 kcal/mol
DOCKED: USER        vdW + Hbond + desolv Energy     =  -5.48 kcal/mol
DOCKED: USER        Electrostatic Energy            =  +0.00 kcal/mol
DOCKED: USER        Moving Ligand-Fixed Receptor    =  -5.48 kcal/mol
DOCKED: USER        Moving Ligand-Moving Receptor   =  +0.00 kcal/mol
DOCKED: USER    (2) Final Total Internal Energy     =  -1.06 kcal/mol
DOCKED: USER    (3) Torsional Free Energy           =  +1.49 kcal/mol
DOCKED: USER    (4) Unbound System's Energy         =  -1.06 kcal/mol
DOCKED: USER
DOCKED: USER
DOCKED: REMARK  5 active torsions:
DOCKED: REMARK  status: ('A' for Active; 'I' for Inactive)
DOCKED: REMARK    1  A    between atoms: C_2  and  C_19 
DOCKED: REMARK    2  A    between atoms: C_2  and  C_11 
DOCKED: REMARK    3  A    between atoms: C_19  and  C_20 
DOCKED: REMARK    4  A    between atoms: C_20  and  C_21 
DOCKED: REMARK    5  A    between atoms: C_21  and  N_22 
DOCKED: USER                              x       y       z     vdW  Elec       q    Type
DOCKED: USER                           _______ _______ _______ _____ _____    ______ ____
DOCKED: ROOT
DOCKED: ATOM      1  O   UNL     1     -39.947 -10.773  15.216 +0.00 -0.00    -0.346 OA 
DOCKED: ATOM      2  C   UNL     1     -38.553 -11.196  15.076 -0.07 +0.00    +0.130 C  
DOCKED: ATOM      3  C   UNL     1     -38.484 -11.750  13.682 -0.18 +0.00    +0.004 A  
DOCKED: ATOM      4  C   UNL     1     -39.700 -11.559  13.043 -0.21 +0.00    +0.006 A  
DOCKED: ATOM      5  C   UNL     1     -40.641 -10.865  13.950 -0.10 +0.00    +0.169 C  
DOCKED: ATOM      6  C   UNL     1     -37.425 -12.363  13.029 -0.31 -0.00    -0.001 A  
DOCKED: ATOM      7  C   UNL     1     -39.902 -11.975  11.738 -0.24 +0.00    +0.008 A  
DOCKED: ATOM      8  C   UNL     1     -37.613 -12.792  11.714 -0.35 +0.00    +0.010 A  
DOCKED: ATOM      9  C   UNL     1     -38.846 -12.599  11.072 -0.36 +0.00    +0.068 A  
DOCKED: ATOM     10  N   UNL     1     -39.161 -13.403   8.629 -1.94 -0.00    -0.191 NA 
DOCKED: ATOM     11  C   UNL     1     -39.020 -13.043   9.725 -0.50 +0.00    +0.101 C  
DOCKED: ENDROOT
DOCKED: BRANCH   2  12
DOCKED: ATOM     12  C   UNL     1     -37.657  -9.980  15.277 -0.07 +0.00    +0.038 C  
DOCKED: BRANCH  12  13
DOCKED: ATOM     13  C   UNL     1     -37.344  -9.294  13.949 -0.13 +0.00    +0.038 C  
DOCKED: BRANCH  13  14
DOCKED: ATOM     14  C   UNL     1     -36.410  -8.102  14.153 -0.05 +0.00    +0.251 C  
DOCKED: BRANCH  14  15
DOCKED: ATOM     15  N   UNL     1     -36.075  -7.495  12.870 -0.09 +0.00    +0.141 N  
DOCKED: ATOM     16  C   UNL     1     -34.861  -6.684  12.985 -0.03 +0.00    +0.285 C  
DOCKED: ATOM     17  C   UNL     1     -35.903  -8.523  11.842 -0.04 +0.00    +0.285 C  
DOCKED: ENDBRANCH  14  15
DOCKED: ENDBRANCH  13  14
DOCKED: ENDBRANCH  12  13
DOCKED: ENDBRANCH   2  12
DOCKED: BRANCH   2  18
DOCKED: ATOM     18  C   UNL     1     -38.303 -12.228  16.125 -0.10 +0.00    +0.006 A  
DOCKED: ATOM     19  C   UNL     1     -37.072 -12.274  16.778 -0.11 +0.00    +0.001 A  
DOCKED: ATOM     20  C   UNL     1     -36.840 -13.239  17.758 -0.15 +0.00    +0.029 A  
DOCKED: ATOM     21  C   UNL     1     -37.838 -14.157  18.084 -0.15 +0.00    +0.140 A  
DOCKED: ATOM     22  C   UNL     1     -39.069 -14.111  17.430 -0.11 +0.00    +0.029 A  
DOCKED: ATOM     23  F   UNL     1     -37.615 -15.083  19.026 -0.06 -0.00    -0.204 F  
DOCKED: ATOM     24  C   UNL     1     -39.302 -13.145  16.449 -0.14 +0.00    +0.001 A  
DOCKED: ENDBRANCH   2  18
DOCKED: TORSDOF 5
DOCKED: TER
DOCKED: ENDMDL
________________________________________________________________________________


    FINAL DOCKED STATE:
    ________________________


Run:   400 / 512
Time taken for this run:   0.002s

DOCKED: MODEL        400
DOCKED: USER    Run = 400
DOCKED: USER
DOCKED: USER    Estimated Free Energy of Binding    =  -5.73 kcal/mol  [=(1)+(2)+(3)-(4)]
DOCKED: USER
DOCKED: USER    (1) Final Intermolecular Energy     =  -7.22 kcal/mol
DOCKED: USER        vdW + Hbond + desolv Energy     =  -7.22 kcal/mol
DOCKED: USER        Electrostatic Energy            =  +0.00 kcal/mol
DOCKED: USER        Moving Ligand-Fixed Receptor    =  -7.22 kcal/mol
DOCKED: USER        Moving Ligand-Moving Receptor   =  +0.00 kcal/mol
DOCKED: USER    (2) Final Total Internal Energy     =  -1.08 kcal/mol
DOCKED: USER    (3) Torsional Free Energy           =  +1.49 kcal/mol
DOCKED: USER    (4) Unbound System's Energy         =  -1.08 kcal/mol
DOCKED: USER
DOCKED: USER
DOCKED: REMARK  5 active torsions:
DOCKED: REMARK  status: ('A' for Active; 'I' for Inactive)
DOCKED: REMARK    1  A    between atoms: C_2  and  C_19 
DOCKED: REMARK    2  A    between atoms: C_2  and  C_11 
DOCKED: REMARK    3  A    between atoms: C_19  and  C_20 
DOCKED: REMARK    4  A    between atoms: C_20  and  C_21 
DOCKED: REMARK    5  A    between atoms: C_21  and  N_22 
DOCKED: USER                              x       y       z     vdW  Elec       q    Type
DOCKED: USER                           _______ _______ _______ _____ _____    ______ ____
DOCKED: ROOT
DOCKED: ATOM      1  O   UNL     1     -36.456 -13.624  13.989 -0.15 -0.00    -0.346 OA 
DOCKED: ATOM      2  C   UNL     1     -37.169 -12.355  13.833 -0.24 +0.00    +0.130 C  
DOCKED: ATOM      3  C   UNL     1     -37.810 -12.467  12.479 -0.34 +0.00    +0.004 A  
DOCKED: ATOM      4  C   UNL     1     -37.576 -13.731  11.955 -0.42 +0.00    +0.006 A  
DOCKED: ATOM      5  C   UNL     1     -36.788 -14.535  12.916 -0.22 +0.00    +0.169 C  
DOCKED: ATOM      6  C   UNL     1     -38.550 -11.530  11.774 -0.34 -0.00    -0.001 A  
DOCKED: ATOM      7  C   UNL     1     -38.067 -14.098  10.714 -0.44 +0.00    +0.008 A  
DOCKED: ATOM      8  C   UNL     1     -39.048 -11.883  10.518 +0.09 +0.00    +0.010 A  
DOCKED: ATOM      9  C   UNL     1     -38.808 -13.161   9.992 -0.45 +0.00    +0.068 A  
DOCKED: ATOM     10  N   UNL     1     -39.751 -13.787   7.661 -2.66 -0.00    -0.191 NA 
DOCKED: ATOM     11  C   UNL     1     -39.327 -13.506   8.706 -0.35 +0.00    +0.101 C  
DOCKED: ENDROOT
DOCKED: BRANCH   2  12
DOCKED: ATOM     12  C   UNL     1     -38.186 -12.231  14.962 -0.15 +0.00    +0.038 C  
DOCKED: BRANCH  12  13
DOCKED: ATOM     13  C   UNL     1     -38.016 -13.347  15.990 -0.22 +0.00    +0.038 C  
DOCKED: BRANCH  13  14
DOCKED: ATOM     14  C   UNL     1     -36.824 -13.075  16.905 -0.11 +0.00    +0.251 C  
DOCKED: BRANCH  14  15
DOCKED: ATOM     15  N   UNL     1     -37.007 -13.740  18.189 -0.14 +0.00    +0.141 N  
DOCKED: ATOM     16  C   UNL     1     -35.766 -14.388  18.617 -0.11 +0.00    +0.285 C  
DOCKED: ATOM     17  C   UNL     1     -37.459 -12.787  19.204 -0.02 +0.00    +0.285 C  
DOCKED: ENDBRANCH  14  15
DOCKED: ENDBRANCH  13  14
DOCKED: ENDBRANCH  12  13
DOCKED: ENDBRANCH   2  12
DOCKED: BRANCH   2  18
DOCKED: ATOM     18  C   UNL     1     -36.148 -11.269  13.905 -0.21 +0.00    +0.006 A  
DOCKED: ATOM     19  C   UNL     1     -34.856 -11.556  14.344 -0.20 +0.00    +0.001 A  
DOCKED: ATOM     20  C   UNL     1     -33.903 -10.539  14.411 -0.13 +0.00    +0.029 A  
DOCKED: ATOM     21  C   UNL     1     -34.242  -9.239  14.039 -0.08 +0.00    +0.140 A  
DOCKED: ATOM     22  C   UNL     1     -35.535  -8.953  13.600 -0.13 +0.00    +0.029 A  
DOCKED: ATOM     23  F   UNL     1     -33.326  -8.264  14.102 -0.01 -0.00    -0.204 F  
DOCKED: ATOM     24  C   UNL     1     -36.489  -9.969  13.533 -0.18 +0.00    +0.001 A  
DOCKED: ENDBRANCH   2  18
DOCKED: TORSDOF 5
DOCKED: TER
DOCKED: ENDMDL
________________________________________________________________________________


    FINAL DOCKED STATE:
    ________________________


Run:   401 / 512
Time taken for this run:   0.002s

DOCKED: MODEL        401
DOCKED: USER    Run = 401
DOCKED: USER
DOCKED: USER    Estimated Free Energy of Binding    =  -4.76 kcal/mol  [=(1)+(2)+(3)-(4)]
DOCKED: USER
DOCKED: USER    (1) Final Intermolecular Energy     =  -6.25 kcal/mol
DOCKED: USER        vdW + Hbond + desolv Energy     =  -6.25 kcal/mol
DOCKED: USER        Electrostatic Energy            =  +0.00 kcal/mol
DOCKED: USER        Moving Ligand-Fixed Receptor    =  -6.25 kcal/mol
DOCKED: USER        Moving Ligand-Moving Receptor   =  +0.00 kcal/mol
DOCKED: USER    (2) Final Total Internal Energy     =  -1.33 kcal/mol
DOCKED: USER    (3) Torsional Free Energy           =  +1.49 kcal/mol
DOCKED: USER    (4) Unbound System's Energy         =  -1.33 kcal/mol
DOCKED: USER
DOCKED: USER
DOCKED: REMARK  5 active torsions:
DOCKED: REMARK  status: ('A' for Active; 'I' for Inactive)
DOCKED: REMARK    1  A    between atoms: C_2  and  C_19 
DOCKED: REMARK    2  A    between atoms: C_2  and  C_11 
DOCKED: REMARK    3  A    between atoms: C_19  and  C_20 
DOCKED: REMARK    4  A    between atoms: C_20  and  C_21 
DOCKED: REMARK    5  A    between atoms: C_21  and  N_22 
DOCKED: USER                              x       y       z     vdW  Elec       q    Type
DOCKED: USER                           _______ _______ _______ _____ _____    ______ ____
DOCKED: ROOT
DOCKED: ATOM      1  O   UNL     1     -36.025  -4.294   7.325 -0.12 -0.00    -0.346 OA 
DOCKED: ATOM      2  C   UNL     1     -34.727  -4.452   6.668 -0.20 +0.00    +0.130 C  
DOCKED: ATOM      3  C   UNL     1     -34.931  -3.835   5.314 -0.27 +0.00    +0.004 A  
DOCKED: ATOM      4  C   UNL     1     -36.199  -3.275   5.243 -0.09 +0.00    +0.006 A  
DOCKED: ATOM      5  C   UNL     1     -36.906  -3.468   6.529 -0.15 +0.00    +0.169 C  
DOCKED: ATOM      6  C   UNL     1     -34.061  -3.765   4.236 -0.24 -0.00    -0.001 A  
DOCKED: ATOM      7  C   UNL     1     -36.640  -2.634   4.098 -0.13 +0.00    +0.008 A  
DOCKED: ATOM      8  C   UNL     1     -34.492  -3.126   3.073 -0.26 +0.00    +0.010 A  
DOCKED: ATOM      9  C   UNL     1     -35.776  -2.563   3.005 -0.27 +0.00    +0.068 A  
DOCKED: ATOM     10  N   UNL     1     -36.544  -1.378   0.832 -2.54 -0.00    -0.191 NA 
DOCKED: ATOM     11  C   UNL     1     -36.199  -1.910   1.806 -0.30 +0.00    +0.101 C  
DOCKED: ENDROOT
DOCKED: BRANCH   2  12
DOCKED: ATOM     12  C   UNL     1     -33.675  -3.726   7.498 -0.17 +0.00    +0.038 C  
DOCKED: BRANCH  12  13
DOCKED: ATOM     13  C   UNL     1     -34.118  -3.575   8.952 -0.17 +0.00    +0.038 C  
DOCKED: BRANCH  13  14
DOCKED: ATOM     14  C   UNL     1     -33.042  -4.081   9.910 -0.06 +0.00    +0.251 C  
DOCKED: BRANCH  14  15
DOCKED: ATOM     15  N   UNL     1     -33.555  -5.187  10.710 -0.03 +0.00    +0.141 N  
DOCKED: ATOM     16  C   UNL     1     -34.941  -4.937  11.106 -0.03 +0.00    +0.285 C  
DOCKED: ATOM     17  C   UNL     1     -33.456  -6.447   9.972 -0.04 +0.00    +0.285 C  
DOCKED: ENDBRANCH  14  15
DOCKED: ENDBRANCH  13  14
DOCKED: ENDBRANCH  12  13
DOCKED: ENDBRANCH   2  12
DOCKED: BRANCH   2  18
DOCKED: ATOM     18  C   UNL     1     -34.445  -5.916   6.604 -0.17 +0.00    +0.006 A  
DOCKED: ATOM     19  C   UNL     1     -35.322  -6.820   7.201 -0.22 +0.00    +0.001 A  
DOCKED: ATOM     20  C   UNL     1     -35.058  -8.189   7.141 -0.22 +0.00    +0.029 A  
DOCKED: ATOM     21  C   UNL     1     -33.919  -8.651   6.483 -0.19 +0.00    +0.140 A  
DOCKED: ATOM     22  C   UNL     1     -33.043  -7.746   5.885 -0.16 +0.00    +0.029 A  
DOCKED: ATOM     23  F   UNL     1     -33.666  -9.965   6.423 -0.10 -0.00    -0.204 F  
DOCKED: ATOM     24  C   UNL     1     -33.306  -6.376   5.945 -0.12 +0.00    +0.001 A  
DOCKED: ENDBRANCH   2  18
DOCKED: TORSDOF 5
DOCKED: TER
DOCKED: ENDMDL
________________________________________________________________________________


    FINAL DOCKED STATE:
    ________________________


Run:   402 / 512
Time taken for this run:   0.002s

DOCKED: MODEL        402
DOCKED: USER    Run = 402
DOCKED: USER
DOCKED: USER    Estimated Free Energy of Binding    =  -4.08 kcal/mol  [=(1)+(2)+(3)-(4)]
DOCKED: USER
DOCKED: USER    (1) Final Intermolecular Energy     =  -5.57 kcal/mol
DOCKED: USER        vdW + Hbond + desolv Energy     =  -5.57 kcal/mol
DOCKED: USER        Electrostatic Energy            =  +0.00 kcal/mol
DOCKED: USER        Moving Ligand-Fixed Receptor    =  -5.57 kcal/mol
DOCKED: USER        Moving Ligand-Moving Receptor   =  +0.00 kcal/mol
DOCKED: USER    (2) Final Total Internal Energy     =  -0.93 kcal/mol
DOCKED: USER    (3) Torsional Free Energy           =  +1.49 kcal/mol
DOCKED: USER    (4) Unbound System's Energy         =  -0.93 kcal/mol
DOCKED: USER
DOCKED: USER
DOCKED: REMARK  5 active torsions:
DOCKED: REMARK  status: ('A' for Active; 'I' for Inactive)
DOCKED: REMARK    1  A    between atoms: C_2  and  C_19 
DOCKED: REMARK    2  A    between atoms: C_2  and  C_11 
DOCKED: REMARK    3  A    between atoms: C_19  and  C_20 
DOCKED: REMARK    4  A    between atoms: C_20  and  C_21 
DOCKED: REMARK    5  A    between atoms: C_21  and  N_22 
DOCKED: USER                              x       y       z     vdW  Elec       q    Type
DOCKED: USER                           _______ _______ _______ _____ _____    ______ ____
DOCKED: ROOT
DOCKED: ATOM      1  O   UNL     1     -36.890  -8.363  13.663 -0.03 -0.00    -0.346 OA 
DOCKED: ATOM      2  C   UNL     1     -35.974  -9.406  14.129 -0.11 +0.00    +0.130 C  
DOCKED: ATOM      3  C   UNL     1     -36.588 -10.677  13.616 -0.20 +0.00    +0.004 A  
DOCKED: ATOM      4  C   UNL     1     -37.694 -10.380  12.834 -0.26 +0.00    +0.006 A  
DOCKED: ATOM      5  C   UNL     1     -37.880  -8.913  12.764 -0.18 +0.00    +0.169 C  
DOCKED: ATOM      6  C   UNL     1     -36.191 -11.991  13.817 -0.25 -0.00    -0.001 A  
DOCKED: ATOM      7  C   UNL     1     -38.441 -11.378  12.232 -0.31 +0.00    +0.008 A  
DOCKED: ATOM      8  C   UNL     1     -36.936 -13.010  13.221 -0.34 +0.00    +0.010 A  
DOCKED: ATOM      9  C   UNL     1     -38.055 -12.705  12.432 -0.30 +0.00    +0.068 A  
DOCKED: ATOM     10  N   UNL     1     -39.414 -14.619  11.336 -2.52 -0.00    -0.191 NA 
DOCKED: ATOM     11  C   UNL     1     -38.805 -13.760  11.828 -0.36 +0.00    +0.101 C  
DOCKED: ENDROOT
DOCKED: BRANCH   2  12
DOCKED: ATOM     12  C   UNL     1     -34.595  -9.134  13.541 -0.13 +0.00    +0.038 C  
DOCKED: BRANCH  12  13
DOCKED: ATOM     13  C   UNL     1     -33.590 -10.205  13.961 -0.12 +0.00    +0.038 C  
DOCKED: BRANCH  13  14
DOCKED: ATOM     14  C   UNL     1     -32.235  -9.981  13.291 -0.07 +0.00    +0.251 C  
DOCKED: BRANCH  14  15
DOCKED: ATOM     15  N   UNL     1     -31.652 -11.255  12.887 -0.12 +0.00    +0.141 N  
DOCKED: ATOM     16  C   UNL     1     -30.613 -11.049  11.877 -0.07 +0.00    +0.285 C  
DOCKED: ATOM     17  C   UNL     1     -31.103 -11.961  14.045 -0.08 +0.00    +0.285 C  
DOCKED: ENDBRANCH  14  15
DOCKED: ENDBRANCH  13  14
DOCKED: ENDBRANCH  12  13
DOCKED: ENDBRANCH   2  12
DOCKED: BRANCH   2  18
DOCKED: ATOM     18  C   UNL     1     -35.949  -9.332  15.619 -0.04 +0.00    +0.006 A  
DOCKED: ATOM     19  C   UNL     1     -34.974  -8.571  16.262 -0.02 +0.00    +0.001 A  
DOCKED: ATOM     20  C   UNL     1     -34.952  -8.503  17.656 -0.00 +0.00    +0.029 A  
DOCKED: ATOM     21  C   UNL     1     -35.904  -9.194  18.403 -0.00 +0.00    +0.140 A  
DOCKED: ATOM     22  C   UNL     1     -36.879  -9.955  17.759 -0.01 +0.00    +0.029 A  
DOCKED: ATOM     23  F   UNL     1     -35.883  -9.127  19.741 +0.00 -0.00    -0.204 F  
DOCKED: ATOM     24  C   UNL     1     -36.902 -10.024  16.365 -0.03 +0.00    +0.001 A  
DOCKED: ENDBRANCH   2  18
DOCKED: TORSDOF 5
DOCKED: TER
DOCKED: ENDMDL
________________________________________________________________________________


    FINAL DOCKED STATE:
    ________________________


Run:   403 / 512
Time taken for this run:   0.002s

DOCKED: MODEL        403
DOCKED: USER    Run = 403
DOCKED: USER
DOCKED: USER    Estimated Free Energy of Binding    =  -3.83 kcal/mol  [=(1)+(2)+(3)-(4)]
DOCKED: USER
DOCKED: USER    (1) Final Intermolecular Energy     =  -5.33 kcal/mol
DOCKED: USER        vdW + Hbond + desolv Energy     =  -5.33 kcal/mol
DOCKED: USER        Electrostatic Energy            =  +0.00 kcal/mol
DOCKED: USER        Moving Ligand-Fixed Receptor    =  -5.33 kcal/mol
DOCKED: USER        Moving Ligand-Moving Receptor   =  +0.00 kcal/mol
DOCKED: USER    (2) Final Total Internal Energy     =  -1.30 kcal/mol
DOCKED: USER    (3) Torsional Free Energy           =  +1.49 kcal/mol
DOCKED: USER    (4) Unbound System's Energy         =  -1.30 kcal/mol
DOCKED: USER
DOCKED: USER
DOCKED: REMARK  5 active torsions:
DOCKED: REMARK  status: ('A' for Active; 'I' for Inactive)
DOCKED: REMARK    1  A    between atoms: C_2  and  C_19 
DOCKED: REMARK    2  A    between atoms: C_2  and  C_11 
DOCKED: REMARK    3  A    between atoms: C_19  and  C_20 
DOCKED: REMARK    4  A    between atoms: C_20  and  C_21 
DOCKED: REMARK    5  A    between atoms: C_21  and  N_22 
DOCKED: USER                              x       y       z     vdW  Elec       q    Type
DOCKED: USER                           _______ _______ _______ _____ _____    ______ ____
DOCKED: ROOT
DOCKED: ATOM      1  O   UNL     1     -30.502  -3.541   3.110 +0.01 -0.00    -0.346 OA 
DOCKED: ATOM      2  C   UNL     1     -30.995  -2.479   3.987 -0.05 +0.00    +0.130 C  
DOCKED: ATOM      3  C   UNL     1     -32.297  -2.071   3.361 -0.12 +0.00    +0.004 A  
DOCKED: ATOM      4  C   UNL     1     -32.578  -2.901   2.285 -0.12 +0.00    +0.006 A  
DOCKED: ATOM      5  C   UNL     1     -31.505  -3.908   2.134 -0.04 +0.00    +0.169 C  
DOCKED: ATOM      6  C   UNL     1     -33.169  -1.054   3.722 -0.22 -0.00    -0.001 A  
DOCKED: ATOM      7  C   UNL     1     -33.730  -2.742   1.534 -0.23 +0.00    +0.008 A  
DOCKED: ATOM      8  C   UNL     1     -34.333  -0.878   2.972 -0.33 +0.00    +0.010 A  
DOCKED: ATOM      9  C   UNL     1     -34.612  -1.718   1.884 -0.34 +0.00    +0.068 A  
DOCKED: ATOM     10  N   UNL     1     -36.784  -1.368   0.515 -2.55 -0.00    -0.191 NA 
DOCKED: ATOM     11  C   UNL     1     -35.810  -1.525   1.129 -0.37 +0.00    +0.101 C  
DOCKED: ENDROOT
DOCKED: BRANCH   2  12
DOCKED: ATOM     12  C   UNL     1     -31.165  -3.051   5.390 -0.09 +0.00    +0.038 C  
DOCKED: BRANCH  12  13
DOCKED: ATOM     13  C   UNL     1     -32.606  -2.914   5.877 -0.13 +0.00    +0.038 C  
DOCKED: BRANCH  13  14
DOCKED: ATOM     14  C   UNL     1     -33.287  -4.278   5.970 -0.10 +0.00    +0.251 C  
DOCKED: BRANCH  14  15
DOCKED: ATOM     15  N   UNL     1     -34.140  -4.499   4.809 -0.18 +0.00    +0.141 N  
DOCKED: ATOM     16  C   UNL     1     -34.280  -5.930   4.536 -0.13 +0.00    +0.285 C  
DOCKED: ATOM     17  C   UNL     1     -35.456  -3.890   5.013 -0.17 +0.00    +0.285 C  
DOCKED: ENDBRANCH  14  15
DOCKED: ENDBRANCH  13  14
DOCKED: ENDBRANCH  12  13
DOCKED: ENDBRANCH   2  12
DOCKED: BRANCH   2  18
DOCKED: ATOM     18  C   UNL     1     -29.975  -1.390   3.970 -0.04 +0.00    +0.006 A  
DOCKED: ATOM     19  C   UNL     1     -28.917  -1.440   3.063 -0.01 +0.00    +0.001 A  
DOCKED: ATOM     20  C   UNL     1     -27.964  -0.422   3.049 -0.01 +0.00    +0.029 A  
DOCKED: ATOM     21  C   UNL     1     -28.070   0.646   3.939 -0.00 +0.00    +0.140 A  
DOCKED: ATOM     22  C   UNL     1     -29.129   0.696   4.845 -0.03 +0.00    +0.029 A  
DOCKED: ATOM     23  F   UNL     1     -27.156   1.625   3.923 +0.00 -0.00    -0.204 F  
DOCKED: ATOM     24  C   UNL     1     -30.083  -0.323   4.861 -0.07 +0.00    +0.001 A  
DOCKED: ENDBRANCH   2  18
DOCKED: TORSDOF 5
DOCKED: TER
DOCKED: ENDMDL
________________________________________________________________________________


    FINAL DOCKED STATE:
    ________________________


Run:   404 / 512
Time taken for this run:   0.002s

DOCKED: MODEL        404
DOCKED: USER    Run = 404
DOCKED: USER
DOCKED: USER    Estimated Free Energy of Binding    =  -5.22 kcal/mol  [=(1)+(2)+(3)-(4)]
DOCKED: USER
DOCKED: USER    (1) Final Intermolecular Energy     =  -6.72 kcal/mol
DOCKED: USER        vdW + Hbond + desolv Energy     =  -6.72 kcal/mol
DOCKED: USER        Electrostatic Energy            =  +0.00 kcal/mol
DOCKED: USER        Moving Ligand-Fixed Receptor    =  -6.72 kcal/mol
DOCKED: USER        Moving Ligand-Moving Receptor   =  +0.00 kcal/mol
DOCKED: USER    (2) Final Total Internal Energy     =  -0.82 kcal/mol
DOCKED: USER    (3) Torsional Free Energy           =  +1.49 kcal/mol
DOCKED: USER    (4) Unbound System's Energy         =  -0.82 kcal/mol
DOCKED: USER
DOCKED: USER
DOCKED: REMARK  5 active torsions:
DOCKED: REMARK  status: ('A' for Active; 'I' for Inactive)
DOCKED: REMARK    1  A    between atoms: C_2  and  C_19 
DOCKED: REMARK    2  A    between atoms: C_2  and  C_11 
DOCKED: REMARK    3  A    between atoms: C_19  and  C_20 
DOCKED: REMARK    4  A    between atoms: C_20  and  C_21 
DOCKED: REMARK    5  A    between atoms: C_21  and  N_22 
DOCKED: USER                              x       y       z     vdW  Elec       q    Type
DOCKED: USER                           _______ _______ _______ _____ _____    ______ ____
DOCKED: ROOT
DOCKED: ATOM      1  O   UNL     1     -40.885 -12.249  14.187 -0.01 -0.00    -0.346 OA 
DOCKED: ATOM      2  C   UNL     1     -39.638 -11.557  13.856 -0.12 +0.00    +0.130 C  
DOCKED: ATOM      3  C   UNL     1     -39.427 -11.872  12.403 -0.27 +0.00    +0.004 A  
DOCKED: ATOM      4  C   UNL     1     -40.513 -12.587  11.918 -0.30 +0.00    +0.006 A  
DOCKED: ATOM      5  C   UNL     1     -41.508 -12.782  12.995 -0.17 +0.00    +0.169 C  
DOCKED: ATOM      6  C   UNL     1     -38.365 -11.542  11.575 -0.34 -0.00    -0.001 A  
DOCKED: ATOM      7  C   UNL     1     -40.572 -12.998  10.597 -0.28 +0.00    +0.008 A  
DOCKED: ATOM      8  C   UNL     1     -38.408 -11.953  10.241 -0.25 +0.00    +0.010 A  
DOCKED: ATOM      9  C   UNL     1     -39.506 -12.677   9.755 -0.31 +0.00    +0.068 A  
DOCKED: ATOM     10  N   UNL     1     -39.557 -13.421   7.274 -3.01 -0.00    -0.191 NA 
DOCKED: ATOM     11  C   UNL     1     -39.534 -13.088   8.387 -0.28 +0.00    +0.101 C  
DOCKED: ENDROOT
DOCKED: BRANCH   2  12
DOCKED: ATOM     12  C   UNL     1     -39.828 -10.068  14.119 -0.13 +0.00    +0.038 C  
DOCKED: BRANCH  12  13
DOCKED: ATOM     13  C   UNL     1     -39.209  -9.223  13.007 -0.24 +0.00    +0.038 C  
DOCKED: BRANCH  13  14
DOCKED: ATOM     14  C   UNL     1     -39.280  -7.735  13.345 -0.13 +0.00    +0.251 C  
DOCKED: BRANCH  14  15
DOCKED: ATOM     15  N   UNL     1     -38.664  -7.478  14.641 -0.03 +0.00    +0.141 N  
DOCKED: ATOM     16  C   UNL     1     -37.311  -8.035  14.688 -0.02 +0.00    +0.285 C  
DOCKED: ATOM     17  C   UNL     1     -38.631  -6.041  14.921 -0.01 +0.00    +0.285 C  
DOCKED: ENDBRANCH  14  15
DOCKED: ENDBRANCH  13  14
DOCKED: ENDBRANCH  12  13
DOCKED: ENDBRANCH   2  12
DOCKED: BRANCH   2  18
DOCKED: ATOM     18  C   UNL     1     -38.576 -12.128  14.735 -0.13 +0.00    +0.006 A  
DOCKED: ATOM     19  C   UNL     1     -37.271 -11.643  14.655 -0.15 +0.00    +0.001 A  
DOCKED: ATOM     20  C   UNL     1     -36.279 -12.178  15.478 -0.14 +0.00    +0.029 A  
DOCKED: ATOM     21  C   UNL     1     -36.592 -13.196  16.378 -0.05 +0.00    +0.140 A  
DOCKED: ATOM     22  C   UNL     1     -37.898 -13.680  16.457 -0.21 +0.00    +0.029 A  
DOCKED: ATOM     23  F   UNL     1     -35.640 -13.708  17.168 +0.04 -0.00    -0.204 F  
DOCKED: ATOM     24  C   UNL     1     -38.891 -13.146  15.634 -0.17 +0.00    +0.001 A  
DOCKED: ENDBRANCH   2  18
DOCKED: TORSDOF 5
DOCKED: TER
DOCKED: ENDMDL
________________________________________________________________________________


    FINAL DOCKED STATE:
    ________________________


Run:   405 / 512
Time taken for this run:   0.002s

DOCKED: MODEL        405
DOCKED: USER    Run = 405
DOCKED: USER
DOCKED: USER    Estimated Free Energy of Binding    =  -4.73 kcal/mol  [=(1)+(2)+(3)-(4)]
DOCKED: USER
DOCKED: USER    (1) Final Intermolecular Energy     =  -6.22 kcal/mol
DOCKED: USER        vdW + Hbond + desolv Energy     =  -6.22 kcal/mol
DOCKED: USER        Electrostatic Energy            =  +0.00 kcal/mol
DOCKED: USER        Moving Ligand-Fixed Receptor    =  -6.22 kcal/mol
DOCKED: USER        Moving Ligand-Moving Receptor   =  +0.00 kcal/mol
DOCKED: USER    (2) Final Total Internal Energy     =  -1.33 kcal/mol
DOCKED: USER    (3) Torsional Free Energy           =  +1.49 kcal/mol
DOCKED: USER    (4) Unbound System's Energy         =  -1.33 kcal/mol
DOCKED: USER
DOCKED: USER
DOCKED: REMARK  5 active torsions:
DOCKED: REMARK  status: ('A' for Active; 'I' for Inactive)
DOCKED: REMARK    1  A    between atoms: C_2  and  C_19 
DOCKED: REMARK    2  A    between atoms: C_2  and  C_11 
DOCKED: REMARK    3  A    between atoms: C_19  and  C_20 
DOCKED: REMARK    4  A    between atoms: C_20  and  C_21 
DOCKED: REMARK    5  A    between atoms: C_21  and  N_22 
DOCKED: USER                              x       y       z     vdW  Elec       q    Type
DOCKED: USER                           _______ _______ _______ _____ _____    ______ ____
DOCKED: ROOT
DOCKED: ATOM      1  O   UNL     1     -37.337  -8.193  12.723 -0.09 -0.00    -0.346 OA 
DOCKED: ATOM      2  C   UNL     1     -38.582  -8.428  13.456 -0.15 +0.00    +0.130 C  
DOCKED: ATOM      3  C   UNL     1     -38.953  -9.837  13.094 -0.22 +0.00    +0.004 A  
DOCKED: ATOM      4  C   UNL     1     -37.952 -10.397  12.313 -0.28 +0.00    +0.006 A  
DOCKED: ATOM      5  C   UNL     1     -36.860  -9.417  12.117 -0.12 +0.00    +0.169 C  
DOCKED: ATOM      6  C   UNL     1     -40.080 -10.569  13.438 -0.18 -0.00    -0.001 A  
DOCKED: ATOM      7  C   UNL     1     -38.043 -11.698  11.848 -0.35 +0.00    +0.008 A  
DOCKED: ATOM      8  C   UNL     1     -40.189 -11.880  12.973 -0.21 +0.00    +0.010 A  
DOCKED: ATOM      9  C   UNL     1     -39.175 -12.442  12.182 -0.26 +0.00    +0.068 A  
DOCKED: ATOM     10  N   UNL     1     -39.407 -14.881  11.340 -2.57 -0.00    -0.191 NA 
DOCKED: ATOM     11  C   UNL     1     -39.303 -13.787  11.717 -0.35 +0.00    +0.101 C  
DOCKED: ENDROOT
DOCKED: BRANCH   2  12
DOCKED: ATOM     12  C   UNL     1     -38.307  -8.250  14.944 -0.05 +0.00    +0.038 C  
DOCKED: BRANCH  12  13
DOCKED: ATOM     13  C   UNL     1     -37.995  -9.585  15.616 -0.04 +0.00    +0.038 C  
DOCKED: BRANCH  13  14
DOCKED: ATOM     14  C   UNL     1     -36.491  -9.851  15.638 -0.03 +0.00    +0.251 C  
DOCKED: BRANCH  14  15
DOCKED: ATOM     15  N   UNL     1     -36.228 -11.284  15.562 -0.08 +0.00    +0.141 N  
DOCKED: ATOM     16  C   UNL     1     -37.480 -12.041  15.599 -0.06 +0.00    +0.285 C  
DOCKED: ATOM     17  C   UNL     1     -35.476 -11.606  14.348 -0.13 +0.00    +0.285 C  
DOCKED: ENDBRANCH  14  15
DOCKED: ENDBRANCH  13  14
DOCKED: ENDBRANCH  12  13
DOCKED: ENDBRANCH   2  12
DOCKED: BRANCH   2  18
DOCKED: ATOM     18  C   UNL     1     -39.572  -7.423  12.967 -0.20 +0.00    +0.006 A  
DOCKED: ATOM     19  C   UNL     1     -40.930  -7.737  12.943 -0.22 +0.00    +0.001 A  
DOCKED: ATOM     20  C   UNL     1     -41.854  -6.797  12.486 -0.20 +0.00    +0.029 A  
DOCKED: ATOM     21  C   UNL     1     -41.419  -5.545  12.054 -0.12 +0.00    +0.140 A  
DOCKED: ATOM     22  C   UNL     1     -40.060  -5.231  12.079 -0.14 +0.00    +0.029 A  
DOCKED: ATOM     23  F   UNL     1     -42.306  -4.642  11.617 -0.02 -0.00    -0.204 F  
DOCKED: ATOM     24  C   UNL     1     -39.135  -6.171  12.535 -0.16 +0.00    +0.001 A  
DOCKED: ENDBRANCH   2  18
DOCKED: TORSDOF 5
DOCKED: TER
DOCKED: ENDMDL
________________________________________________________________________________


    FINAL DOCKED STATE:
    ________________________


Run:   406 / 512
Time taken for this run:   0.002s

DOCKED: MODEL        406
DOCKED: USER    Run = 406
DOCKED: USER
DOCKED: USER    Estimated Free Energy of Binding    =  -3.56 kcal/mol  [=(1)+(2)+(3)-(4)]
DOCKED: USER
DOCKED: USER    (1) Final Intermolecular Energy     =  -5.05 kcal/mol
DOCKED: USER        vdW + Hbond + desolv Energy     =  -5.05 kcal/mol
DOCKED: USER        Electrostatic Energy            =  +0.00 kcal/mol
DOCKED: USER        Moving Ligand-Fixed Receptor    =  -5.05 kcal/mol
DOCKED: USER        Moving Ligand-Moving Receptor   =  +0.00 kcal/mol
DOCKED: USER    (2) Final Total Internal Energy     =  -1.21 kcal/mol
DOCKED: USER    (3) Torsional Free Energy           =  +1.49 kcal/mol
DOCKED: USER    (4) Unbound System's Energy         =  -1.21 kcal/mol
DOCKED: USER
DOCKED: USER
DOCKED: REMARK  5 active torsions:
DOCKED: REMARK  status: ('A' for Active; 'I' for Inactive)
DOCKED: REMARK    1  A    between atoms: C_2  and  C_19 
DOCKED: REMARK    2  A    between atoms: C_2  and  C_11 
DOCKED: REMARK    3  A    between atoms: C_19  and  C_20 
DOCKED: REMARK    4  A    between atoms: C_20  and  C_21 
DOCKED: REMARK    5  A    between atoms: C_21  and  N_22 
DOCKED: USER                              x       y       z     vdW  Elec       q    Type
DOCKED: USER                           _______ _______ _______ _____ _____    ______ ____
DOCKED: ROOT
DOCKED: ATOM      1  O   UNL     1     -29.675 -10.870   5.298 +0.00 -0.00    -0.346 OA 
DOCKED: ATOM      2  C   UNL     1     -29.142 -12.205   5.023 -0.06 +0.00    +0.130 C  
DOCKED: ATOM      3  C   UNL     1     -29.702 -13.050   6.130 -0.11 +0.00    +0.004 A  
DOCKED: ATOM      4  C   UNL     1     -30.567 -12.291   6.905 -0.14 +0.00    +0.006 A  
DOCKED: ATOM      5  C   UNL     1     -30.649 -10.915   6.366 -0.09 +0.00    +0.169 C  
DOCKED: ATOM      6  C   UNL     1     -29.473 -14.387   6.421 -0.15 -0.00    -0.001 A  
DOCKED: ATOM      7  C   UNL     1     -31.226 -12.837   7.994 -0.27 +0.00    +0.008 A  
DOCKED: ATOM      8  C   UNL     1     -30.126 -14.951   7.518 -0.25 +0.00    +0.010 A  
DOCKED: ATOM      9  C   UNL     1     -30.999 -14.179   8.300 -0.30 +0.00    +0.068 A  
DOCKED: ATOM     10  N   UNL     1     -32.200 -15.258  10.327 -2.52 -0.00    -0.191 NA 
DOCKED: ATOM     11  C   UNL     1     -31.661 -14.774   9.418 -0.40 +0.00    +0.101 C  
DOCKED: ENDROOT
DOCKED: BRANCH   2  12
DOCKED: ATOM     12  C   UNL     1     -29.620 -12.641   3.643 -0.10 +0.00    +0.038 C  
DOCKED: BRANCH  12  13
DOCKED: ATOM     13  C   UNL     1     -29.755 -11.449   2.698 -0.11 +0.00    +0.038 C  
DOCKED: BRANCH  13  14
DOCKED: ATOM     14  C   UNL     1     -31.213 -11.011   2.571 -0.03 +0.00    +0.251 C  
DOCKED: BRANCH  14  15
DOCKED: ATOM     15  N   UNL     1     -31.291  -9.651   2.051 -0.15 +0.00    +0.141 N  
DOCKED: ATOM     16  C   UNL     1     -32.410  -9.518   1.117 -0.21 +0.00    +0.285 C  
DOCKED: ATOM     17  C   UNL     1     -31.426  -8.687   3.145 -0.11 +0.00    +0.285 C  
DOCKED: ENDBRANCH  14  15
DOCKED: ENDBRANCH  13  14
DOCKED: ENDBRANCH  12  13
DOCKED: ENDBRANCH   2  12
DOCKED: BRANCH   2  18
DOCKED: ATOM     18  C   UNL     1     -27.654 -12.098   5.068 -0.01 +0.00    +0.006 A  
DOCKED: ATOM     19  C   UNL     1     -27.045 -11.227   5.971 -0.01 +0.00    +0.001 A  
DOCKED: ATOM     20  C   UNL     1     -25.654 -11.128   6.012 -0.00 +0.00    +0.029 A  
DOCKED: ATOM     21  C   UNL     1     -24.874 -11.900   5.152 -0.00 +0.00    +0.140 A  
DOCKED: ATOM     22  C   UNL     1     -25.484 -12.772   4.250 -0.00 +0.00    +0.029 A  
DOCKED: ATOM     23  F   UNL     1     -23.539 -11.807   5.193 +0.00 -0.00    -0.204 F  
DOCKED: ATOM     24  C   UNL     1     -26.876 -12.871   4.208 -0.01 +0.00    +0.001 A  
DOCKED: ENDBRANCH   2  18
DOCKED: TORSDOF 5
DOCKED: TER
DOCKED: ENDMDL
________________________________________________________________________________


    FINAL DOCKED STATE:
    ________________________


Run:   407 / 512
Time taken for this run:   0.002s

DOCKED: MODEL        407
DOCKED: USER    Run = 407
DOCKED: USER
DOCKED: USER    Estimated Free Energy of Binding    =  -5.59 kcal/mol  [=(1)+(2)+(3)-(4)]
DOCKED: USER
DOCKED: USER    (1) Final Intermolecular Energy     =  -7.08 kcal/mol
DOCKED: USER        vdW + Hbond + desolv Energy     =  -7.08 kcal/mol
DOCKED: USER        Electrostatic Energy            =  +0.00 kcal/mol
DOCKED: USER        Moving Ligand-Fixed Receptor    =  -7.08 kcal/mol
DOCKED: USER        Moving Ligand-Moving Receptor   =  +0.00 kcal/mol
DOCKED: USER    (2) Final Total Internal Energy     =  -1.42 kcal/mol
DOCKED: USER    (3) Torsional Free Energy           =  +1.49 kcal/mol
DOCKED: USER    (4) Unbound System's Energy         =  -1.42 kcal/mol
DOCKED: USER
DOCKED: USER
DOCKED: REMARK  5 active torsions:
DOCKED: REMARK  status: ('A' for Active; 'I' for Inactive)
DOCKED: REMARK    1  A    between atoms: C_2  and  C_19 
DOCKED: REMARK    2  A    between atoms: C_2  and  C_11 
DOCKED: REMARK    3  A    between atoms: C_19  and  C_20 
DOCKED: REMARK    4  A    between atoms: C_20  and  C_21 
DOCKED: REMARK    5  A    between atoms: C_21  and  N_22 
DOCKED: USER                              x       y       z     vdW  Elec       q    Type
DOCKED: USER                           _______ _______ _______ _____ _____    ______ ____
DOCKED: ROOT
DOCKED: ATOM      1  O   UNL     1     -37.101 -10.495  13.688 -0.07 -0.00    -0.346 OA 
DOCKED: ATOM      2  C   UNL     1     -36.963 -11.948  13.801 -0.23 +0.00    +0.130 C  
DOCKED: ATOM      3  C   UNL     1     -37.533 -12.465  12.513 -0.34 +0.00    +0.004 A  
DOCKED: ATOM      4  C   UNL     1     -37.867 -11.400  11.688 -0.31 +0.00    +0.006 A  
DOCKED: ATOM      5  C   UNL     1     -37.533 -10.123  12.358 -0.22 +0.00    +0.169 C  
DOCKED: ATOM      6  C   UNL     1     -37.731 -13.774  12.098 -0.40 -0.00    -0.001 A  
DOCKED: ATOM      7  C   UNL     1     -38.410 -11.604  10.431 +0.02 +0.00    +0.008 A  
DOCKED: ATOM      8  C   UNL     1     -38.282 -13.997  10.835 -0.48 +0.00    +0.010 A  
DOCKED: ATOM      9  C   UNL     1     -38.619 -12.916  10.006 -0.41 +0.00    +0.068 A  
DOCKED: ATOM     10  N   UNL     1     -39.635 -13.364   7.665 -2.92 -0.00    -0.191 NA 
DOCKED: ATOM     11  C   UNL     1     -39.180 -13.163   8.715 -0.43 +0.00    +0.101 C  
DOCKED: ENDROOT
DOCKED: BRANCH   2  12
DOCKED: ATOM     12  C   UNL     1     -35.485 -12.280  13.972 -0.22 +0.00    +0.038 C  
DOCKED: BRANCH  12  13
DOCKED: ATOM     13  C   UNL     1     -34.817 -11.345  14.978 -0.18 +0.00    +0.038 C  
DOCKED: BRANCH  13  14
DOCKED: ATOM     14  C   UNL     1     -34.250 -12.126  16.162 -0.02 +0.00    +0.251 C  
DOCKED: BRANCH  14  15
DOCKED: ATOM     15  N   UNL     1     -35.154 -12.043  17.303 -0.07 +0.00    +0.141 N  
DOCKED: ATOM     16  C   UNL     1     -34.478 -12.469  18.529 -0.05 +0.00    +0.285 C  
DOCKED: ATOM     17  C   UNL     1     -35.668 -10.681  17.455 -0.02 +0.00    +0.285 C  
DOCKED: ENDBRANCH  14  15
DOCKED: ENDBRANCH  13  14
DOCKED: ENDBRANCH  12  13
DOCKED: ENDBRANCH   2  12
DOCKED: BRANCH   2  18
DOCKED: ATOM     18  C   UNL     1     -37.750 -12.369  14.997 -0.16 +0.00    +0.006 A  
DOCKED: ATOM     19  C   UNL     1     -38.528 -11.437  15.683 -0.07 +0.00    +0.001 A  
DOCKED: ATOM     20  C   UNL     1     -39.263 -11.832  16.801 -0.05 +0.00    +0.029 A  
DOCKED: ATOM     21  C   UNL     1     -39.221 -13.158  17.230 -0.08 +0.00    +0.140 A  
DOCKED: ATOM     22  C   UNL     1     -38.443 -14.090  16.544 -0.10 +0.00    +0.029 A  
DOCKED: ATOM     23  F   UNL     1     -39.929 -13.537  18.302 -0.01 -0.00    -0.204 F  
DOCKED: ATOM     24  C   UNL     1     -37.707 -13.695  15.425 -0.26 +0.00    +0.001 A  
DOCKED: ENDBRANCH   2  18
DOCKED: TORSDOF 5
DOCKED: TER
DOCKED: ENDMDL
________________________________________________________________________________


    FINAL DOCKED STATE:
    ________________________


Run:   408 / 512
Time taken for this run:   0.002s

DOCKED: MODEL        408
DOCKED: USER    Run = 408
DOCKED: USER
DOCKED: USER    Estimated Free Energy of Binding    =  -4.49 kcal/mol  [=(1)+(2)+(3)-(4)]
DOCKED: USER
DOCKED: USER    (1) Final Intermolecular Energy     =  -5.98 kcal/mol
DOCKED: USER        vdW + Hbond + desolv Energy     =  -5.98 kcal/mol
DOCKED: USER        Electrostatic Energy            =  +0.00 kcal/mol
DOCKED: USER        Moving Ligand-Fixed Receptor    =  -5.98 kcal/mol
DOCKED: USER        Moving Ligand-Moving Receptor   =  +0.00 kcal/mol
DOCKED: USER    (2) Final Total Internal Energy     =  -1.20 kcal/mol
DOCKED: USER    (3) Torsional Free Energy           =  +1.49 kcal/mol
DOCKED: USER    (4) Unbound System's Energy         =  -1.20 kcal/mol
DOCKED: USER
DOCKED: USER
DOCKED: REMARK  5 active torsions:
DOCKED: REMARK  status: ('A' for Active; 'I' for Inactive)
DOCKED: REMARK    1  A    between atoms: C_2  and  C_19 
DOCKED: REMARK    2  A    between atoms: C_2  and  C_11 
DOCKED: REMARK    3  A    between atoms: C_19  and  C_20 
DOCKED: REMARK    4  A    between atoms: C_20  and  C_21 
DOCKED: REMARK    5  A    between atoms: C_21  and  N_22 
DOCKED: USER                              x       y       z     vdW  Elec       q    Type
DOCKED: USER                           _______ _______ _______ _____ _____    ______ ____
DOCKED: ROOT
DOCKED: ATOM      1  O   UNL     1     -34.502 -10.563  14.491 -0.08 -0.00    -0.346 OA 
DOCKED: ATOM      2  C   UNL     1     -35.454  -9.647  13.862 -0.13 +0.00    +0.130 C  
DOCKED: ATOM      3  C   UNL     1     -36.456 -10.558  13.215 -0.20 +0.00    +0.004 A  
DOCKED: ATOM      4  C   UNL     1     -36.167 -11.876  13.539 -0.22 +0.00    +0.006 A  
DOCKED: ATOM      5  C   UNL     1     -34.978 -11.927  14.420 -0.16 +0.00    +0.169 C  
DOCKED: ATOM      6  C   UNL     1     -37.545 -10.246  12.414 -0.27 -0.00    -0.001 A  
DOCKED: ATOM      7  C   UNL     1     -36.946 -12.921  13.073 -0.34 +0.00    +0.008 A  
DOCKED: ATOM      8  C   UNL     1     -38.338 -11.288  11.932 -0.32 +0.00    +0.010 A  
DOCKED: ATOM      9  C   UNL     1     -38.040 -12.619  12.261 -0.31 +0.00    +0.068 A  
DOCKED: ATOM     10  N   UNL     1     -39.536 -14.531  11.355 -2.56 -0.00    -0.191 NA 
DOCKED: ATOM     11  C   UNL     1     -38.865 -13.674  11.761 -0.37 +0.00    +0.101 C  
DOCKED: ENDROOT
DOCKED: BRANCH   2  12
DOCKED: ATOM     12  C   UNL     1     -36.065  -8.766  14.945 -0.06 +0.00    +0.038 C  
DOCKED: BRANCH  12  13
DOCKED: ATOM     13  C   UNL     1     -37.354  -9.373  15.495 -0.05 +0.00    +0.038 C  
DOCKED: BRANCH  13  14
DOCKED: ATOM     14  C   UNL     1     -38.490  -8.352  15.486 -0.01 +0.00    +0.251 C  
DOCKED: BRANCH  14  15
DOCKED: ATOM     15  N   UNL     1     -39.322  -8.530  14.302 -0.06 +0.00    +0.141 N  
DOCKED: ATOM     16  C   UNL     1     -40.733  -8.637  14.674 -0.03 +0.00    +0.285 C  
DOCKED: ATOM     17  C   UNL     1     -39.127  -7.423  13.364 -0.11 +0.00    +0.285 C  
DOCKED: ENDBRANCH  14  15
DOCKED: ENDBRANCH  13  14
DOCKED: ENDBRANCH  12  13
DOCKED: ENDBRANCH   2  12
DOCKED: BRANCH   2  18
DOCKED: ATOM     18  C   UNL     1     -34.687  -8.832  12.874 -0.13 +0.00    +0.006 A  
DOCKED: ATOM     19  C   UNL     1     -33.300  -8.738  12.976 -0.11 +0.00    +0.001 A  
DOCKED: ATOM     20  C   UNL     1     -32.584  -7.975  12.052 -0.08 +0.00    +0.029 A  
DOCKED: ATOM     21  C   UNL     1     -33.256  -7.309  11.029 -0.07 +0.00    +0.140 A  
DOCKED: ATOM     22  C   UNL     1     -34.644  -7.403  10.928 -0.14 +0.00    +0.029 A  
DOCKED: ATOM     23  F   UNL     1     -32.568  -6.578  10.141 -0.00 -0.00    -0.204 F  
DOCKED: ATOM     24  C   UNL     1     -35.361  -8.165  11.851 -0.16 +0.00    +0.001 A  
DOCKED: ENDBRANCH   2  18
DOCKED: TORSDOF 5
DOCKED: TER
DOCKED: ENDMDL
________________________________________________________________________________


    FINAL DOCKED STATE:
    ________________________


Run:   409 / 512
Time taken for this run:   0.002s

DOCKED: MODEL        409
DOCKED: USER    Run = 409
DOCKED: USER
DOCKED: USER    Estimated Free Energy of Binding    =  -4.48 kcal/mol  [=(1)+(2)+(3)-(4)]
DOCKED: USER
DOCKED: USER    (1) Final Intermolecular Energy     =  -5.97 kcal/mol
DOCKED: USER        vdW + Hbond + desolv Energy     =  -5.97 kcal/mol
DOCKED: USER        Electrostatic Energy            =  +0.00 kcal/mol
DOCKED: USER        Moving Ligand-Fixed Receptor    =  -5.97 kcal/mol
DOCKED: USER        Moving Ligand-Moving Receptor   =  +0.00 kcal/mol
DOCKED: USER    (2) Final Total Internal Energy     =  -1.48 kcal/mol
DOCKED: USER    (3) Torsional Free Energy           =  +1.49 kcal/mol
DOCKED: USER    (4) Unbound System's Energy         =  -1.48 kcal/mol
DOCKED: USER
DOCKED: USER
DOCKED: REMARK  5 active torsions:
DOCKED: REMARK  status: ('A' for Active; 'I' for Inactive)
DOCKED: REMARK    1  A    between atoms: C_2  and  C_19 
DOCKED: REMARK    2  A    between atoms: C_2  and  C_11 
DOCKED: REMARK    3  A    between atoms: C_19  and  C_20 
DOCKED: REMARK    4  A    between atoms: C_20  and  C_21 
DOCKED: REMARK    5  A    between atoms: C_21  and  N_22 
DOCKED: USER                              x       y       z     vdW  Elec       q    Type
DOCKED: USER                           _______ _______ _______ _____ _____    ______ ____
DOCKED: ROOT
DOCKED: ATOM      1  O   UNL     1     -38.409 -12.521  14.524 -0.03 -0.00    -0.346 OA 
DOCKED: ATOM      2  C   UNL     1     -39.840 -12.355  14.264 -0.12 +0.00    +0.130 C  
DOCKED: ATOM      3  C   UNL     1     -39.958 -12.528  12.778 -0.24 +0.00    +0.004 A  
DOCKED: ATOM      4  C   UNL     1     -38.723 -12.872  12.248 -0.33 +0.00    +0.006 A  
DOCKED: ATOM      5  C   UNL     1     -37.719 -12.962  13.331 -0.26 +0.00    +0.169 C  
DOCKED: ATOM      6  C   UNL     1     -41.073 -12.402  11.961 -0.29 -0.00    -0.001 A  
DOCKED: ATOM      7  C   UNL     1     -38.558 -13.096  10.892 -0.46 +0.00    +0.008 A  
DOCKED: ATOM      8  C   UNL     1     -40.921 -12.621  10.591 -0.14 +0.00    +0.010 A  
DOCKED: ATOM      9  C   UNL     1     -39.670 -12.967  10.059 -0.32 +0.00    +0.068 A  
DOCKED: ATOM     10  N   UNL     1     -39.425 -13.371   7.512 -2.77 -0.00    -0.191 NA 
DOCKED: ATOM     11  C   UNL     1     -39.535 -13.189   8.654 -0.27 +0.00    +0.101 C  
DOCKED: ENDROOT
DOCKED: BRANCH   2  12
DOCKED: ATOM     12  C   UNL     1     -40.599 -13.420  15.048 -0.20 +0.00    +0.038 C  
DOCKED: BRANCH  12  13
DOCKED: ATOM     13  C   UNL     1     -39.710 -14.072  16.105 -0.09 +0.00    +0.038 C  
DOCKED: BRANCH  13  14
DOCKED: ATOM     14  C   UNL     1     -40.083 -13.594  17.507 -0.08 +0.00    +0.251 C  
DOCKED: BRANCH  14  15
DOCKED: ATOM     15  N   UNL     1     -39.807 -12.169  17.647 -0.03 +0.00    +0.141 N  
DOCKED: ATOM     16  C   UNL     1     -41.007 -11.451  18.079 +0.00 +0.00    +0.285 C  
DOCKED: ATOM     17  C   UNL     1     -38.714 -11.946  18.594 -0.01 +0.00    +0.285 C  
DOCKED: ENDBRANCH  14  15
DOCKED: ENDBRANCH  13  14
DOCKED: ENDBRANCH  12  13
DOCKED: ENDBRANCH   2  12
DOCKED: BRANCH   2  18
DOCKED: ATOM     18  C   UNL     1     -40.210 -10.984  14.722 -0.08 +0.00    +0.006 A  
DOCKED: ATOM     19  C   UNL     1     -39.226 -10.118  15.197 -0.05 +0.00    +0.001 A  
DOCKED: ATOM     20  C   UNL     1     -39.573  -8.836  15.625 -0.03 +0.00    +0.029 A  
DOCKED: ATOM     21  C   UNL     1     -40.903  -8.422  15.576 -0.01 +0.00    +0.140 A  
DOCKED: ATOM     22  C   UNL     1     -41.888  -9.288  15.100 -0.06 +0.00    +0.029 A  
DOCKED: ATOM     23  F   UNL     1     -41.237  -7.191  15.985 +0.01 -0.00    -0.204 F  
DOCKED: ATOM     24  C   UNL     1     -41.541 -10.571  14.673 -0.09 +0.00    +0.001 A  
DOCKED: ENDBRANCH   2  18
DOCKED: TORSDOF 5
DOCKED: TER
DOCKED: ENDMDL
________________________________________________________________________________


    FINAL DOCKED STATE:
    ________________________


Run:   410 / 512
Time taken for this run:   0.002s

DOCKED: MODEL        410
DOCKED: USER    Run = 410
DOCKED: USER
DOCKED: USER    Estimated Free Energy of Binding    =  -4.13 kcal/mol  [=(1)+(2)+(3)-(4)]
DOCKED: USER
DOCKED: USER    (1) Final Intermolecular Energy     =  -5.62 kcal/mol
DOCKED: USER        vdW + Hbond + desolv Energy     =  -5.62 kcal/mol
DOCKED: USER        Electrostatic Energy            =  +0.00 kcal/mol
DOCKED: USER        Moving Ligand-Fixed Receptor    =  -5.62 kcal/mol
DOCKED: USER        Moving Ligand-Moving Receptor   =  +0.00 kcal/mol
DOCKED: USER    (2) Final Total Internal Energy     =  -1.41 kcal/mol
DOCKED: USER    (3) Torsional Free Energy           =  +1.49 kcal/mol
DOCKED: USER    (4) Unbound System's Energy         =  -1.41 kcal/mol
DOCKED: USER
DOCKED: USER
DOCKED: REMARK  5 active torsions:
DOCKED: REMARK  status: ('A' for Active; 'I' for Inactive)
DOCKED: REMARK    1  A    between atoms: C_2  and  C_19 
DOCKED: REMARK    2  A    between atoms: C_2  and  C_11 
DOCKED: REMARK    3  A    between atoms: C_19  and  C_20 
DOCKED: REMARK    4  A    between atoms: C_20  and  C_21 
DOCKED: REMARK    5  A    between atoms: C_21  and  N_22 
DOCKED: USER                              x       y       z     vdW  Elec       q    Type
DOCKED: USER                           _______ _______ _______ _____ _____    ______ ____
DOCKED: ROOT
DOCKED: ATOM      1  O   UNL     1     -28.889 -10.691   5.382 +0.01 -0.00    -0.346 OA 
DOCKED: ATOM      2  C   UNL     1     -30.105 -10.048   5.882 -0.06 +0.00    +0.130 C  
DOCKED: ATOM      3  C   UNL     1     -30.707 -11.077   6.794 -0.12 +0.00    +0.004 A  
DOCKED: ATOM      4  C   UNL     1     -29.856 -12.168   6.894 -0.09 +0.00    +0.006 A  
DOCKED: ATOM      5  C   UNL     1     -28.643 -11.935   6.078 -0.03 +0.00    +0.169 C  
DOCKED: ATOM      6  C   UNL     1     -31.908 -11.045   7.488 -0.24 -0.00    -0.001 A  
DOCKED: ATOM      7  C   UNL     1     -30.174 -13.260   7.683 -0.17 +0.00    +0.008 A  
DOCKED: ATOM      8  C   UNL     1     -32.245 -12.141   8.285 -0.31 +0.00    +0.010 A  
DOCKED: ATOM      9  C   UNL     1     -31.382 -13.243   8.382 -0.29 +0.00    +0.068 A  
DOCKED: ATOM     10  N   UNL     1     -32.036 -15.258   9.873 -2.56 -0.00    -0.191 NA 
DOCKED: ATOM     11  C   UNL     1     -31.743 -14.355   9.203 -0.40 +0.00    +0.101 C  
DOCKED: ENDROOT
DOCKED: BRANCH   2  12
DOCKED: ATOM     12  C   UNL     1     -29.710  -8.768   6.610 -0.02 +0.00    +0.038 C  
DOCKED: BRANCH  12  13
DOCKED: ATOM     13  C   UNL     1     -29.261  -9.058   8.041 -0.02 +0.00    +0.038 C  
DOCKED: BRANCH  13  14
DOCKED: ATOM     14  C   UNL     1     -30.115  -8.292   9.050 -0.01 +0.00    +0.251 C  
DOCKED: BRANCH  14  15
DOCKED: ATOM     15  N   UNL     1     -30.357  -9.108  10.233 -0.04 +0.00    +0.141 N  
DOCKED: ATOM     16  C   UNL     1     -31.790  -9.349  10.410 -0.07 +0.00    +0.285 C  
DOCKED: ATOM     17  C   UNL     1     -29.638 -10.380  10.139 -0.03 +0.00    +0.285 C  
DOCKED: ENDBRANCH  14  15
DOCKED: ENDBRANCH  13  14
DOCKED: ENDBRANCH  12  13
DOCKED: ENDBRANCH   2  12
DOCKED: BRANCH   2  18
DOCKED: ATOM     18  C   UNL     1     -30.960  -9.750   4.696 -0.12 +0.00    +0.006 A  
DOCKED: ATOM     19  C   UNL     1     -32.004  -8.832   4.802 -0.17 +0.00    +0.001 A  
DOCKED: ATOM     20  C   UNL     1     -32.803  -8.555   3.692 -0.20 +0.00    +0.029 A  
DOCKED: ATOM     21  C   UNL     1     -32.556  -9.195   2.478 -0.20 +0.00    +0.140 A  
DOCKED: ATOM     22  C   UNL     1     -31.511 -10.112   2.373 -0.19 +0.00    +0.029 A  
DOCKED: ATOM     23  F   UNL     1     -33.322  -8.927   1.413 -0.14 -0.00    -0.204 F  
DOCKED: ATOM     24  C   UNL     1     -30.712 -10.391   3.482 -0.14 +0.00    +0.001 A  
DOCKED: ENDBRANCH   2  18
DOCKED: TORSDOF 5
DOCKED: TER
DOCKED: ENDMDL
________________________________________________________________________________


    FINAL DOCKED STATE:
    ________________________


Run:   411 / 512
Time taken for this run:   0.002s

DOCKED: MODEL        411
DOCKED: USER    Run = 411
DOCKED: USER
DOCKED: USER    Estimated Free Energy of Binding    =  -5.37 kcal/mol  [=(1)+(2)+(3)-(4)]
DOCKED: USER
DOCKED: USER    (1) Final Intermolecular Energy     =  -6.86 kcal/mol
DOCKED: USER        vdW + Hbond + desolv Energy     =  -6.86 kcal/mol
DOCKED: USER        Electrostatic Energy            =  +0.00 kcal/mol
DOCKED: USER        Moving Ligand-Fixed Receptor    =  -6.86 kcal/mol
DOCKED: USER        Moving Ligand-Moving Receptor   =  +0.00 kcal/mol
DOCKED: USER    (2) Final Total Internal Energy     =  -0.97 kcal/mol
DOCKED: USER    (3) Torsional Free Energy           =  +1.49 kcal/mol
DOCKED: USER    (4) Unbound System's Energy         =  -0.97 kcal/mol
DOCKED: USER
DOCKED: USER
DOCKED: REMARK  5 active torsions:
DOCKED: REMARK  status: ('A' for Active; 'I' for Inactive)
DOCKED: REMARK    1  A    between atoms: C_2  and  C_19 
DOCKED: REMARK    2  A    between atoms: C_2  and  C_11 
DOCKED: REMARK    3  A    between atoms: C_19  and  C_20 
DOCKED: REMARK    4  A    between atoms: C_20  and  C_21 
DOCKED: REMARK    5  A    between atoms: C_21  and  N_22 
DOCKED: USER                              x       y       z     vdW  Elec       q    Type
DOCKED: USER                           _______ _______ _______ _____ _____    ______ ____
DOCKED: ROOT
DOCKED: ATOM      1  O   UNL     1     -39.319 -13.433  14.742 -0.10 -0.00    -0.346 OA 
DOCKED: ATOM      2  C   UNL     1     -38.717 -12.177  14.292 -0.13 +0.00    +0.130 C  
DOCKED: ATOM      3  C   UNL     1     -38.785 -12.262  12.795 -0.26 +0.00    +0.004 A  
DOCKED: ATOM      4  C   UNL     1     -39.466 -13.412  12.423 -0.30 +0.00    +0.006 A  
DOCKED: ATOM      5  C   UNL     1     -39.901 -14.151  13.629 -0.07 +0.00    +0.169 C  
DOCKED: ATOM      6  C   UNL     1     -38.295 -11.385  11.838 -0.33 -0.00    -0.001 A  
DOCKED: ATOM      7  C   UNL     1     -39.675 -13.727  11.091 -0.41 +0.00    +0.008 A  
DOCKED: ATOM      8  C   UNL     1     -38.493 -11.690  10.491 -0.03 +0.00    +0.010 A  
DOCKED: ATOM      9  C   UNL     1     -39.181 -12.855  10.119 -0.40 +0.00    +0.068 A  
DOCKED: ATOM     10  N   UNL     1     -39.537 -13.390   7.609 -2.94 -0.00    -0.191 NA 
DOCKED: ATOM     11  C   UNL     1     -39.377 -13.151   8.735 -0.34 +0.00    +0.101 C  
DOCKED: ENDROOT
DOCKED: BRANCH   2  12
DOCKED: ATOM     12  C   UNL     1     -39.532 -11.021  14.859 -0.09 +0.00    +0.038 C  
DOCKED: BRANCH  12  13
DOCKED: ATOM     13  C   UNL     1     -39.375  -9.760  14.011 -0.14 +0.00    +0.038 C  
DOCKED: BRANCH  13  14
DOCKED: ATOM     14  C   UNL     1     -38.007  -9.117  14.230 -0.06 +0.00    +0.251 C  
DOCKED: BRANCH  14  15
DOCKED: ATOM     15  N   UNL     1     -37.854  -7.945  13.376 -0.11 +0.00    +0.141 N  
DOCKED: ATOM     16  C   UNL     1     -36.694  -8.095  12.496 -0.12 +0.00    +0.285 C  
DOCKED: ATOM     17  C   UNL     1     -39.065  -7.723  12.584 -0.15 +0.00    +0.285 C  
DOCKED: ENDBRANCH  14  15
DOCKED: ENDBRANCH  13  14
DOCKED: ENDBRANCH  12  13
DOCKED: ENDBRANCH   2  12
DOCKED: BRANCH   2  18
DOCKED: ATOM     18  C   UNL     1     -37.317 -12.155  14.810 -0.16 +0.00    +0.006 A  
DOCKED: ATOM     19  C   UNL     1     -37.077 -12.312  16.174 -0.13 +0.00    +0.001 A  
DOCKED: ATOM     20  C   UNL     1     -35.768 -12.290  16.657 -0.11 +0.00    +0.029 A  
DOCKED: ATOM     21  C   UNL     1     -34.702 -12.112  15.775 -0.01 +0.00    +0.140 A  
DOCKED: ATOM     22  C   UNL     1     -34.944 -11.955  14.411 -0.18 +0.00    +0.029 A  
DOCKED: ATOM     23  F   UNL     1     -33.446 -12.093  16.239 -0.03 -0.00    -0.204 F  
DOCKED: ATOM     24  C   UNL     1     -36.253 -11.976  13.927 -0.25 +0.00    +0.001 A  
DOCKED: ENDBRANCH   2  18
DOCKED: TORSDOF 5
DOCKED: TER
DOCKED: ENDMDL
________________________________________________________________________________


    FINAL DOCKED STATE:
    ________________________


Run:   412 / 512
Time taken for this run:   0.002s

DOCKED: MODEL        412
DOCKED: USER    Run = 412
DOCKED: USER
DOCKED: USER    Estimated Free Energy of Binding    =  -4.41 kcal/mol  [=(1)+(2)+(3)-(4)]
DOCKED: USER
DOCKED: USER    (1) Final Intermolecular Energy     =  -5.90 kcal/mol
DOCKED: USER        vdW + Hbond + desolv Energy     =  -5.90 kcal/mol
DOCKED: USER        Electrostatic Energy            =  +0.00 kcal/mol
DOCKED: USER        Moving Ligand-Fixed Receptor    =  -5.90 kcal/mol
DOCKED: USER        Moving Ligand-Moving Receptor   =  +0.00 kcal/mol
DOCKED: USER    (2) Final Total Internal Energy     =  -1.23 kcal/mol
DOCKED: USER    (3) Torsional Free Energy           =  +1.49 kcal/mol
DOCKED: USER    (4) Unbound System's Energy         =  -1.23 kcal/mol
DOCKED: USER
DOCKED: USER
DOCKED: REMARK  5 active torsions:
DOCKED: REMARK  status: ('A' for Active; 'I' for Inactive)
DOCKED: REMARK    1  A    between atoms: C_2  and  C_19 
DOCKED: REMARK    2  A    between atoms: C_2  and  C_11 
DOCKED: REMARK    3  A    between atoms: C_19  and  C_20 
DOCKED: REMARK    4  A    between atoms: C_20  and  C_21 
DOCKED: REMARK    5  A    between atoms: C_21  and  N_22 
DOCKED: USER                              x       y       z     vdW  Elec       q    Type
DOCKED: USER                           _______ _______ _______ _____ _____    ______ ____
DOCKED: ROOT
DOCKED: ATOM      1  O   UNL     1     -36.898  -8.099  13.009 -0.06 -0.00    -0.346 OA 
DOCKED: ATOM      2  C   UNL     1     -38.310  -8.106  13.394 -0.14 +0.00    +0.130 C  
DOCKED: ATOM      3  C   UNL     1     -38.785  -9.472  12.992 -0.22 +0.00    +0.004 A  
DOCKED: ATOM      4  C   UNL     1     -37.715 -10.219  12.521 -0.27 +0.00    +0.006 A  
DOCKED: ATOM      5  C   UNL     1     -36.473  -9.417  12.589 -0.17 +0.00    +0.169 C  
DOCKED: ATOM      6  C   UNL     1     -40.061 -10.014  13.049 -0.22 -0.00    -0.001 A  
DOCKED: ATOM      7  C   UNL     1     -37.882 -11.524  12.089 -0.34 +0.00    +0.008 A  
DOCKED: ATOM      8  C   UNL     1     -40.246 -11.327  12.613 -0.22 +0.00    +0.010 A  
DOCKED: ATOM      9  C   UNL     1     -39.162 -12.078  12.136 -0.26 +0.00    +0.068 A  
DOCKED: ATOM     10  N   UNL     1     -39.540 -14.515  11.339 -2.56 -0.00    -0.191 NA 
DOCKED: ATOM     11  C   UNL     1     -39.370 -13.422  11.696 -0.36 +0.00    +0.101 C  
DOCKED: ENDROOT
DOCKED: BRANCH   2  12
DOCKED: ATOM     12  C   UNL     1     -38.401  -7.865  14.896 -0.05 +0.00    +0.038 C  
DOCKED: BRANCH  12  13
DOCKED: ATOM     13  C   UNL     1     -37.043  -7.486  15.483 -0.02 +0.00    +0.038 C  
DOCKED: BRANCH  13  14
DOCKED: ATOM     14  C   UNL     1     -36.298  -8.722  15.985 -0.01 +0.00    +0.251 C  
DOCKED: BRANCH  14  15
DOCKED: ATOM     15  N   UNL     1     -34.869  -8.591  15.730 -0.02 +0.00    +0.141 N  
DOCKED: ATOM     16  C   UNL     1     -34.494  -7.182  15.604 -0.00 +0.00    +0.285 C  
DOCKED: ATOM     17  C   UNL     1     -34.094  -9.229  16.796 -0.01 +0.00    +0.285 C  
DOCKED: ENDBRANCH  14  15
DOCKED: ENDBRANCH  13  14
DOCKED: ENDBRANCH  12  13
DOCKED: ENDBRANCH   2  12
DOCKED: BRANCH   2  18
DOCKED: ATOM     18  C   UNL     1     -38.975  -7.010  12.631 -0.19 +0.00    +0.006 A  
DOCKED: ATOM     19  C   UNL     1     -40.336  -6.762  12.811 -0.20 +0.00    +0.001 A  
DOCKED: ATOM     20  C   UNL     1     -40.957  -5.738  12.097 -0.17 +0.00    +0.029 A  
DOCKED: ATOM     21  C   UNL     1     -40.218  -4.963  11.204 -0.11 +0.00    +0.140 A  
DOCKED: ATOM     22  C   UNL     1     -38.858  -5.211  11.024 -0.15 +0.00    +0.029 A  
DOCKED: ATOM     23  F   UNL     1     -40.814  -3.978  10.519 -0.02 -0.00    -0.204 F  
DOCKED: ATOM     24  C   UNL     1     -38.235  -6.236  11.738 -0.14 +0.00    +0.001 A  
DOCKED: ENDBRANCH   2  18
DOCKED: TORSDOF 5
DOCKED: TER
DOCKED: ENDMDL
________________________________________________________________________________


    FINAL DOCKED STATE:
    ________________________


Run:   413 / 512
Time taken for this run:   0.002s

DOCKED: MODEL        413
DOCKED: USER    Run = 413
DOCKED: USER
DOCKED: USER    Estimated Free Energy of Binding    =  -4.36 kcal/mol  [=(1)+(2)+(3)-(4)]
DOCKED: USER
DOCKED: USER    (1) Final Intermolecular Energy     =  -5.85 kcal/mol
DOCKED: USER        vdW + Hbond + desolv Energy     =  -5.85 kcal/mol
DOCKED: USER        Electrostatic Energy            =  +0.00 kcal/mol
DOCKED: USER        Moving Ligand-Fixed Receptor    =  -5.85 kcal/mol
DOCKED: USER        Moving Ligand-Moving Receptor   =  +0.00 kcal/mol
DOCKED: USER    (2) Final Total Internal Energy     =  -1.12 kcal/mol
DOCKED: USER    (3) Torsional Free Energy           =  +1.49 kcal/mol
DOCKED: USER    (4) Unbound System's Energy         =  -1.12 kcal/mol
DOCKED: USER
DOCKED: USER
DOCKED: REMARK  5 active torsions:
DOCKED: REMARK  status: ('A' for Active; 'I' for Inactive)
DOCKED: REMARK    1  A    between atoms: C_2  and  C_19 
DOCKED: REMARK    2  A    between atoms: C_2  and  C_11 
DOCKED: REMARK    3  A    between atoms: C_19  and  C_20 
DOCKED: REMARK    4  A    between atoms: C_20  and  C_21 
DOCKED: REMARK    5  A    between atoms: C_21  and  N_22 
DOCKED: USER                              x       y       z     vdW  Elec       q    Type
DOCKED: USER                           _______ _______ _______ _____ _____    ______ ____
DOCKED: ROOT
DOCKED: ATOM      1  O   UNL     1     -40.275 -10.939  14.398 -0.01 -0.00    -0.346 OA 
DOCKED: ATOM      2  C   UNL     1     -38.871 -11.306  14.207 -0.10 +0.00    +0.130 C  
DOCKED: ATOM      3  C   UNL     1     -38.840 -11.906  12.831 -0.25 +0.00    +0.004 A  
DOCKED: ATOM      4  C   UNL     1     -40.092 -11.792  12.244 -0.25 +0.00    +0.006 A  
DOCKED: ATOM      5  C   UNL     1     -41.021 -11.108  13.171 -0.16 +0.00    +0.169 C  
DOCKED: ATOM      6  C   UNL     1     -37.786 -12.495  12.149 -0.36 -0.00    -0.001 A  
DOCKED: ATOM      7  C   UNL     1     -40.334 -12.264  10.965 -0.12 +0.00    +0.008 A  
DOCKED: ATOM      8  C   UNL     1     -38.015 -12.980  10.861 -0.33 +0.00    +0.010 A  
DOCKED: ATOM      9  C   UNL     1     -39.282 -12.865  10.272 -0.39 +0.00    +0.068 A  
DOCKED: ATOM     10  N   UNL     1     -39.672 -13.770   7.876 -2.44 -0.00    -0.191 NA 
DOCKED: ATOM     11  C   UNL     1     -39.498 -13.365   8.950 -0.33 +0.00    +0.101 C  
DOCKED: ENDROOT
DOCKED: BRANCH   2  12
DOCKED: ATOM     12  C   UNL     1     -38.023 -10.045  14.323 -0.12 +0.00    +0.038 C  
DOCKED: BRANCH  12  13
DOCKED: ATOM     13  C   UNL     1     -38.092  -9.455  15.730 -0.04 +0.00    +0.038 C  
DOCKED: BRANCH  13  14
DOCKED: ATOM     14  C   UNL     1     -39.409  -8.714  15.952 -0.01 +0.00    +0.251 C  
DOCKED: BRANCH  14  15
DOCKED: ATOM     15  N   UNL     1     -39.179  -7.276  16.006 -0.01 +0.00    +0.141 N  
DOCKED: ATOM     16  C   UNL     1     -38.748  -6.772  14.700 -0.02 +0.00    +0.285 C  
DOCKED: ATOM     17  C   UNL     1     -40.388  -6.576  16.445 -0.00 +0.00    +0.285 C  
DOCKED: ENDBRANCH  14  15
DOCKED: ENDBRANCH  13  14
DOCKED: ENDBRANCH  12  13
DOCKED: ENDBRANCH   2  12
DOCKED: BRANCH   2  18
DOCKED: ATOM     18  C   UNL     1     -38.526 -12.287  15.277 -0.12 +0.00    +0.006 A  
DOCKED: ATOM     19  C   UNL     1     -39.539 -12.891  16.020 -0.13 +0.00    +0.001 A  
DOCKED: ATOM     20  C   UNL     1     -39.216 -13.808  17.021 -0.13 +0.00    +0.029 A  
DOCKED: ATOM     21  C   UNL     1     -37.881 -14.120  17.277 -0.16 +0.00    +0.140 A  
DOCKED: ATOM     22  C   UNL     1     -36.869 -13.515  16.533 -0.15 +0.00    +0.029 A  
DOCKED: ATOM     23  F   UNL     1     -37.571 -15.001  18.236 -0.08 -0.00    -0.204 F  
DOCKED: ATOM     24  C   UNL     1     -37.191 -12.597  15.532 -0.17 +0.00    +0.001 A  
DOCKED: ENDBRANCH   2  18
DOCKED: TORSDOF 5
DOCKED: TER
DOCKED: ENDMDL
________________________________________________________________________________


    FINAL DOCKED STATE:
    ________________________


Run:   414 / 512
Time taken for this run:   0.002s

DOCKED: MODEL        414
DOCKED: USER    Run = 414
DOCKED: USER
DOCKED: USER    Estimated Free Energy of Binding    =  -4.02 kcal/mol  [=(1)+(2)+(3)-(4)]
DOCKED: USER
DOCKED: USER    (1) Final Intermolecular Energy     =  -5.51 kcal/mol
DOCKED: USER        vdW + Hbond + desolv Energy     =  -5.51 kcal/mol
DOCKED: USER        Electrostatic Energy            =  +0.00 kcal/mol
DOCKED: USER        Moving Ligand-Fixed Receptor    =  -5.51 kcal/mol
DOCKED: USER        Moving Ligand-Moving Receptor   =  +0.00 kcal/mol
DOCKED: USER    (2) Final Total Internal Energy     =  -1.40 kcal/mol
DOCKED: USER    (3) Torsional Free Energy           =  +1.49 kcal/mol
DOCKED: USER    (4) Unbound System's Energy         =  -1.40 kcal/mol
DOCKED: USER
DOCKED: USER
DOCKED: REMARK  5 active torsions:
DOCKED: REMARK  status: ('A' for Active; 'I' for Inactive)
DOCKED: REMARK    1  A    between atoms: C_2  and  C_19 
DOCKED: REMARK    2  A    between atoms: C_2  and  C_11 
DOCKED: REMARK    3  A    between atoms: C_19  and  C_20 
DOCKED: REMARK    4  A    between atoms: C_20  and  C_21 
DOCKED: REMARK    5  A    between atoms: C_21  and  N_22 
DOCKED: USER                              x       y       z     vdW  Elec       q    Type
DOCKED: USER                           _______ _______ _______ _____ _____    ______ ____
DOCKED: ROOT
DOCKED: ATOM      1  O   UNL     1     -38.015  -9.147  15.185 -0.00 -0.00    -0.346 OA 
DOCKED: ATOM      2  C   UNL     1     -37.458  -8.964  13.844 -0.11 +0.00    +0.130 C  
DOCKED: ATOM      3  C   UNL     1     -37.861 -10.213  13.114 -0.23 +0.00    +0.004 A  
DOCKED: ATOM      4  C   UNL     1     -38.670 -10.990  13.931 -0.14 +0.00    +0.006 A  
DOCKED: ATOM      5  C   UNL     1     -38.867 -10.315  15.233 -0.04 +0.00    +0.169 C  
DOCKED: ATOM      6  C   UNL     1     -37.546 -10.623  11.827 -0.17 -0.00    -0.001 A  
DOCKED: ATOM      7  C   UNL     1     -39.186 -12.199  13.494 -0.18 +0.00    +0.008 A  
DOCKED: ATOM      8  C   UNL     1     -38.054 -11.841  11.373 -0.35 +0.00    +0.010 A  
DOCKED: ATOM      9  C   UNL     1     -38.871 -12.625  12.203 -0.27 +0.00    +0.068 A  
DOCKED: ATOM     10  N   UNL     1     -39.803 -14.878  11.328 -2.41 -0.00    -0.191 NA 
DOCKED: ATOM     11  C   UNL     1     -39.384 -13.868  11.721 -0.32 +0.00    +0.101 C  
DOCKED: ENDROOT
DOCKED: BRANCH   2  12
DOCKED: ATOM     12  C   UNL     1     -38.062  -7.703  13.238 -0.16 +0.00    +0.038 C  
DOCKED: BRANCH  12  13
DOCKED: ATOM     13  C   UNL     1     -39.424  -7.984  12.607 -0.23 +0.00    +0.038 C  
DOCKED: BRANCH  13  14
DOCKED: ATOM     14  C   UNL     1     -40.547  -7.328  13.408 -0.13 +0.00    +0.251 C  
DOCKED: BRANCH  14  15
DOCKED: ATOM     15  N   UNL     1     -41.680  -8.237  13.530 -0.14 +0.00    +0.141 N  
DOCKED: ATOM     16  C   UNL     1     -41.407  -9.499  12.841 -0.12 +0.00    +0.285 C  
DOCKED: ATOM     17  C   UNL     1     -41.992  -8.485  14.939 -0.02 +0.00    +0.285 C  
DOCKED: ENDBRANCH  14  15
DOCKED: ENDBRANCH  13  14
DOCKED: ENDBRANCH  12  13
DOCKED: ENDBRANCH   2  12
DOCKED: BRANCH   2  18
DOCKED: ATOM     18  C   UNL     1     -35.980  -8.833  13.999 -0.11 +0.00    +0.006 A  
DOCKED: ATOM     19  C   UNL     1     -35.221  -9.932  14.398 -0.12 +0.00    +0.001 A  
DOCKED: ATOM     20  C   UNL     1     -33.839  -9.808  14.543 -0.10 +0.00    +0.029 A  
DOCKED: ATOM     21  C   UNL     1     -33.218  -8.586  14.290 -0.04 +0.00    +0.140 A  
DOCKED: ATOM     22  C   UNL     1     -33.978  -7.486  13.892 -0.04 +0.00    +0.029 A  
DOCKED: ATOM     23  F   UNL     1     -31.891  -8.467  14.428 -0.00 -0.00    -0.204 F  
DOCKED: ATOM     24  C   UNL     1     -35.361  -7.609  13.746 -0.07 +0.00    +0.001 A  
DOCKED: ENDBRANCH   2  18
DOCKED: TORSDOF 5
DOCKED: TER
DOCKED: ENDMDL
________________________________________________________________________________


    FINAL DOCKED STATE:
    ________________________


Run:   415 / 512
Time taken for this run:   0.002s

DOCKED: MODEL        415
DOCKED: USER    Run = 415
DOCKED: USER
DOCKED: USER    Estimated Free Energy of Binding    =  -3.53 kcal/mol  [=(1)+(2)+(3)-(4)]
DOCKED: USER
DOCKED: USER    (1) Final Intermolecular Energy     =  -5.03 kcal/mol
DOCKED: USER        vdW + Hbond + desolv Energy     =  -5.03 kcal/mol
DOCKED: USER        Electrostatic Energy            =  +0.00 kcal/mol
DOCKED: USER        Moving Ligand-Fixed Receptor    =  -5.03 kcal/mol
DOCKED: USER        Moving Ligand-Moving Receptor   =  +0.00 kcal/mol
DOCKED: USER    (2) Final Total Internal Energy     =  -1.33 kcal/mol
DOCKED: USER    (3) Torsional Free Energy           =  +1.49 kcal/mol
DOCKED: USER    (4) Unbound System's Energy         =  -1.33 kcal/mol
DOCKED: USER
DOCKED: USER
DOCKED: REMARK  5 active torsions:
DOCKED: REMARK  status: ('A' for Active; 'I' for Inactive)
DOCKED: REMARK    1  A    between atoms: C_2  and  C_19 
DOCKED: REMARK    2  A    between atoms: C_2  and  C_11 
DOCKED: REMARK    3  A    between atoms: C_19  and  C_20 
DOCKED: REMARK    4  A    between atoms: C_20  and  C_21 
DOCKED: REMARK    5  A    between atoms: C_21  and  N_22 
DOCKED: USER                              x       y       z     vdW  Elec       q    Type
DOCKED: USER                           _______ _______ _______ _____ _____    ______ ____
DOCKED: ROOT
DOCKED: ATOM      1  O   UNL     1     -31.054  -0.596   4.861 -0.05 -0.00    -0.346 OA 
DOCKED: ATOM      2  C   UNL     1     -30.872  -1.810   4.065 -0.06 +0.00    +0.130 C  
DOCKED: ATOM      3  C   UNL     1     -32.140  -1.911   3.268 -0.12 +0.00    +0.004 A  
DOCKED: ATOM      4  C   UNL     1     -32.930  -0.795   3.504 -0.23 +0.00    +0.006 A  
DOCKED: ATOM      5  C   UNL     1     -32.245   0.115   4.449 -0.19 +0.00    +0.169 C  
DOCKED: ATOM      6  C   UNL     1     -32.556  -2.905   2.394 -0.12 -0.00    -0.001 A  
DOCKED: ATOM      7  C   UNL     1     -34.157  -0.637   2.883 -0.32 +0.00    +0.008 A  
DOCKED: ATOM      8  C   UNL     1     -33.793  -2.762   1.764 -0.23 +0.00    +0.010 A  
DOCKED: ATOM      9  C   UNL     1     -34.589  -1.633   2.007 -0.34 +0.00    +0.068 A  
DOCKED: ATOM     10  N   UNL     1     -36.878  -1.397   0.816 -2.55 -0.00    -0.191 NA 
DOCKED: ATOM     11  C   UNL     1     -35.852  -1.503   1.351 -0.40 +0.00    +0.101 C  
DOCKED: ENDROOT
DOCKED: BRANCH   2  12
DOCKED: ATOM     12  C   UNL     1     -29.635  -1.634   3.193 -0.03 +0.00    +0.038 C  
DOCKED: BRANCH  12  13
DOCKED: ATOM     13  C   UNL     1     -28.805  -0.432   3.639 -0.02 +0.00    +0.038 C  
DOCKED: BRANCH  13  14
DOCKED: ATOM     14  C   UNL     1     -29.056   0.775   2.737 -0.01 +0.00    +0.251 C  
DOCKED: BRANCH  14  15
DOCKED: ATOM     15  N   UNL     1     -29.838   1.783   3.444 -0.04 +0.00    +0.141 N  
DOCKED: ATOM     16  C   UNL     1     -28.963   2.667   4.216 -0.00 +0.00    +0.285 C  
DOCKED: ATOM     17  C   UNL     1     -30.645   2.562   2.504 -0.07 +0.00    +0.285 C  
DOCKED: ENDBRANCH  14  15
DOCKED: ENDBRANCH  13  14
DOCKED: ENDBRANCH  12  13
DOCKED: ENDBRANCH   2  12
DOCKED: BRANCH   2  18
DOCKED: ATOM     18  C   UNL     1     -30.697  -2.939   5.025 -0.05 +0.00    +0.006 A  
DOCKED: ATOM     19  C   UNL     1     -31.300  -2.885   6.281 -0.11 +0.00    +0.001 A  
DOCKED: ATOM     20  C   UNL     1     -31.135  -3.941   7.178 -0.06 +0.00    +0.029 A  
DOCKED: ATOM     21  C   UNL     1     -30.370  -5.049   6.818 -0.01 +0.00    +0.140 A  
DOCKED: ATOM     22  C   UNL     1     -29.767  -5.103   5.561 -0.01 +0.00    +0.029 A  
DOCKED: ATOM     23  F   UNL     1     -30.213  -6.064   7.678 +0.00 -0.00    -0.204 F  
DOCKED: ATOM     24  C   UNL     1     -29.931  -4.046   4.663 -0.01 +0.00    +0.001 A  
DOCKED: ENDBRANCH   2  18
DOCKED: TORSDOF 5
DOCKED: TER
DOCKED: ENDMDL
________________________________________________________________________________


    FINAL DOCKED STATE:
    ________________________


Run:   416 / 512
Time taken for this run:   0.002s

DOCKED: MODEL        416
DOCKED: USER    Run = 416
DOCKED: USER
DOCKED: USER    Estimated Free Energy of Binding    =  -4.07 kcal/mol  [=(1)+(2)+(3)-(4)]
DOCKED: USER
DOCKED: USER    (1) Final Intermolecular Energy     =  -5.56 kcal/mol
DOCKED: USER        vdW + Hbond + desolv Energy     =  -5.56 kcal/mol
DOCKED: USER        Electrostatic Energy            =  +0.00 kcal/mol
DOCKED: USER        Moving Ligand-Fixed Receptor    =  -5.56 kcal/mol
DOCKED: USER        Moving Ligand-Moving Receptor   =  +0.00 kcal/mol
DOCKED: USER    (2) Final Total Internal Energy     =  -0.92 kcal/mol
DOCKED: USER    (3) Torsional Free Energy           =  +1.49 kcal/mol
DOCKED: USER    (4) Unbound System's Energy         =  -0.92 kcal/mol
DOCKED: USER
DOCKED: USER
DOCKED: REMARK  5 active torsions:
DOCKED: REMARK  status: ('A' for Active; 'I' for Inactive)
DOCKED: REMARK    1  A    between atoms: C_2  and  C_19 
DOCKED: REMARK    2  A    between atoms: C_2  and  C_11 
DOCKED: REMARK    3  A    between atoms: C_19  and  C_20 
DOCKED: REMARK    4  A    between atoms: C_20  and  C_21 
DOCKED: REMARK    5  A    between atoms: C_21  and  N_22 
DOCKED: USER                              x       y       z     vdW  Elec       q    Type
DOCKED: USER                           _______ _______ _______ _____ _____    ______ ____
DOCKED: ROOT
DOCKED: ATOM      1  O   UNL     1     -33.069  -4.834   5.534 -0.02 -0.00    -0.346 OA 
DOCKED: ATOM      2  C   UNL     1     -32.260  -4.858   4.315 -0.07 +0.00    +0.130 C  
DOCKED: ATOM      3  C   UNL     1     -33.066  -4.059   3.333 -0.16 +0.00    +0.004 A  
DOCKED: ATOM      4  C   UNL     1     -34.183  -3.531   3.965 -0.25 +0.00    +0.006 A  
DOCKED: ATOM      5  C   UNL     1     -34.187  -3.928   5.391 -0.19 +0.00    +0.169 C  
DOCKED: ATOM      6  C   UNL     1     -32.825  -3.809   1.990 -0.15 -0.00    -0.001 A  
DOCKED: ATOM      7  C   UNL     1     -35.094  -2.744   3.282 -0.33 +0.00    +0.008 A  
DOCKED: ATOM      8  C   UNL     1     -33.736  -3.020   1.285 -0.21 +0.00    +0.010 A  
DOCKED: ATOM      9  C   UNL     1     -34.865  -2.490   1.928 -0.21 +0.00    +0.068 A  
DOCKED: ATOM     10  N   UNL     1     -36.535  -1.027   0.593 -2.50 -0.00    -0.191 NA 
DOCKED: ATOM     11  C   UNL     1     -35.786  -1.684   1.192 -0.37 +0.00    +0.101 C  
DOCKED: ENDROOT
DOCKED: BRANCH   2  12
DOCKED: ATOM     12  C   UNL     1     -30.906  -4.230   4.621 -0.03 +0.00    +0.038 C  
DOCKED: BRANCH  12  13
DOCKED: ATOM     13  C   UNL     1     -30.929  -3.477   5.950 -0.07 +0.00    +0.038 C  
DOCKED: BRANCH  13  14
DOCKED: ATOM     14  C   UNL     1     -30.323  -2.083   5.803 -0.06 +0.00    +0.251 C  
DOCKED: BRANCH  14  15
DOCKED: ATOM     15  N   UNL     1     -29.134  -1.955   6.638 -0.03 +0.00    +0.141 N  
DOCKED: ATOM     16  C   UNL     1     -29.350  -0.966   7.694 -0.05 +0.00    +0.285 C  
DOCKED: ATOM     17  C   UNL     1     -28.772  -3.249   7.220 -0.01 +0.00    +0.285 C  
DOCKED: ENDBRANCH  14  15
DOCKED: ENDBRANCH  13  14
DOCKED: ENDBRANCH  12  13
DOCKED: ENDBRANCH   2  12
DOCKED: BRANCH   2  18
DOCKED: ATOM     18  C   UNL     1     -32.112  -6.289   3.917 -0.09 +0.00    +0.006 A  
DOCKED: ATOM     19  C   UNL     1     -32.352  -7.299   4.848 -0.12 +0.00    +0.001 A  
DOCKED: ATOM     20  C   UNL     1     -32.213  -8.636   4.475 -0.18 +0.00    +0.029 A  
DOCKED: ATOM     21  C   UNL     1     -31.835  -8.962   3.173 -0.17 +0.00    +0.140 A  
DOCKED: ATOM     22  C   UNL     1     -31.595  -7.951   2.243 -0.11 +0.00    +0.029 A  
DOCKED: ATOM     23  F   UNL     1     -31.703 -10.246   2.815 -0.10 -0.00    -0.204 F  
DOCKED: ATOM     24  C   UNL     1     -31.733  -6.613   2.615 -0.09 +0.00    +0.001 A  
DOCKED: ENDBRANCH   2  18
DOCKED: TORSDOF 5
DOCKED: TER
DOCKED: ENDMDL
________________________________________________________________________________


    FINAL DOCKED STATE:
    ________________________


Run:   417 / 512
Time taken for this run:   0.002s

DOCKED: MODEL        417
DOCKED: USER    Run = 417
DOCKED: USER
DOCKED: USER    Estimated Free Energy of Binding    =  -4.14 kcal/mol  [=(1)+(2)+(3)-(4)]
DOCKED: USER
DOCKED: USER    (1) Final Intermolecular Energy     =  -5.63 kcal/mol
DOCKED: USER        vdW + Hbond + desolv Energy     =  -5.63 kcal/mol
DOCKED: USER        Electrostatic Energy            =  +0.00 kcal/mol
DOCKED: USER        Moving Ligand-Fixed Receptor    =  -5.63 kcal/mol
DOCKED: USER        Moving Ligand-Moving Receptor   =  +0.00 kcal/mol
DOCKED: USER    (2) Final Total Internal Energy     =  -1.33 kcal/mol
DOCKED: USER    (3) Torsional Free Energy           =  +1.49 kcal/mol
DOCKED: USER    (4) Unbound System's Energy         =  -1.33 kcal/mol
DOCKED: USER
DOCKED: USER
DOCKED: REMARK  5 active torsions:
DOCKED: REMARK  status: ('A' for Active; 'I' for Inactive)
DOCKED: REMARK    1  A    between atoms: C_2  and  C_19 
DOCKED: REMARK    2  A    between atoms: C_2  and  C_11 
DOCKED: REMARK    3  A    between atoms: C_19  and  C_20 
DOCKED: REMARK    4  A    between atoms: C_20  and  C_21 
DOCKED: REMARK    5  A    between atoms: C_21  and  N_22 
DOCKED: USER                              x       y       z     vdW  Elec       q    Type
DOCKED: USER                           _______ _______ _______ _____ _____    ______ ____
DOCKED: ROOT
DOCKED: ATOM      1  O   UNL     1     -36.095  -8.981  13.705 -0.05 -0.00    -0.346 OA 
DOCKED: ATOM      2  C   UNL     1     -37.524  -8.666  13.680 -0.12 +0.00    +0.130 C  
DOCKED: ATOM      3  C   UNL     1     -38.159  -9.921  13.155 -0.22 +0.00    +0.004 A  
DOCKED: ATOM      4  C   UNL     1     -37.193 -10.904  12.999 -0.26 +0.00    +0.006 A  
DOCKED: ATOM      5  C   UNL     1     -35.872 -10.381  13.415 -0.09 +0.00    +0.169 C  
DOCKED: ATOM      6  C   UNL     1     -39.489 -10.176  12.851 -0.23 -0.00    -0.001 A  
DOCKED: ATOM      7  C   UNL     1     -37.517 -12.167  12.533 -0.32 +0.00    +0.008 A  
DOCKED: ATOM      8  C   UNL     1     -39.832 -11.443  12.376 -0.23 +0.00    +0.010 A  
DOCKED: ATOM      9  C   UNL     1     -38.851 -12.433  12.218 -0.27 +0.00    +0.068 A  
DOCKED: ATOM     10  N   UNL     1     -39.522 -14.776  11.338 -2.55 -0.00    -0.191 NA 
DOCKED: ATOM     11  C   UNL     1     -39.220 -13.725  11.732 -0.36 +0.00    +0.101 C  
DOCKED: ENDROOT
DOCKED: BRANCH   2  12
DOCKED: ATOM     12  C   UNL     1     -37.968  -8.324  15.097 -0.04 +0.00    +0.038 C  
DOCKED: BRANCH  12  13
DOCKED: ATOM     13  C   UNL     1     -36.788  -7.877  15.957 -0.02 +0.00    +0.038 C  
DOCKED: BRANCH  13  14
DOCKED: ATOM     14  C   UNL     1     -36.486  -6.394  15.750 -0.00 +0.00    +0.251 C  
DOCKED: BRANCH  14  15
DOCKED: ATOM     15  N   UNL     1     -35.073  -6.126  15.989 -0.00 +0.00    +0.141 N  
DOCKED: ATOM     16  C   UNL     1     -34.832  -5.859  17.408 +0.00 +0.00    +0.285 C  
DOCKED: ATOM     17  C   UNL     1     -34.251  -7.249  15.537 -0.00 +0.00    +0.285 C  
DOCKED: ENDBRANCH  14  15
DOCKED: ENDBRANCH  13  14
DOCKED: ENDBRANCH  12  13
DOCKED: ENDBRANCH   2  12
DOCKED: BRANCH   2  18
DOCKED: ATOM     18  C   UNL     1     -37.697  -7.500  12.764 -0.16 +0.00    +0.006 A  
DOCKED: ATOM     19  C   UNL     1     -38.965  -6.957  12.561 -0.19 +0.00    +0.001 A  
DOCKED: ATOM     20  C   UNL     1     -39.126  -5.867  11.705 -0.16 +0.00    +0.029 A  
DOCKED: ATOM     21  C   UNL     1     -38.020  -5.322  11.054 -0.11 +0.00    +0.140 A  
DOCKED: ATOM     22  C   UNL     1     -36.752  -5.866  11.259 -0.09 +0.00    +0.029 A  
DOCKED: ATOM     23  F   UNL     1     -38.175  -4.274  10.234 -0.03 -0.00    -0.204 F  
DOCKED: ATOM     24  C   UNL     1     -36.590  -6.956  12.114 -0.12 +0.00    +0.001 A  
DOCKED: ENDBRANCH   2  18
DOCKED: TORSDOF 5
DOCKED: TER
DOCKED: ENDMDL
________________________________________________________________________________


    FINAL DOCKED STATE:
    ________________________


Run:   418 / 512
Time taken for this run:   0.002s

DOCKED: MODEL        418
DOCKED: USER    Run = 418
DOCKED: USER
DOCKED: USER    Estimated Free Energy of Binding    =  -3.93 kcal/mol  [=(1)+(2)+(3)-(4)]
DOCKED: USER
DOCKED: USER    (1) Final Intermolecular Energy     =  -5.42 kcal/mol
DOCKED: USER        vdW + Hbond + desolv Energy     =  -5.42 kcal/mol
DOCKED: USER        Electrostatic Energy            =  +0.00 kcal/mol
DOCKED: USER        Moving Ligand-Fixed Receptor    =  -5.42 kcal/mol
DOCKED: USER        Moving Ligand-Moving Receptor   =  +0.00 kcal/mol
DOCKED: USER    (2) Final Total Internal Energy     =  -1.10 kcal/mol
DOCKED: USER    (3) Torsional Free Energy           =  +1.49 kcal/mol
DOCKED: USER    (4) Unbound System's Energy         =  -1.10 kcal/mol
DOCKED: USER
DOCKED: USER
DOCKED: REMARK  5 active torsions:
DOCKED: REMARK  status: ('A' for Active; 'I' for Inactive)
DOCKED: REMARK    1  A    between atoms: C_2  and  C_19 
DOCKED: REMARK    2  A    between atoms: C_2  and  C_11 
DOCKED: REMARK    3  A    between atoms: C_19  and  C_20 
DOCKED: REMARK    4  A    between atoms: C_20  and  C_21 
DOCKED: REMARK    5  A    between atoms: C_21  and  N_22 
DOCKED: USER                              x       y       z     vdW  Elec       q    Type
DOCKED: USER                           _______ _______ _______ _____ _____    ______ ____
DOCKED: ROOT
DOCKED: ATOM      1  O   UNL     1     -33.344  -9.039   7.332 -0.06 -0.00    -0.346 OA 
DOCKED: ATOM      2  C   UNL     1     -32.090  -8.950   8.082 -0.11 +0.00    +0.130 C  
DOCKED: ATOM      3  C   UNL     1     -31.824 -10.365   8.506 -0.19 +0.00    +0.004 A  
DOCKED: ATOM      4  C   UNL     1     -32.781 -11.206   7.956 -0.31 +0.00    +0.006 A  
DOCKED: ATOM      5  C   UNL     1     -33.725 -10.420   7.130 -0.23 +0.00    +0.169 C  
DOCKED: ATOM      6  C   UNL     1     -30.810 -10.870   9.307 -0.14 -0.00    -0.001 A  
DOCKED: ATOM      7  C   UNL     1     -32.761 -12.570   8.188 -0.21 +0.00    +0.008 A  
DOCKED: ATOM      8  C   UNL     1     -30.778 -12.243   9.554 -0.21 +0.00    +0.010 A  
DOCKED: ATOM      9  C   UNL     1     -31.749 -13.089   8.996 -0.27 +0.00    +0.068 A  
DOCKED: ATOM     10  N   UNL     1     -31.658 -15.635   9.470 -2.14 -0.00    -0.191 NA 
DOCKED: ATOM     11  C   UNL     1     -31.699 -14.493   9.258 -0.41 +0.00    +0.101 C  
DOCKED: ENDROOT
DOCKED: BRANCH   2  12
DOCKED: ATOM     12  C   UNL     1     -31.014  -8.396   7.156 -0.05 +0.00    +0.038 C  
DOCKED: BRANCH  12  13
DOCKED: ATOM     13  C   UNL     1     -31.623  -7.777   5.900 -0.07 +0.00    +0.038 C  
DOCKED: BRANCH  13  14
DOCKED: ATOM     14  C   UNL     1     -31.889  -8.841   4.837 -0.13 +0.00    +0.251 C  
DOCKED: BRANCH  14  15
DOCKED: ATOM     15  N   UNL     1     -31.870  -8.244   3.506 -0.13 +0.00    +0.141 N  
DOCKED: ATOM     16  C   UNL     1     -32.345  -9.200   2.505 -0.19 +0.00    +0.285 C  
DOCKED: ATOM     17  C   UNL     1     -32.685  -7.029   3.475 -0.14 +0.00    +0.285 C  
DOCKED: ENDBRANCH  14  15
DOCKED: ENDBRANCH  13  14
DOCKED: ENDBRANCH  12  13
DOCKED: ENDBRANCH   2  12
DOCKED: BRANCH   2  18
DOCKED: ATOM     18  C   UNL     1     -32.334  -8.033   9.234 -0.09 +0.00    +0.006 A  
DOCKED: ATOM     19  C   UNL     1     -31.760  -6.763   9.247 -0.03 +0.00    +0.001 A  
DOCKED: ATOM     20  C   UNL     1     -31.989  -5.906  10.324 -0.02 +0.00    +0.029 A  
DOCKED: ATOM     21  C   UNL     1     -32.791  -6.321  11.386 -0.02 +0.00    +0.140 A  
DOCKED: ATOM     22  C   UNL     1     -33.365  -7.592  11.372 -0.10 +0.00    +0.029 A  
DOCKED: ATOM     23  F   UNL     1     -33.012  -5.498  12.420 +0.00 -0.00    -0.204 F  
DOCKED: ATOM     24  C   UNL     1     -33.137  -8.449  10.295 -0.13 +0.00    +0.001 A  
DOCKED: ENDBRANCH   2  18
DOCKED: TORSDOF 5
DOCKED: TER
DOCKED: ENDMDL
________________________________________________________________________________


    FINAL DOCKED STATE:
    ________________________


Run:   419 / 512
Time taken for this run:   0.002s

DOCKED: MODEL        419
DOCKED: USER    Run = 419
DOCKED: USER
DOCKED: USER    Estimated Free Energy of Binding    =  -5.48 kcal/mol  [=(1)+(2)+(3)-(4)]
DOCKED: USER
DOCKED: USER    (1) Final Intermolecular Energy     =  -6.97 kcal/mol
DOCKED: USER        vdW + Hbond + desolv Energy     =  -6.97 kcal/mol
DOCKED: USER        Electrostatic Energy            =  +0.00 kcal/mol
DOCKED: USER        Moving Ligand-Fixed Receptor    =  -6.97 kcal/mol
DOCKED: USER        Moving Ligand-Moving Receptor   =  +0.00 kcal/mol
DOCKED: USER    (2) Final Total Internal Energy     =  -1.19 kcal/mol
DOCKED: USER    (3) Torsional Free Energy           =  +1.49 kcal/mol
DOCKED: USER    (4) Unbound System's Energy         =  -1.19 kcal/mol
DOCKED: USER
DOCKED: USER
DOCKED: REMARK  5 active torsions:
DOCKED: REMARK  status: ('A' for Active; 'I' for Inactive)
DOCKED: REMARK    1  A    between atoms: C_2  and  C_19 
DOCKED: REMARK    2  A    between atoms: C_2  and  C_11 
DOCKED: REMARK    3  A    between atoms: C_19  and  C_20 
DOCKED: REMARK    4  A    between atoms: C_20  and  C_21 
DOCKED: REMARK    5  A    between atoms: C_21  and  N_22 
DOCKED: USER                              x       y       z     vdW  Elec       q    Type
DOCKED: USER                           _______ _______ _______ _____ _____    ______ ____
DOCKED: ROOT
DOCKED: ATOM      1  O   UNL     1     -37.344 -10.514  13.811 -0.05 -0.00    -0.346 OA 
DOCKED: ATOM      2  C   UNL     1     -36.998 -11.936  13.838 -0.22 +0.00    +0.130 C  
DOCKED: ATOM      3  C   UNL     1     -37.526 -12.459  12.534 -0.34 +0.00    +0.004 A  
DOCKED: ATOM      4  C   UNL     1     -38.030 -11.409  11.779 -0.34 +0.00    +0.006 A  
DOCKED: ATOM      5  C   UNL     1     -37.861 -10.136  12.514 -0.23 +0.00    +0.169 C  
DOCKED: ATOM      6  C   UNL     1     -37.548 -13.759  12.049 -0.42 -0.00    -0.001 A  
DOCKED: ATOM      7  C   UNL     1     -38.574 -11.620  10.523 +0.11 +0.00    +0.008 A  
DOCKED: ATOM      8  C   UNL     1     -38.097 -13.989  10.786 -0.45 +0.00    +0.010 A  
DOCKED: ATOM      9  C   UNL     1     -38.607 -12.925  10.028 -0.41 +0.00    +0.068 A  
DOCKED: ATOM     10  N   UNL     1     -39.615 -13.385   7.686 -2.88 -0.00    -0.191 NA 
DOCKED: ATOM     11  C   UNL     1     -39.164 -13.179   8.736 -0.44 +0.00    +0.101 C  
DOCKED: ENDROOT
DOCKED: BRANCH   2  12
DOCKED: ATOM     12  C   UNL     1     -35.484 -12.062  13.959 -0.22 +0.00    +0.038 C  
DOCKED: BRANCH  12  13
DOCKED: ATOM     13  C   UNL     1     -34.883 -10.871  14.703 -0.17 +0.00    +0.038 C  
DOCKED: BRANCH  13  14
DOCKED: ATOM     14  C   UNL     1     -35.220 -10.927  16.192 -0.05 +0.00    +0.251 C  
DOCKED: BRANCH  14  15
DOCKED: ATOM     15  N   UNL     1     -34.001 -11.038  16.984 -0.04 +0.00    +0.141 N  
DOCKED: ATOM     16  C   UNL     1     -33.903  -9.932  17.938 -0.00 +0.00    +0.285 C  
DOCKED: ATOM     17  C   UNL     1     -33.959 -12.320  17.689 -0.06 +0.00    +0.285 C  
DOCKED: ENDBRANCH  14  15
DOCKED: ENDBRANCH  13  14
DOCKED: ENDBRANCH  12  13
DOCKED: ENDBRANCH   2  12
DOCKED: BRANCH   2  18
DOCKED: ATOM     18  C   UNL     1     -37.684 -12.529  15.023 -0.17 +0.00    +0.006 A  
DOCKED: ATOM     19  C   UNL     1     -38.731 -11.843  15.638 -0.09 +0.00    +0.001 A  
DOCKED: ATOM     20  C   UNL     1     -39.371 -12.399  16.746 -0.08 +0.00    +0.029 A  
DOCKED: ATOM     21  C   UNL     1     -38.965 -13.639  17.237 -0.11 +0.00    +0.140 A  
DOCKED: ATOM     22  C   UNL     1     -37.918 -14.324  16.622 -0.06 +0.00    +0.029 A  
DOCKED: ATOM     23  F   UNL     1     -39.581 -14.173  18.300 -0.02 -0.00    -0.204 F  
DOCKED: ATOM     24  C   UNL     1     -37.276 -13.769  15.513 -0.21 +0.00    +0.001 A  
DOCKED: ENDBRANCH   2  18
DOCKED: TORSDOF 5
DOCKED: TER
DOCKED: ENDMDL
________________________________________________________________________________


    FINAL DOCKED STATE:
    ________________________


Run:   420 / 512
Time taken for this run:   0.002s

DOCKED: MODEL        420
DOCKED: USER    Run = 420
DOCKED: USER
DOCKED: USER    Estimated Free Energy of Binding    =  -3.97 kcal/mol  [=(1)+(2)+(3)-(4)]
DOCKED: USER
DOCKED: USER    (1) Final Intermolecular Energy     =  -5.46 kcal/mol
DOCKED: USER        vdW + Hbond + desolv Energy     =  -5.46 kcal/mol
DOCKED: USER        Electrostatic Energy            =  +0.00 kcal/mol
DOCKED: USER        Moving Ligand-Fixed Receptor    =  -5.46 kcal/mol
DOCKED: USER        Moving Ligand-Moving Receptor   =  +0.00 kcal/mol
DOCKED: USER    (2) Final Total Internal Energy     =  -1.45 kcal/mol
DOCKED: USER    (3) Torsional Free Energy           =  +1.49 kcal/mol
DOCKED: USER    (4) Unbound System's Energy         =  -1.45 kcal/mol
DOCKED: USER
DOCKED: USER
DOCKED: REMARK  5 active torsions:
DOCKED: REMARK  status: ('A' for Active; 'I' for Inactive)
DOCKED: REMARK    1  A    between atoms: C_2  and  C_19 
DOCKED: REMARK    2  A    between atoms: C_2  and  C_11 
DOCKED: REMARK    3  A    between atoms: C_19  and  C_20 
DOCKED: REMARK    4  A    between atoms: C_20  and  C_21 
DOCKED: REMARK    5  A    between atoms: C_21  and  N_22 
DOCKED: USER                              x       y       z     vdW  Elec       q    Type
DOCKED: USER                           _______ _______ _______ _____ _____    ______ ____
DOCKED: ROOT
DOCKED: ATOM      1  O   UNL     1     -30.221  -8.934   7.049 +0.01 -0.00    -0.346 OA 
DOCKED: ATOM      2  C   UNL     1     -31.634  -9.161   6.746 -0.10 +0.00    +0.130 C  
DOCKED: ATOM      3  C   UNL     1     -31.920 -10.506   7.349 -0.21 +0.00    +0.004 A  
DOCKED: ATOM      4  C   UNL     1     -30.801 -10.959   8.033 -0.13 +0.00    +0.006 A  
DOCKED: ATOM      5  C   UNL     1     -29.717  -9.955   7.942 -0.03 +0.00    +0.169 C  
DOCKED: ATOM      6  C   UNL     1     -33.082 -11.263   7.306 -0.27 -0.00    -0.001 A  
DOCKED: ATOM      7  C   UNL     1     -30.801 -12.177   8.689 -0.20 +0.00    +0.008 A  
DOCKED: ATOM      8  C   UNL     1     -33.097 -12.496   7.959 +0.10 +0.00    +0.010 A  
DOCKED: ATOM      9  C   UNL     1     -31.962 -12.951   8.648 -0.29 +0.00    +0.068 A  
DOCKED: ATOM     10  N   UNL     1     -32.026 -15.243   9.855 -2.53 -0.00    -0.191 NA 
DOCKED: ATOM     11  C   UNL     1     -31.997 -14.215   9.313 -0.28 +0.00    +0.101 C  
DOCKED: ENDROOT
DOCKED: BRANCH   2  12
DOCKED: ATOM     12  C   UNL     1     -32.450  -8.041   7.380 -0.11 +0.00    +0.038 C  
DOCKED: BRANCH  12  13
DOCKED: ATOM     13  C   UNL     1     -31.559  -7.077   8.162 -0.03 +0.00    +0.038 C  
DOCKED: BRANCH  13  14
DOCKED: ATOM     14  C   UNL     1     -31.478  -7.476   9.634 -0.02 +0.00    +0.251 C  
DOCKED: BRANCH  14  15
DOCKED: ATOM     15  N   UNL     1     -32.465  -8.507   9.935 -0.10 +0.00    +0.141 N  
DOCKED: ATOM     16  C   UNL     1     -31.917  -9.488  10.874 -0.03 +0.00    +0.285 C  
DOCKED: ATOM     17  C   UNL     1     -33.685  -7.909  10.481 -0.10 +0.00    +0.285 C  
DOCKED: ENDBRANCH  14  15
DOCKED: ENDBRANCH  13  14
DOCKED: ENDBRANCH  12  13
DOCKED: ENDBRANCH   2  12
DOCKED: BRANCH   2  18
DOCKED: ATOM     18  C   UNL     1     -31.768  -9.150   5.259 -0.15 +0.00    +0.006 A  
DOCKED: ATOM     19  C   UNL     1     -31.019 -10.035   4.486 -0.13 +0.00    +0.001 A  
DOCKED: ATOM     20  C   UNL     1     -31.145 -10.023   3.096 -0.17 +0.00    +0.029 A  
DOCKED: ATOM     21  C   UNL     1     -32.020  -9.128   2.483 -0.20 +0.00    +0.140 A  
DOCKED: ATOM     22  C   UNL     1     -32.770  -8.243   3.258 -0.23 +0.00    +0.029 A  
DOCKED: ATOM     23  F   UNL     1     -32.143  -9.118   1.149 -0.07 -0.00    -0.204 F  
DOCKED: ATOM     24  C   UNL     1     -32.644  -8.254   4.648 -0.19 +0.00    +0.001 A  
DOCKED: ENDBRANCH   2  18
DOCKED: TORSDOF 5
DOCKED: TER
DOCKED: ENDMDL
________________________________________________________________________________


    FINAL DOCKED STATE:
    ________________________


Run:   421 / 512
Time taken for this run:   0.002s

DOCKED: MODEL        421
DOCKED: USER    Run = 421
DOCKED: USER
DOCKED: USER    Estimated Free Energy of Binding    =  -4.66 kcal/mol  [=(1)+(2)+(3)-(4)]
DOCKED: USER
DOCKED: USER    (1) Final Intermolecular Energy     =  -6.15 kcal/mol
DOCKED: USER        vdW + Hbond + desolv Energy     =  -6.15 kcal/mol
DOCKED: USER        Electrostatic Energy            =  +0.00 kcal/mol
DOCKED: USER        Moving Ligand-Fixed Receptor    =  -6.15 kcal/mol
DOCKED: USER        Moving Ligand-Moving Receptor   =  +0.00 kcal/mol
DOCKED: USER    (2) Final Total Internal Energy     =  -0.96 kcal/mol
DOCKED: USER    (3) Torsional Free Energy           =  +1.49 kcal/mol
DOCKED: USER    (4) Unbound System's Energy         =  -0.96 kcal/mol
DOCKED: USER
DOCKED: USER
DOCKED: REMARK  5 active torsions:
DOCKED: REMARK  status: ('A' for Active; 'I' for Inactive)
DOCKED: REMARK    1  A    between atoms: C_2  and  C_19 
DOCKED: REMARK    2  A    between atoms: C_2  and  C_11 
DOCKED: REMARK    3  A    between atoms: C_19  and  C_20 
DOCKED: REMARK    4  A    between atoms: C_20  and  C_21 
DOCKED: REMARK    5  A    between atoms: C_21  and  N_22 
DOCKED: USER                              x       y       z     vdW  Elec       q    Type
DOCKED: USER                           _______ _______ _______ _____ _____    ______ ____
DOCKED: ROOT
DOCKED: ATOM      1  O   UNL     1     -33.487  -3.962   6.714 -0.07 -0.00    -0.346 OA 
DOCKED: ATOM      2  C   UNL     1     -34.943  -4.066   6.831 -0.22 +0.00    +0.130 C  
DOCKED: ATOM      3  C   UNL     1     -35.449  -3.485   5.542 -0.09 +0.00    +0.004 A  
DOCKED: ATOM      4  C   UNL     1     -34.377  -3.179   4.715 -0.15 +0.00    +0.006 A  
DOCKED: ATOM      5  C   UNL     1     -33.107  -3.542   5.383 -0.13 +0.00    +0.169 C  
DOCKED: ATOM      6  C   UNL     1     -36.753  -3.257   5.130 +0.25 -0.00    -0.001 A  
DOCKED: ATOM      7  C   UNL     1     -34.570  -2.633   3.458 -0.31 +0.00    +0.008 A  
DOCKED: ATOM      8  C   UNL     1     -36.965  -2.703   3.866 -0.32 +0.00    +0.010 A  
DOCKED: ATOM      9  C   UNL     1     -35.878  -2.393   3.034 -0.35 +0.00    +0.068 A  
DOCKED: ATOM     10  N   UNL     1     -36.306  -1.371   0.692 -2.18 -0.00    -0.191 NA 
DOCKED: ATOM     11  C   UNL     1     -36.114  -1.829   1.743 -0.36 +0.00    +0.101 C  
DOCKED: ENDROOT
DOCKED: BRANCH   2  12
DOCKED: ATOM     12  C   UNL     1     -35.310  -5.535   7.004 -0.24 +0.00    +0.038 C  
DOCKED: BRANCH  12  13
DOCKED: ATOM     13  C   UNL     1     -35.044  -6.330   5.727 -0.18 +0.00    +0.038 C  
DOCKED: BRANCH  13  14
DOCKED: ATOM     14  C   UNL     1     -33.643  -6.939   5.741 -0.13 +0.00    +0.251 C  
DOCKED: BRANCH  14  15
DOCKED: ATOM     15  N   UNL     1     -33.713  -8.368   6.018 -0.19 +0.00    +0.141 N  
DOCKED: ATOM     16  C   UNL     1     -32.384  -8.903   6.316 -0.12 +0.00    +0.285 C  
DOCKED: ATOM     17  C   UNL     1     -34.628  -8.633   7.130 -0.20 +0.00    +0.285 C  
DOCKED: ENDBRANCH  14  15
DOCKED: ENDBRANCH  13  14
DOCKED: ENDBRANCH  12  13
DOCKED: ENDBRANCH   2  12
DOCKED: BRANCH   2  18
DOCKED: ATOM     18  C   UNL     1     -35.342  -3.266   8.026 -0.20 +0.00    +0.006 A  
DOCKED: ATOM     19  C   UNL     1     -34.404  -2.974   9.014 -0.14 +0.00    +0.001 A  
DOCKED: ATOM     20  C   UNL     1     -34.779  -2.227  10.131 -0.12 +0.00    +0.029 A  
DOCKED: ATOM     21  C   UNL     1     -36.091  -1.773  10.258 -0.16 +0.00    +0.140 A  
DOCKED: ATOM     22  C   UNL     1     -37.029  -2.065   9.269 -0.24 +0.00    +0.029 A  
DOCKED: ATOM     23  F   UNL     1     -36.451  -1.054  11.329 -0.03 -0.00    -0.204 F  
DOCKED: ATOM     24  C   UNL     1     -36.655  -2.813   8.151 -0.28 +0.00    +0.001 A  
DOCKED: ENDBRANCH   2  18
DOCKED: TORSDOF 5
DOCKED: TER
DOCKED: ENDMDL
________________________________________________________________________________


    FINAL DOCKED STATE:
    ________________________


Run:   422 / 512
Time taken for this run:   0.002s

DOCKED: MODEL        422
DOCKED: USER    Run = 422
DOCKED: USER
DOCKED: USER    Estimated Free Energy of Binding    =  -3.75 kcal/mol  [=(1)+(2)+(3)-(4)]
DOCKED: USER
DOCKED: USER    (1) Final Intermolecular Energy     =  -5.24 kcal/mol
DOCKED: USER        vdW + Hbond + desolv Energy     =  -5.24 kcal/mol
DOCKED: USER        Electrostatic Energy            =  +0.00 kcal/mol
DOCKED: USER        Moving Ligand-Fixed Receptor    =  -5.24 kcal/mol
DOCKED: USER        Moving Ligand-Moving Receptor   =  +0.00 kcal/mol
DOCKED: USER    (2) Final Total Internal Energy     =  -1.40 kcal/mol
DOCKED: USER    (3) Torsional Free Energy           =  +1.49 kcal/mol
DOCKED: USER    (4) Unbound System's Energy         =  -1.40 kcal/mol
DOCKED: USER
DOCKED: USER
DOCKED: REMARK  5 active torsions:
DOCKED: REMARK  status: ('A' for Active; 'I' for Inactive)
DOCKED: REMARK    1  A    between atoms: C_2  and  C_19 
DOCKED: REMARK    2  A    between atoms: C_2  and  C_11 
DOCKED: REMARK    3  A    between atoms: C_19  and  C_20 
DOCKED: REMARK    4  A    between atoms: C_20  and  C_21 
DOCKED: REMARK    5  A    between atoms: C_21  and  N_22 
DOCKED: USER                              x       y       z     vdW  Elec       q    Type
DOCKED: USER                           _______ _______ _______ _____ _____    ______ ____
DOCKED: ROOT
DOCKED: ATOM      1  O   UNL     1     -29.215 -12.562   4.095 -0.01 -0.00    -0.346 OA 
DOCKED: ATOM      2  C   UNL     1     -29.448 -11.447   5.014 -0.07 +0.00    +0.130 C  
DOCKED: ATOM      3  C   UNL     1     -30.057 -12.097   6.222 -0.11 +0.00    +0.004 A  
DOCKED: ATOM      4  C   UNL     1     -30.069 -13.475   6.054 -0.14 +0.00    +0.006 A  
DOCKED: ATOM      5  C   UNL     1     -29.467 -13.827   4.749 -0.08 +0.00    +0.169 C  
DOCKED: ATOM      6  C   UNL     1     -30.550 -11.517   7.381 -0.12 -0.00    -0.001 A  
DOCKED: ATOM      7  C   UNL     1     -30.575 -14.315   7.031 -0.25 +0.00    +0.008 A  
DOCKED: ATOM      8  C   UNL     1     -31.068 -12.351   8.374 -0.23 +0.00    +0.010 A  
DOCKED: ATOM      9  C   UNL     1     -31.080 -13.743   8.199 -0.28 +0.00    +0.068 A  
DOCKED: ATOM     10  N   UNL     1     -32.044 -15.262  10.064 -2.62 -0.00    -0.191 NA 
DOCKED: ATOM     11  C   UNL     1     -31.612 -14.581   9.227 -0.40 +0.00    +0.101 C  
DOCKED: ENDROOT
DOCKED: BRANCH   2  12
DOCKED: ATOM     12  C   UNL     1     -28.110 -10.779   5.310 -0.01 +0.00    +0.038 C  
DOCKED: BRANCH  12  13
DOCKED: ATOM     13  C   UNL     1     -26.996 -11.811   5.472 -0.01 +0.00    +0.038 C  
DOCKED: BRANCH  13  14
DOCKED: ATOM     14  C   UNL     1     -26.628 -11.996   6.943 -0.00 +0.00    +0.251 C  
DOCKED: BRANCH  14  15
DOCKED: ATOM     15  N   UNL     1     -26.061 -13.322   7.160 -0.02 +0.00    +0.141 N  
DOCKED: ATOM     16  C   UNL     1     -26.849 -14.066   8.143 -0.04 +0.00    +0.285 C  
DOCKED: ATOM     17  C   UNL     1     -25.987 -14.064   5.901 -0.02 +0.00    +0.285 C  
DOCKED: ENDBRANCH  14  15
DOCKED: ENDBRANCH  13  14
DOCKED: ENDBRANCH  12  13
DOCKED: ENDBRANCH   2  12
DOCKED: BRANCH   2  18
DOCKED: ATOM     18  C   UNL     1     -30.380 -10.504   4.328 -0.12 +0.00    +0.006 A  
DOCKED: ATOM     19  C   UNL     1     -30.595  -9.231   4.855 -0.08 +0.00    +0.001 A  
DOCKED: ATOM     20  C   UNL     1     -31.468  -8.351   4.213 -0.11 +0.00    +0.029 A  
DOCKED: ATOM     21  C   UNL     1     -32.122  -8.744   3.047 -0.19 +0.00    +0.140 A  
DOCKED: ATOM     22  C   UNL     1     -31.906 -10.018   2.521 -0.16 +0.00    +0.029 A  
DOCKED: ATOM     23  F   UNL     1     -32.958  -7.899   2.431 -0.11 -0.00    -0.204 F  
DOCKED: ATOM     24  C   UNL     1     -31.034 -10.899   3.162 -0.05 +0.00    +0.001 A  
DOCKED: ENDBRANCH   2  18
DOCKED: TORSDOF 5
DOCKED: TER
DOCKED: ENDMDL
________________________________________________________________________________


    FINAL DOCKED STATE:
    ________________________


Run:   423 / 512
Time taken for this run:   0.002s

DOCKED: MODEL        423
DOCKED: USER    Run = 423
DOCKED: USER
DOCKED: USER    Estimated Free Energy of Binding    =  -4.82 kcal/mol  [=(1)+(2)+(3)-(4)]
DOCKED: USER
DOCKED: USER    (1) Final Intermolecular Energy     =  -6.31 kcal/mol
DOCKED: USER        vdW + Hbond + desolv Energy     =  -6.31 kcal/mol
DOCKED: USER        Electrostatic Energy            =  +0.00 kcal/mol
DOCKED: USER        Moving Ligand-Fixed Receptor    =  -6.31 kcal/mol
DOCKED: USER        Moving Ligand-Moving Receptor   =  +0.00 kcal/mol
DOCKED: USER    (2) Final Total Internal Energy     =  -1.11 kcal/mol
DOCKED: USER    (3) Torsional Free Energy           =  +1.49 kcal/mol
DOCKED: USER    (4) Unbound System's Energy         =  -1.11 kcal/mol
DOCKED: USER
DOCKED: USER
DOCKED: REMARK  5 active torsions:
DOCKED: REMARK  status: ('A' for Active; 'I' for Inactive)
DOCKED: REMARK    1  A    between atoms: C_2  and  C_19 
DOCKED: REMARK    2  A    between atoms: C_2  and  C_11 
DOCKED: REMARK    3  A    between atoms: C_19  and  C_20 
DOCKED: REMARK    4  A    between atoms: C_20  and  C_21 
DOCKED: REMARK    5  A    between atoms: C_21  and  N_22 
DOCKED: USER                              x       y       z     vdW  Elec       q    Type
DOCKED: USER                           _______ _______ _______ _____ _____    ______ ____
DOCKED: ROOT
DOCKED: ATOM      1  O   UNL     1     -40.592 -11.307  14.431 -0.00 -0.00    -0.346 OA 
DOCKED: ATOM      2  C   UNL     1     -39.236 -10.934  14.025 -0.11 +0.00    +0.130 C  
DOCKED: ATOM      3  C   UNL     1     -39.117 -11.476  12.630 -0.26 +0.00    +0.004 A  
DOCKED: ATOM      4  C   UNL     1     -40.333 -12.014  12.233 -0.26 +0.00    +0.006 A  
DOCKED: ATOM      5  C   UNL     1     -41.330 -11.856  13.315 -0.15 +0.00    +0.169 C  
DOCKED: ATOM      6  C   UNL     1     -38.023 -11.483  11.777 -0.35 -0.00    -0.001 A  
DOCKED: ATOM      7  C   UNL     1     -40.496 -12.577  10.979 -0.29 +0.00    +0.008 A  
DOCKED: ATOM      8  C   UNL     1     -38.171 -12.051  10.511 -0.12 +0.00    +0.010 A  
DOCKED: ATOM      9  C   UNL     1     -39.401 -12.595  10.114 -0.30 +0.00    +0.068 A  
DOCKED: ATOM     10  N   UNL     1     -39.642 -13.639   7.754 -2.63 -0.00    -0.191 NA 
DOCKED: ATOM     11  C   UNL     1     -39.534 -13.171   8.813 -0.28 +0.00    +0.101 C  
DOCKED: ENDROOT
DOCKED: BRANCH   2  12
DOCKED: ATOM     12  C   UNL     1     -39.116  -9.415  14.084 -0.13 +0.00    +0.038 C  
DOCKED: BRANCH  12  13
DOCKED: ATOM     13  C   UNL     1     -40.480  -8.743  13.948 -0.15 +0.00    +0.038 C  
DOCKED: BRANCH  13  14
DOCKED: ATOM     14  C   UNL     1     -40.808  -8.457  12.483 -0.13 +0.00    +0.251 C  
DOCKED: BRANCH  14  15
DOCKED: ATOM     15  N   UNL     1     -41.559  -7.213  12.365 -0.19 +0.00    +0.141 N  
DOCKED: ATOM     16  C   UNL     1     -42.448  -7.035  13.514 -0.08 +0.00    +0.285 C  
DOCKED: ATOM     17  C   UNL     1     -40.650  -6.071  12.246 -0.12 +0.00    +0.285 C  
DOCKED: ENDBRANCH  14  15
DOCKED: ENDBRANCH  13  14
DOCKED: ENDBRANCH  12  13
DOCKED: ENDBRANCH   2  12
DOCKED: BRANCH   2  18
DOCKED: ATOM     18  C   UNL     1     -38.298 -11.586  14.985 -0.10 +0.00    +0.006 A  
DOCKED: ATOM     19  C   UNL     1     -38.739 -12.641  15.782 -0.13 +0.00    +0.001 A  
DOCKED: ATOM     20  C   UNL     1     -37.861 -13.250  16.679 -0.17 +0.00    +0.029 A  
DOCKED: ATOM     21  C   UNL     1     -36.544 -12.803  16.778 -0.10 +0.00    +0.140 A  
DOCKED: ATOM     22  C   UNL     1     -36.104 -11.748  15.980 -0.11 +0.00    +0.029 A  
DOCKED: ATOM     23  F   UNL     1     -35.701 -13.389  17.638 -0.05 -0.00    -0.204 F  
DOCKED: ATOM     24  C   UNL     1     -36.981 -11.138  15.082 -0.11 +0.00    +0.001 A  
DOCKED: ENDBRANCH   2  18
DOCKED: TORSDOF 5
DOCKED: TER
DOCKED: ENDMDL
________________________________________________________________________________


    FINAL DOCKED STATE:
    ________________________


Run:   424 / 512
Time taken for this run:   0.002s

DOCKED: MODEL        424
DOCKED: USER    Run = 424
DOCKED: USER
DOCKED: USER    Estimated Free Energy of Binding    =  -4.11 kcal/mol  [=(1)+(2)+(3)-(4)]
DOCKED: USER
DOCKED: USER    (1) Final Intermolecular Energy     =  -5.60 kcal/mol
DOCKED: USER        vdW + Hbond + desolv Energy     =  -5.60 kcal/mol
DOCKED: USER        Electrostatic Energy            =  +0.00 kcal/mol
DOCKED: USER        Moving Ligand-Fixed Receptor    =  -5.60 kcal/mol
DOCKED: USER        Moving Ligand-Moving Receptor   =  +0.00 kcal/mol
DOCKED: USER    (2) Final Total Internal Energy     =  -1.09 kcal/mol
DOCKED: USER    (3) Torsional Free Energy           =  +1.49 kcal/mol
DOCKED: USER    (4) Unbound System's Energy         =  -1.09 kcal/mol
DOCKED: USER
DOCKED: USER
DOCKED: REMARK  5 active torsions:
DOCKED: REMARK  status: ('A' for Active; 'I' for Inactive)
DOCKED: REMARK    1  A    between atoms: C_2  and  C_19 
DOCKED: REMARK    2  A    between atoms: C_2  and  C_11 
DOCKED: REMARK    3  A    between atoms: C_19  and  C_20 
DOCKED: REMARK    4  A    between atoms: C_20  and  C_21 
DOCKED: REMARK    5  A    between atoms: C_21  and  N_22 
DOCKED: USER                              x       y       z     vdW  Elec       q    Type
DOCKED: USER                           _______ _______ _______ _____ _____    ______ ____
DOCKED: ROOT
DOCKED: ATOM      1  O   UNL     1     -40.987  -8.288  13.410 -0.09 -0.00    -0.346 OA 
DOCKED: ATOM      2  C   UNL     1     -39.525  -8.362  13.411 -0.17 +0.00    +0.130 C  
DOCKED: ATOM      3  C   UNL     1     -39.236  -9.775  12.991 -0.22 +0.00    +0.004 A  
DOCKED: ATOM      4  C   UNL     1     -40.423 -10.419  12.671 -0.17 +0.00    +0.006 A  
DOCKED: ATOM      5  C   UNL     1     -41.561  -9.488  12.842 -0.19 +0.00    +0.169 C  
DOCKED: ATOM      6  C   UNL     1     -38.019 -10.433  12.889 -0.26 -0.00    -0.001 A  
DOCKED: ATOM      7  C   UNL     1     -40.436 -11.736  12.246 -0.24 +0.00    +0.008 A  
DOCKED: ATOM      8  C   UNL     1     -38.016 -11.763  12.466 -0.32 +0.00    +0.010 A  
DOCKED: ATOM      9  C   UNL     1     -39.218 -12.411  12.145 -0.26 +0.00    +0.068 A  
DOCKED: ATOM     10  N   UNL     1     -39.176 -14.879  11.358 -2.61 -0.00    -0.191 NA 
DOCKED: ATOM     11  C   UNL     1     -39.195 -13.772  11.712 -0.36 +0.00    +0.101 C  
DOCKED: ENDROOT
DOCKED: BRANCH   2  12
DOCKED: ATOM     12  C   UNL     1     -38.989  -7.329  12.426 -0.21 +0.00    +0.038 C  
DOCKED: BRANCH  12  13
DOCKED: ATOM     13  C   UNL     1     -37.462  -7.311  12.415 -0.15 +0.00    +0.038 C  
DOCKED: BRANCH  13  14
DOCKED: ATOM     14  C   UNL     1     -36.931  -5.907  12.135 -0.08 +0.00    +0.251 C  
DOCKED: BRANCH  14  15
DOCKED: ATOM     15  N   UNL     1     -38.021  -4.939  12.156 -0.07 +0.00    +0.141 N  
DOCKED: ATOM     16  C   UNL     1     -37.727  -3.850  13.089 -0.01 +0.00    +0.285 C  
DOCKED: ATOM     17  C   UNL     1     -38.263  -4.406  10.814 -0.09 +0.00    +0.285 C  
DOCKED: ENDBRANCH  14  15
DOCKED: ENDBRANCH  13  14
DOCKED: ENDBRANCH  12  13
DOCKED: ENDBRANCH   2  12
DOCKED: BRANCH   2  18
DOCKED: ATOM     18  C   UNL     1     -39.074  -8.065  14.802 -0.05 +0.00    +0.006 A  
DOCKED: ATOM     19  C   UNL     1     -38.899  -9.105  15.714 -0.03 +0.00    +0.001 A  
DOCKED: ATOM     20  C   UNL     1     -38.478  -8.825  17.015 -0.00 +0.00    +0.029 A  
DOCKED: ATOM     21  C   UNL     1     -38.231  -7.508  17.401 +0.00 +0.00    +0.140 A  
DOCKED: ATOM     22  C   UNL     1     -38.406  -6.469  16.487 -0.00 +0.00    +0.029 A  
DOCKED: ATOM     23  F   UNL     1     -37.825  -7.241  18.648 +0.00 -0.00    -0.204 F  
DOCKED: ATOM     24  C   UNL     1     -38.828  -6.748  15.186 -0.02 +0.00    +0.001 A  
DOCKED: ENDBRANCH   2  18
DOCKED: TORSDOF 5
DOCKED: TER
DOCKED: ENDMDL
________________________________________________________________________________


    FINAL DOCKED STATE:
    ________________________


Run:   425 / 512
Time taken for this run:   0.002s

DOCKED: MODEL        425
DOCKED: USER    Run = 425
DOCKED: USER
DOCKED: USER    Estimated Free Energy of Binding    =  -3.66 kcal/mol  [=(1)+(2)+(3)-(4)]
DOCKED: USER
DOCKED: USER    (1) Final Intermolecular Energy     =  -5.15 kcal/mol
DOCKED: USER        vdW + Hbond + desolv Energy     =  -5.15 kcal/mol
DOCKED: USER        Electrostatic Energy            =  +0.00 kcal/mol
DOCKED: USER        Moving Ligand-Fixed Receptor    =  -5.15 kcal/mol
DOCKED: USER        Moving Ligand-Moving Receptor   =  +0.00 kcal/mol
DOCKED: USER    (2) Final Total Internal Energy     =  -1.46 kcal/mol
DOCKED: USER    (3) Torsional Free Energy           =  +1.49 kcal/mol
DOCKED: USER    (4) Unbound System's Energy         =  -1.46 kcal/mol
DOCKED: USER
DOCKED: USER
DOCKED: REMARK  5 active torsions:
DOCKED: REMARK  status: ('A' for Active; 'I' for Inactive)
DOCKED: REMARK    1  A    between atoms: C_2  and  C_19 
DOCKED: REMARK    2  A    between atoms: C_2  and  C_11 
DOCKED: REMARK    3  A    between atoms: C_19  and  C_20 
DOCKED: REMARK    4  A    between atoms: C_20  and  C_21 
DOCKED: REMARK    5  A    between atoms: C_21  and  N_22 
DOCKED: USER                              x       y       z     vdW  Elec       q    Type
DOCKED: USER                           _______ _______ _______ _____ _____    ______ ____
DOCKED: ROOT
DOCKED: ATOM      1  O   UNL     1     -36.112 -12.041  16.596 -0.04 -0.00    -0.346 OA 
DOCKED: ATOM      2  C   UNL     1     -35.957 -11.099  15.486 -0.10 +0.00    +0.130 C  
DOCKED: ATOM      3  C   UNL     1     -36.683 -11.761  14.351 -0.20 +0.00    +0.004 A  
DOCKED: ATOM      4  C   UNL     1     -37.293 -12.923  14.800 -0.22 +0.00    +0.006 A  
DOCKED: ATOM      5  C   UNL     1     -37.029 -13.103  16.245 -0.14 +0.00    +0.169 C  
DOCKED: ATOM      6  C   UNL     1     -36.804 -11.359  13.028 -0.24 -0.00    -0.001 A  
DOCKED: ATOM      7  C   UNL     1     -38.037 -13.722  13.949 -0.29 +0.00    +0.008 A  
DOCKED: ATOM      8  C   UNL     1     -37.546 -12.157  12.156 -0.33 +0.00    +0.010 A  
DOCKED: ATOM      9  C   UNL     1     -38.160 -13.332  12.614 -0.30 +0.00    +0.068 A  
DOCKED: ATOM     10  N   UNL     1     -39.536 -14.787  10.970 -2.30 -0.00    -0.191 NA 
DOCKED: ATOM     11  C   UNL     1     -38.918 -14.135  11.707 -0.20 +0.00    +0.101 C  
DOCKED: ENDROOT
DOCKED: BRANCH   2  12
DOCKED: ATOM     12  C   UNL     1     -36.578  -9.768  15.893 -0.05 +0.00    +0.038 C  
DOCKED: BRANCH  12  13
DOCKED: ATOM     13  C   UNL     1     -37.812  -9.973  16.769 -0.02 +0.00    +0.038 C  
DOCKED: BRANCH  13  14
DOCKED: ATOM     14  C   UNL     1     -39.079  -9.512  16.050 -0.01 +0.00    +0.251 C  
DOCKED: BRANCH  14  15
DOCKED: ATOM     15  N   UNL     1     -39.640 -10.602  15.261 -0.03 +0.00    +0.141 N  
DOCKED: ATOM     16  C   UNL     1     -40.112 -11.680  16.132 -0.01 +0.00    +0.285 C  
DOCKED: ATOM     17  C   UNL     1     -40.732 -10.118  14.416 -0.04 +0.00    +0.285 C  
DOCKED: ENDBRANCH  14  15
DOCKED: ENDBRANCH  13  14
DOCKED: ENDBRANCH  12  13
DOCKED: ENDBRANCH   2  12
DOCKED: BRANCH   2  18
DOCKED: ATOM     18  C   UNL     1     -34.493 -10.957  15.236 -0.13 +0.00    +0.006 A  
DOCKED: ATOM     19  C   UNL     1     -33.776  -9.937  15.860 -0.05 +0.00    +0.001 A  
DOCKED: ATOM     20  C   UNL     1     -32.407  -9.805  15.625 -0.04 +0.00    +0.029 A  
DOCKED: ATOM     21  C   UNL     1     -31.757 -10.691  14.767 -0.06 +0.00    +0.140 A  
DOCKED: ATOM     22  C   UNL     1     -32.476 -11.711  14.144 -0.16 +0.00    +0.029 A  
DOCKED: ATOM     23  F   UNL     1     -30.443 -10.565  14.543 +0.00 -0.00    -0.204 F  
DOCKED: ATOM     24  C   UNL     1     -33.845 -11.844  14.378 -0.18 +0.00    +0.001 A  
DOCKED: ENDBRANCH   2  18
DOCKED: TORSDOF 5
DOCKED: TER
DOCKED: ENDMDL
________________________________________________________________________________


    FINAL DOCKED STATE:
    ________________________


Run:   426 / 512
Time taken for this run:   0.002s

DOCKED: MODEL        426
DOCKED: USER    Run = 426
DOCKED: USER
DOCKED: USER    Estimated Free Energy of Binding    =  -4.23 kcal/mol  [=(1)+(2)+(3)-(4)]
DOCKED: USER
DOCKED: USER    (1) Final Intermolecular Energy     =  -5.72 kcal/mol
DOCKED: USER        vdW + Hbond + desolv Energy     =  -5.72 kcal/mol
DOCKED: USER        Electrostatic Energy            =  +0.00 kcal/mol
DOCKED: USER        Moving Ligand-Fixed Receptor    =  -5.72 kcal/mol
DOCKED: USER        Moving Ligand-Moving Receptor   =  +0.00 kcal/mol
DOCKED: USER    (2) Final Total Internal Energy     =  -1.19 kcal/mol
DOCKED: USER    (3) Torsional Free Energy           =  +1.49 kcal/mol
DOCKED: USER    (4) Unbound System's Energy         =  -1.19 kcal/mol
DOCKED: USER
DOCKED: USER
DOCKED: REMARK  5 active torsions:
DOCKED: REMARK  status: ('A' for Active; 'I' for Inactive)
DOCKED: REMARK    1  A    between atoms: C_2  and  C_19 
DOCKED: REMARK    2  A    between atoms: C_2  and  C_11 
DOCKED: REMARK    3  A    between atoms: C_19  and  C_20 
DOCKED: REMARK    4  A    between atoms: C_20  and  C_21 
DOCKED: REMARK    5  A    between atoms: C_21  and  N_22 
DOCKED: USER                              x       y       z     vdW  Elec       q    Type
DOCKED: USER                           _______ _______ _______ _____ _____    ______ ____
DOCKED: ROOT
DOCKED: ATOM      1  O   UNL     1     -36.322 -10.279  15.642 -0.01 -0.00    -0.346 OA 
DOCKED: ATOM      2  C   UNL     1     -36.396  -9.646  14.324 -0.10 +0.00    +0.130 C  
DOCKED: ATOM      3  C   UNL     1     -37.061 -10.682  13.465 -0.21 +0.00    +0.004 A  
DOCKED: ATOM      4  C   UNL     1     -37.434 -11.767  14.245 -0.18 +0.00    +0.006 A  
DOCKED: ATOM      5  C   UNL     1     -37.060 -11.523  15.656 -0.08 +0.00    +0.169 C  
DOCKED: ATOM      6  C   UNL     1     -37.325 -10.660  12.103 -0.24 -0.00    -0.001 A  
DOCKED: ATOM      7  C   UNL     1     -38.076 -12.863  13.695 -0.25 +0.00    +0.008 A  
DOCKED: ATOM      8  C   UNL     1     -37.967 -11.760  11.532 -0.33 +0.00    +0.010 A  
DOCKED: ATOM      9  C   UNL     1     -38.341 -12.856  12.325 -0.30 +0.00    +0.068 A  
DOCKED: ATOM     10  N   UNL     1     -39.537 -14.880  11.235 -2.49 -0.00    -0.191 NA 
DOCKED: ATOM     11  C   UNL     1     -39.000 -13.972  11.724 -0.28 +0.00    +0.101 C  
DOCKED: ENDROOT
DOCKED: BRANCH   2  12
DOCKED: ATOM     12  C   UNL     1     -37.213  -8.365  14.450 -0.07 +0.00    +0.038 C  
DOCKED: BRANCH  12  13
DOCKED: ATOM     13  C   UNL     1     -38.611  -8.648  14.998 -0.05 +0.00    +0.038 C  
DOCKED: BRANCH  13  14
DOCKED: ATOM     14  C   UNL     1     -39.616  -7.610  14.503 -0.04 +0.00    +0.251 C  
DOCKED: BRANCH  14  15
DOCKED: ATOM     15  N   UNL     1     -39.904  -7.817  13.089 -0.17 +0.00    +0.141 N  
DOCKED: ATOM     16  C   UNL     1     -41.349  -7.848  12.856 -0.14 +0.00    +0.285 C  
DOCKED: ATOM     17  C   UNL     1     -39.281  -6.771  12.276 -0.13 +0.00    +0.285 C  
DOCKED: ENDBRANCH  14  15
DOCKED: ENDBRANCH  13  14
DOCKED: ENDBRANCH  12  13
DOCKED: ENDBRANCH   2  12
DOCKED: BRANCH   2  18
DOCKED: ATOM     18  C   UNL     1     -34.996  -9.351  13.902 -0.12 +0.00    +0.006 A  
DOCKED: ATOM     19  C   UNL     1     -34.728  -8.240  13.104 -0.12 +0.00    +0.001 A  
DOCKED: ATOM     20  C   UNL     1     -33.418  -7.966  12.709 -0.09 +0.00    +0.029 A  
DOCKED: ATOM     21  C   UNL     1     -32.378  -8.803  13.114 -0.07 +0.00    +0.140 A  
DOCKED: ATOM     22  C   UNL     1     -32.647  -9.914  13.913 -0.10 +0.00    +0.029 A  
DOCKED: ATOM     23  F   UNL     1     -31.120  -8.538  12.737 -0.01 -0.00    -0.204 F  
DOCKED: ATOM     24  C   UNL     1     -33.957 -10.189  14.307 -0.13 +0.00    +0.001 A  
DOCKED: ENDBRANCH   2  18
DOCKED: TORSDOF 5
DOCKED: TER
DOCKED: ENDMDL
________________________________________________________________________________


    FINAL DOCKED STATE:
    ________________________


Run:   427 / 512
Time taken for this run:   0.002s

DOCKED: MODEL        427
DOCKED: USER    Run = 427
DOCKED: USER
DOCKED: USER    Estimated Free Energy of Binding    =  -5.36 kcal/mol  [=(1)+(2)+(3)-(4)]
DOCKED: USER
DOCKED: USER    (1) Final Intermolecular Energy     =  -6.85 kcal/mol
DOCKED: USER        vdW + Hbond + desolv Energy     =  -6.85 kcal/mol
DOCKED: USER        Electrostatic Energy            =  +0.00 kcal/mol
DOCKED: USER        Moving Ligand-Fixed Receptor    =  -6.85 kcal/mol
DOCKED: USER        Moving Ligand-Moving Receptor   =  +0.00 kcal/mol
DOCKED: USER    (2) Final Total Internal Energy     =  -1.40 kcal/mol
DOCKED: USER    (3) Torsional Free Energy           =  +1.49 kcal/mol
DOCKED: USER    (4) Unbound System's Energy         =  -1.40 kcal/mol
DOCKED: USER
DOCKED: USER
DOCKED: REMARK  5 active torsions:
DOCKED: REMARK  status: ('A' for Active; 'I' for Inactive)
DOCKED: REMARK    1  A    between atoms: C_2  and  C_19 
DOCKED: REMARK    2  A    between atoms: C_2  and  C_11 
DOCKED: REMARK    3  A    between atoms: C_19  and  C_20 
DOCKED: REMARK    4  A    between atoms: C_20  and  C_21 
DOCKED: REMARK    5  A    between atoms: C_21  and  N_22 
DOCKED: USER                              x       y       z     vdW  Elec       q    Type
DOCKED: USER                           _______ _______ _______ _____ _____    ______ ____
DOCKED: ROOT
DOCKED: ATOM      1  O   UNL     1     -37.135 -10.435  13.532 -0.08 -0.00    -0.346 OA 
DOCKED: ATOM      2  C   UNL     1     -37.215 -11.879  13.757 -0.22 +0.00    +0.130 C  
DOCKED: ATOM      3  C   UNL     1     -37.782 -12.412  12.473 -0.34 +0.00    +0.004 A  
DOCKED: ATOM      4  C   UNL     1     -37.910 -11.380  11.555 -0.28 +0.00    +0.006 A  
DOCKED: ATOM      5  C   UNL     1     -37.433 -10.113  12.153 -0.19 +0.00    +0.169 C  
DOCKED: ATOM      6  C   UNL     1     -38.144 -13.709  12.140 -0.35 -0.00    -0.001 A  
DOCKED: ATOM      7  C   UNL     1     -38.406 -11.605  10.282 +0.13 +0.00    +0.008 A  
DOCKED: ATOM      8  C   UNL     1     -38.650 -13.952  10.862 -0.50 +0.00    +0.010 A  
DOCKED: ATOM      9  C   UNL     1     -38.779 -12.904   9.937 -0.44 +0.00    +0.068 A  
DOCKED: ATOM     10  N   UNL     1     -39.716 -13.389   7.571 -3.02 -0.00    -0.191 NA 
DOCKED: ATOM     11  C   UNL     1     -39.297 -13.172   8.633 -0.34 +0.00    +0.101 C  
DOCKED: ENDROOT
DOCKED: BRANCH   2  12
DOCKED: ATOM     12  C   UNL     1     -35.813 -12.401  14.049 -0.26 +0.00    +0.038 C  
DOCKED: BRANCH  12  13
DOCKED: ATOM     13  C   UNL     1     -35.445 -12.215  15.519 -0.11 +0.00    +0.038 C  
DOCKED: BRANCH  13  14
DOCKED: ATOM     14  C   UNL     1     -34.467 -11.055  15.698 -0.08 +0.00    +0.251 C  
DOCKED: BRANCH  14  15
DOCKED: ATOM     15  N   UNL     1     -34.948  -9.873  14.994 -0.06 +0.00    +0.141 N  
DOCKED: ATOM     16  C   UNL     1     -35.198  -8.779  15.933 -0.01 +0.00    +0.285 C  
DOCKED: ATOM     17  C   UNL     1     -33.986  -9.454  13.972 -0.08 +0.00    +0.285 C  
DOCKED: ENDBRANCH  14  15
DOCKED: ENDBRANCH  13  14
DOCKED: ENDBRANCH  12  13
DOCKED: ENDBRANCH   2  12
DOCKED: BRANCH   2  18
DOCKED: ATOM     18  C   UNL     1     -38.121 -12.089  14.924 -0.13 +0.00    +0.006 A  
DOCKED: ATOM     19  C   UNL     1     -38.671 -10.991  15.586 -0.06 +0.00    +0.001 A  
DOCKED: ATOM     20  C   UNL     1     -39.518 -11.189  16.677 -0.03 +0.00    +0.029 A  
DOCKED: ATOM     21  C   UNL     1     -39.814 -12.483  17.104 -0.04 +0.00    +0.140 A  
DOCKED: ATOM     22  C   UNL     1     -39.265 -13.580  16.441 -0.15 +0.00    +0.029 A  
DOCKED: ATOM     23  F   UNL     1     -40.629 -12.672  18.150 +0.01 -0.00    -0.204 F  
DOCKED: ATOM     24  C   UNL     1     -38.417 -13.383  15.350 -0.21 +0.00    +0.001 A  
DOCKED: ENDBRANCH   2  18
DOCKED: TORSDOF 5
DOCKED: TER
DOCKED: ENDMDL
________________________________________________________________________________


    FINAL DOCKED STATE:
    ________________________


Run:   428 / 512
Time taken for this run:   0.002s

DOCKED: MODEL        428
DOCKED: USER    Run = 428
DOCKED: USER
DOCKED: USER    Estimated Free Energy of Binding    =  -4.40 kcal/mol  [=(1)+(2)+(3)-(4)]
DOCKED: USER
DOCKED: USER    (1) Final Intermolecular Energy     =  -5.89 kcal/mol
DOCKED: USER        vdW + Hbond + desolv Energy     =  -5.89 kcal/mol
DOCKED: USER        Electrostatic Energy            =  +0.00 kcal/mol
DOCKED: USER        Moving Ligand-Fixed Receptor    =  -5.89 kcal/mol
DOCKED: USER        Moving Ligand-Moving Receptor   =  +0.00 kcal/mol
DOCKED: USER    (2) Final Total Internal Energy     =  -1.31 kcal/mol
DOCKED: USER    (3) Torsional Free Energy           =  +1.49 kcal/mol
DOCKED: USER    (4) Unbound System's Energy         =  -1.31 kcal/mol
DOCKED: USER
DOCKED: USER
DOCKED: REMARK  5 active torsions:
DOCKED: REMARK  status: ('A' for Active; 'I' for Inactive)
DOCKED: REMARK    1  A    between atoms: C_2  and  C_19 
DOCKED: REMARK    2  A    between atoms: C_2  and  C_11 
DOCKED: REMARK    3  A    between atoms: C_19  and  C_20 
DOCKED: REMARK    4  A    between atoms: C_20  and  C_21 
DOCKED: REMARK    5  A    between atoms: C_21  and  N_22 
DOCKED: USER                              x       y       z     vdW  Elec       q    Type
DOCKED: USER                           _______ _______ _______ _____ _____    ______ ____
DOCKED: ROOT
DOCKED: ATOM      1  O   UNL     1     -37.004  -8.273  12.821 -0.08 -0.00    -0.346 OA 
DOCKED: ATOM      2  C   UNL     1     -38.182  -8.532  13.649 -0.13 +0.00    +0.130 C  
DOCKED: ATOM      3  C   UNL     1     -38.596  -9.923  13.262 -0.20 +0.00    +0.004 A  
DOCKED: ATOM      4  C   UNL     1     -37.672 -10.454  12.373 -0.28 +0.00    +0.006 A  
DOCKED: ATOM      5  C   UNL     1     -36.593  -9.472  12.123 -0.07 +0.00    +0.169 C  
DOCKED: ATOM      6  C   UNL     1     -39.695 -10.663  13.672 -0.16 -0.00    -0.001 A  
DOCKED: ATOM      7  C   UNL     1     -37.816 -11.732  11.862 -0.33 +0.00    +0.008 A  
DOCKED: ATOM      8  C   UNL     1     -39.856 -11.953  13.163 -0.19 +0.00    +0.010 A  
DOCKED: ATOM      9  C   UNL     1     -38.921 -12.485  12.263 -0.26 +0.00    +0.068 A  
DOCKED: ATOM     10  N   UNL     1     -39.247 -14.884  11.341 -2.60 -0.00    -0.191 NA 
DOCKED: ATOM     11  C   UNL     1     -39.101 -13.808  11.754 -0.34 +0.00    +0.101 C  
DOCKED: ENDROOT
DOCKED: BRANCH   2  12
DOCKED: ATOM     12  C   UNL     1     -37.776  -8.421  15.114 -0.04 +0.00    +0.038 C  
DOCKED: BRANCH  12  13
DOCKED: ATOM     13  C   UNL     1     -36.302  -8.769  15.312 -0.04 +0.00    +0.038 C  
DOCKED: BRANCH  13  14
DOCKED: ATOM     14  C   UNL     1     -36.141  -9.955  16.261 -0.02 +0.00    +0.251 C  
DOCKED: BRANCH  14  15
DOCKED: ATOM     15  N   UNL     1     -36.253 -11.210  15.529 -0.08 +0.00    +0.141 N  
DOCKED: ATOM     16  C   UNL     1     -35.062 -11.437  14.708 -0.12 +0.00    +0.285 C  
DOCKED: ATOM     17  C   UNL     1     -36.454 -12.329  16.451 -0.07 +0.00    +0.285 C  
DOCKED: ENDBRANCH  14  15
DOCKED: ENDBRANCH  13  14
DOCKED: ENDBRANCH  12  13
DOCKED: ENDBRANCH   2  12
DOCKED: BRANCH   2  18
DOCKED: ATOM     18  C   UNL     1     -39.202  -7.502  13.293 -0.17 +0.00    +0.006 A  
DOCKED: ATOM     19  C   UNL     1     -40.439  -7.894  12.783 -0.23 +0.00    +0.001 A  
DOCKED: ATOM     20  C   UNL     1     -41.391  -6.929  12.450 -0.19 +0.00    +0.029 A  
DOCKED: ATOM     21  C   UNL     1     -41.105  -5.577  12.628 -0.10 +0.00    +0.140 A  
DOCKED: ATOM     22  C   UNL     1     -39.868  -5.186  13.139 -0.08 +0.00    +0.029 A  
DOCKED: ATOM     23  F   UNL     1     -42.020  -4.651  12.310 -0.00 -0.00    -0.204 F  
DOCKED: ATOM     24  C   UNL     1     -38.914  -6.150  13.471 -0.09 +0.00    +0.001 A  
DOCKED: ENDBRANCH   2  18
DOCKED: TORSDOF 5
DOCKED: TER
DOCKED: ENDMDL
________________________________________________________________________________


    FINAL DOCKED STATE:
    ________________________


Run:   429 / 512
Time taken for this run:   0.002s

DOCKED: MODEL        429
DOCKED: USER    Run = 429
DOCKED: USER
DOCKED: USER    Estimated Free Energy of Binding    =  -4.05 kcal/mol  [=(1)+(2)+(3)-(4)]
DOCKED: USER
DOCKED: USER    (1) Final Intermolecular Energy     =  -5.54 kcal/mol
DOCKED: USER        vdW + Hbond + desolv Energy     =  -5.54 kcal/mol
DOCKED: USER        Electrostatic Energy            =  +0.00 kcal/mol
DOCKED: USER        Moving Ligand-Fixed Receptor    =  -5.54 kcal/mol
DOCKED: USER        Moving Ligand-Moving Receptor   =  +0.00 kcal/mol
DOCKED: USER    (2) Final Total Internal Energy     =  -1.40 kcal/mol
DOCKED: USER    (3) Torsional Free Energy           =  +1.49 kcal/mol
DOCKED: USER    (4) Unbound System's Energy         =  -1.40 kcal/mol
DOCKED: USER
DOCKED: USER
DOCKED: REMARK  5 active torsions:
DOCKED: REMARK  status: ('A' for Active; 'I' for Inactive)
DOCKED: REMARK    1  A    between atoms: C_2  and  C_19 
DOCKED: REMARK    2  A    between atoms: C_2  and  C_11 
DOCKED: REMARK    3  A    between atoms: C_19  and  C_20 
DOCKED: REMARK    4  A    between atoms: C_20  and  C_21 
DOCKED: REMARK    5  A    between atoms: C_21  and  N_22 
DOCKED: USER                              x       y       z     vdW  Elec       q    Type
DOCKED: USER                           _______ _______ _______ _____ _____    ______ ____
DOCKED: ROOT
DOCKED: ATOM      1  O   UNL     1     -35.359  -4.843   7.434 -0.07 -0.00    -0.346 OA 
DOCKED: ATOM      2  C   UNL     1     -34.111  -4.294   6.901 -0.16 +0.00    +0.130 C  
DOCKED: ATOM      3  C   UNL     1     -34.520  -3.674   5.596 -0.20 +0.00    +0.004 A  
DOCKED: ATOM      4  C   UNL     1     -35.897  -3.762   5.448 -0.27 +0.00    +0.006 A  
DOCKED: ATOM      5  C   UNL     1     -36.488  -4.424   6.632 -0.22 +0.00    +0.169 C  
DOCKED: ATOM      6  C   UNL     1     -33.737  -3.070   4.623 -0.17 -0.00    -0.001 A  
DOCKED: ATOM      7  C   UNL     1     -36.535  -3.256   4.328 -0.14 +0.00    +0.008 A  
DOCKED: ATOM      8  C   UNL     1     -34.365  -2.560   3.486 -0.28 +0.00    +0.010 A  
DOCKED: ATOM      9  C   UNL     1     -35.757  -2.652   3.340 -0.31 +0.00    +0.068 A  
DOCKED: ATOM     10  N   UNL     1     -36.891  -1.689   1.219 -2.47 -0.00    -0.191 NA 
DOCKED: ATOM     11  C   UNL     1     -36.382  -2.122   2.170 -0.32 +0.00    +0.101 C  
DOCKED: ENDROOT
DOCKED: BRANCH   2  12
DOCKED: ATOM     12  C   UNL     1     -33.567  -3.277   7.897 -0.13 +0.00    +0.038 C  
DOCKED: BRANCH  12  13
DOCKED: ATOM     13  C   UNL     1     -34.311  -3.348   9.229 -0.17 +0.00    +0.038 C  
DOCKED: BRANCH  13  14
DOCKED: ATOM     14  C   UNL     1     -33.948  -4.620   9.993 -0.05 +0.00    +0.251 C  
DOCKED: BRANCH  14  15
DOCKED: ATOM     15  N   UNL     1     -35.152  -5.372  10.327 -0.07 +0.00    +0.141 N  
DOCKED: ATOM     16  C   UNL     1     -35.041  -5.957  11.664 -0.05 +0.00    +0.285 C  
DOCKED: ATOM     17  C   UNL     1     -36.335  -4.513  10.246 -0.07 +0.00    +0.285 C  
DOCKED: ENDBRANCH  14  15
DOCKED: ENDBRANCH  13  14
DOCKED: ENDBRANCH  12  13
DOCKED: ENDBRANCH   2  12
DOCKED: BRANCH   2  18
DOCKED: ATOM     18  C   UNL     1     -33.169  -5.439   6.731 -0.08 +0.00    +0.006 A  
DOCKED: ATOM     19  C   UNL     1     -33.626  -6.747   6.889 -0.13 +0.00    +0.001 A  
DOCKED: ATOM     20  C   UNL     1     -32.744  -7.816   6.730 -0.12 +0.00    +0.029 A  
DOCKED: ATOM     21  C   UNL     1     -31.408  -7.577   6.413 -0.03 +0.00    +0.140 A  
DOCKED: ATOM     22  C   UNL     1     -30.952  -6.269   6.255 -0.01 +0.00    +0.029 A  
DOCKED: ATOM     23  F   UNL     1     -30.562  -8.604   6.259 +0.00 -0.00    -0.204 F  
DOCKED: ATOM     24  C   UNL     1     -31.833  -5.198   6.415 -0.04 +0.00    +0.001 A  
DOCKED: ENDBRANCH   2  18
DOCKED: TORSDOF 5
DOCKED: TER
DOCKED: ENDMDL
________________________________________________________________________________


    FINAL DOCKED STATE:
    ________________________


Run:   430 / 512
Time taken for this run:   0.002s

DOCKED: MODEL        430
DOCKED: USER    Run = 430
DOCKED: USER
DOCKED: USER    Estimated Free Energy of Binding    =  -4.28 kcal/mol  [=(1)+(2)+(3)-(4)]
DOCKED: USER
DOCKED: USER    (1) Final Intermolecular Energy     =  -5.77 kcal/mol
DOCKED: USER        vdW + Hbond + desolv Energy     =  -5.77 kcal/mol
DOCKED: USER        Electrostatic Energy            =  +0.00 kcal/mol
DOCKED: USER        Moving Ligand-Fixed Receptor    =  -5.77 kcal/mol
DOCKED: USER        Moving Ligand-Moving Receptor   =  +0.00 kcal/mol
DOCKED: USER    (2) Final Total Internal Energy     =  -1.26 kcal/mol
DOCKED: USER    (3) Torsional Free Energy           =  +1.49 kcal/mol
DOCKED: USER    (4) Unbound System's Energy         =  -1.26 kcal/mol
DOCKED: USER
DOCKED: USER
DOCKED: REMARK  5 active torsions:
DOCKED: REMARK  status: ('A' for Active; 'I' for Inactive)
DOCKED: REMARK    1  A    between atoms: C_2  and  C_19 
DOCKED: REMARK    2  A    between atoms: C_2  and  C_11 
DOCKED: REMARK    3  A    between atoms: C_19  and  C_20 
DOCKED: REMARK    4  A    between atoms: C_20  and  C_21 
DOCKED: REMARK    5  A    between atoms: C_21  and  N_22 
DOCKED: USER                              x       y       z     vdW  Elec       q    Type
DOCKED: USER                           _______ _______ _______ _____ _____    ______ ____
DOCKED: ROOT
DOCKED: ATOM      1  O   UNL     1     -33.584  -4.320   6.065 -0.05 -0.00    -0.346 OA 
DOCKED: ATOM      2  C   UNL     1     -32.514  -4.042   5.106 -0.09 +0.00    +0.130 C  
DOCKED: ATOM      3  C   UNL     1     -33.221  -3.372   3.963 -0.17 +0.00    +0.004 A  
DOCKED: ATOM      4  C   UNL     1     -34.557  -3.184   4.286 -0.26 +0.00    +0.006 A  
DOCKED: ATOM      5  C   UNL     1     -34.821  -3.696   5.650 -0.17 +0.00    +0.169 C  
DOCKED: ATOM      6  C   UNL     1     -32.719  -2.952   2.740 -0.13 -0.00    -0.001 A  
DOCKED: ATOM      7  C   UNL     1     -35.434  -2.578   3.403 -0.37 +0.00    +0.008 A  
DOCKED: ATOM      8  C   UNL     1     -33.592  -2.344   1.836 -0.23 +0.00    +0.010 A  
DOCKED: ATOM      9  C   UNL     1     -34.942  -2.157   2.166 -0.33 +0.00    +0.068 A  
DOCKED: ATOM     10  N   UNL     1     -36.534  -1.019   0.468 -2.56 -0.00    -0.191 NA 
DOCKED: ATOM     11  C   UNL     1     -35.820  -1.530   1.230 -0.39 +0.00    +0.101 C  
DOCKED: ENDROOT
DOCKED: BRANCH   2  12
DOCKED: ATOM     12  C   UNL     1     -31.486  -3.139   5.778 -0.11 +0.00    +0.038 C  
DOCKED: BRANCH  12  13
DOCKED: ATOM     13  C   UNL     1     -31.861  -1.665   5.635 -0.11 +0.00    +0.038 C  
DOCKED: BRANCH  13  14
DOCKED: ATOM     14  C   UNL     1     -30.660  -0.835   5.186 -0.08 +0.00    +0.251 C  
DOCKED: BRANCH  14  15
DOCKED: ATOM     15  N   UNL     1     -31.092   0.251   4.314 -0.09 +0.00    +0.141 N  
DOCKED: ATOM     16  C   UNL     1     -32.553   0.323   4.264 -0.16 +0.00    +0.285 C  
DOCKED: ATOM     17  C   UNL     1     -30.536   1.527   4.765 -0.05 +0.00    +0.285 C  
DOCKED: ENDBRANCH  14  15
DOCKED: ENDBRANCH  13  14
DOCKED: ENDBRANCH  12  13
DOCKED: ENDBRANCH   2  12
DOCKED: BRANCH   2  18
DOCKED: ATOM     18  C   UNL     1     -31.913  -5.355   4.729 -0.05 +0.00    +0.006 A  
DOCKED: ATOM     19  C   UNL     1     -30.547  -5.570   4.900 -0.01 +0.00    +0.001 A  
DOCKED: ATOM     20  C   UNL     1     -29.986  -6.798   4.547 -0.01 +0.00    +0.029 A  
DOCKED: ATOM     21  C   UNL     1     -30.792  -7.808   4.024 -0.03 +0.00    +0.140 A  
DOCKED: ATOM     22  C   UNL     1     -32.160  -7.592   3.853 -0.14 +0.00    +0.029 A  
DOCKED: ATOM     23  F   UNL     1     -30.254  -8.988   3.686 -0.01 -0.00    -0.204 F  
DOCKED: ATOM     24  C   UNL     1     -32.721  -6.364   4.206 -0.14 +0.00    +0.001 A  
DOCKED: ENDBRANCH   2  18
DOCKED: TORSDOF 5
DOCKED: TER
DOCKED: ENDMDL
________________________________________________________________________________


    FINAL DOCKED STATE:
    ________________________


Run:   431 / 512
Time taken for this run:   0.002s

DOCKED: MODEL        431
DOCKED: USER    Run = 431
DOCKED: USER
DOCKED: USER    Estimated Free Energy of Binding    =  -3.82 kcal/mol  [=(1)+(2)+(3)-(4)]
DOCKED: USER
DOCKED: USER    (1) Final Intermolecular Energy     =  -5.31 kcal/mol
DOCKED: USER        vdW + Hbond + desolv Energy     =  -5.31 kcal/mol
DOCKED: USER        Electrostatic Energy            =  +0.00 kcal/mol
DOCKED: USER        Moving Ligand-Fixed Receptor    =  -5.31 kcal/mol
DOCKED: USER        Moving Ligand-Moving Receptor   =  +0.00 kcal/mol
DOCKED: USER    (2) Final Total Internal Energy     =  -1.36 kcal/mol
DOCKED: USER    (3) Torsional Free Energy           =  +1.49 kcal/mol
DOCKED: USER    (4) Unbound System's Energy         =  -1.36 kcal/mol
DOCKED: USER
DOCKED: USER
DOCKED: REMARK  5 active torsions:
DOCKED: REMARK  status: ('A' for Active; 'I' for Inactive)
DOCKED: REMARK    1  A    between atoms: C_2  and  C_19 
DOCKED: REMARK    2  A    between atoms: C_2  and  C_11 
DOCKED: REMARK    3  A    between atoms: C_19  and  C_20 
DOCKED: REMARK    4  A    between atoms: C_20  and  C_21 
DOCKED: REMARK    5  A    between atoms: C_21  and  N_22 
DOCKED: USER                              x       y       z     vdW  Elec       q    Type
DOCKED: USER                           _______ _______ _______ _____ _____    ______ ____
DOCKED: ROOT
DOCKED: ATOM      1  O   UNL     1     -30.511  -3.471   3.264 +0.01 -0.00    -0.346 OA 
DOCKED: ATOM      2  C   UNL     1     -31.504  -3.810   4.284 -0.04 +0.00    +0.130 C  
DOCKED: ATOM      3  C   UNL     1     -32.799  -3.322   3.702 -0.14 +0.00    +0.004 A  
DOCKED: ATOM      4  C   UNL     1     -32.583  -2.847   2.416 -0.12 +0.00    +0.006 A  
DOCKED: ATOM      5  C   UNL     1     -31.154  -2.996   2.058 -0.02 +0.00    +0.169 C  
DOCKED: ATOM      6  C   UNL     1     -34.069  -3.311   4.261 -0.24 -0.00    -0.001 A  
DOCKED: ATOM      7  C   UNL     1     -33.620  -2.342   1.650 -0.24 +0.00    +0.008 A  
DOCKED: ATOM      8  C   UNL     1     -35.124  -2.801   3.503 -0.34 +0.00    +0.010 A  
DOCKED: ATOM      9  C   UNL     1     -34.901  -2.320   2.204 -0.29 +0.00    +0.068 A  
DOCKED: ATOM     10  N   UNL     1     -36.884  -1.385   0.823 -2.56 -0.00    -0.191 NA 
DOCKED: ATOM     11  C   UNL     1     -35.994  -1.804   1.443 -0.31 +0.00    +0.101 C  
DOCKED: ENDROOT
DOCKED: BRANCH   2  12
DOCKED: ATOM     12  C   UNL     1     -31.481  -5.319   4.497 -0.04 +0.00    +0.038 C  
DOCKED: BRANCH  12  13
DOCKED: ATOM     13  C   UNL     1     -30.414  -5.987   3.632 -0.01 +0.00    +0.038 C  
DOCKED: BRANCH  13  14
DOCKED: ATOM     14  C   UNL     1     -30.999  -7.160   2.847 -0.03 +0.00    +0.251 C  
DOCKED: BRANCH  14  15
DOCKED: ATOM     15  N   UNL     1     -32.369  -6.868   2.445 -0.13 +0.00    +0.141 N  
DOCKED: ATOM     16  C   UNL     1     -32.392  -6.177   1.154 -0.10 +0.00    +0.285 C  
DOCKED: ATOM     17  C   UNL     1     -33.160  -8.098   2.375 -0.21 +0.00    +0.285 C  
DOCKED: ENDBRANCH  14  15
DOCKED: ENDBRANCH  13  14
DOCKED: ENDBRANCH  12  13
DOCKED: ENDBRANCH   2  12
DOCKED: BRANCH   2  18
DOCKED: ATOM     18  C   UNL     1     -31.116  -3.084   5.529 -0.08 +0.00    +0.006 A  
DOCKED: ATOM     19  C   UNL     1     -30.971  -3.784   6.727 -0.06 +0.00    +0.001 A  
DOCKED: ATOM     20  C   UNL     1     -30.609  -3.104   7.890 -0.07 +0.00    +0.029 A  
DOCKED: ATOM     21  C   UNL     1     -30.392  -1.727   7.854 -0.05 +0.00    +0.140 A  
DOCKED: ATOM     22  C   UNL     1     -30.537  -1.029   6.656 -0.09 +0.00    +0.029 A  
DOCKED: ATOM     23  F   UNL     1     -30.042  -1.075   8.971 -0.03 -0.00    -0.204 F  
DOCKED: ATOM     24  C   UNL     1     -30.900  -1.708   5.492 -0.12 +0.00    +0.001 A  
DOCKED: ENDBRANCH   2  18
DOCKED: TORSDOF 5
DOCKED: TER
DOCKED: ENDMDL
________________________________________________________________________________


    FINAL DOCKED STATE:
    ________________________


Run:   432 / 512
Time taken for this run:   0.002s

DOCKED: MODEL        432
DOCKED: USER    Run = 432
DOCKED: USER
DOCKED: USER    Estimated Free Energy of Binding    =  -4.24 kcal/mol  [=(1)+(2)+(3)-(4)]
DOCKED: USER
DOCKED: USER    (1) Final Intermolecular Energy     =  -5.73 kcal/mol
DOCKED: USER        vdW + Hbond + desolv Energy     =  -5.73 kcal/mol
DOCKED: USER        Electrostatic Energy            =  +0.00 kcal/mol
DOCKED: USER        Moving Ligand-Fixed Receptor    =  -5.73 kcal/mol
DOCKED: USER        Moving Ligand-Moving Receptor   =  +0.00 kcal/mol
DOCKED: USER    (2) Final Total Internal Energy     =  -0.97 kcal/mol
DOCKED: USER    (3) Torsional Free Energy           =  +1.49 kcal/mol
DOCKED: USER    (4) Unbound System's Energy         =  -0.97 kcal/mol
DOCKED: USER
DOCKED: USER
DOCKED: REMARK  5 active torsions:
DOCKED: REMARK  status: ('A' for Active; 'I' for Inactive)
DOCKED: REMARK    1  A    between atoms: C_2  and  C_19 
DOCKED: REMARK    2  A    between atoms: C_2  and  C_11 
DOCKED: REMARK    3  A    between atoms: C_19  and  C_20 
DOCKED: REMARK    4  A    between atoms: C_20  and  C_21 
DOCKED: REMARK    5  A    between atoms: C_21  and  N_22 
DOCKED: USER                              x       y       z     vdW  Elec       q    Type
DOCKED: USER                           _______ _______ _______ _____ _____    ______ ____
DOCKED: ROOT
DOCKED: ATOM      1  O   UNL     1     -39.470  -8.096  13.515 -0.07 -0.00    -0.346 OA 
DOCKED: ATOM      2  C   UNL     1     -38.057  -8.464  13.425 -0.14 +0.00    +0.130 C  
DOCKED: ATOM      3  C   UNL     1     -38.087  -9.899  12.985 -0.23 +0.00    +0.004 A  
DOCKED: ATOM      4  C   UNL     1     -39.397 -10.285  12.739 -0.22 +0.00    +0.006 A  
DOCKED: ATOM      5  C   UNL     1     -40.310  -9.146  12.982 -0.20 +0.00    +0.169 C  
DOCKED: ATOM      6  C   UNL     1     -37.037 -10.789  12.806 -0.26 -0.00    -0.001 A  
DOCKED: ATOM      7  C   UNL     1     -39.703 -11.566  12.312 -0.25 +0.00    +0.008 A  
DOCKED: ATOM      8  C   UNL     1     -37.330 -12.086  12.381 -0.31 +0.00    +0.010 A  
DOCKED: ATOM      9  C   UNL     1     -38.656 -12.472  12.135 -0.29 +0.00    +0.068 A  
DOCKED: ATOM     10  N   UNL     1     -39.164 -14.885  11.341 -2.62 -0.00    -0.191 NA 
DOCKED: ATOM     11  C   UNL     1     -38.936 -13.803  11.698 -0.36 +0.00    +0.101 C  
DOCKED: ENDROOT
DOCKED: BRANCH   2  12
DOCKED: ATOM     12  C   UNL     1     -37.383  -7.547  12.411 -0.14 +0.00    +0.038 C  
DOCKED: BRANCH  12  13
DOCKED: ATOM     13  C   UNL     1     -35.954  -7.999  12.114 -0.17 +0.00    +0.038 C  
DOCKED: BRANCH  13  14
DOCKED: ATOM     14  C   UNL     1     -35.131  -6.860  11.515 -0.09 +0.00    +0.251 C  
DOCKED: BRANCH  14  15
DOCKED: ATOM     15  N   UNL     1     -33.842  -7.358  11.048 -0.09 +0.00    +0.141 N  
DOCKED: ATOM     16  C   UNL     1     -33.388  -8.474  11.879 -0.07 +0.00    +0.285 C  
DOCKED: ATOM     17  C   UNL     1     -33.925  -7.769   9.646 -0.11 +0.00    +0.285 C  
DOCKED: ENDBRANCH  14  15
DOCKED: ENDBRANCH  13  14
DOCKED: ENDBRANCH  12  13
DOCKED: ENDBRANCH   2  12
DOCKED: BRANCH   2  18
DOCKED: ATOM     18  C   UNL     1     -37.471  -8.285  14.786 -0.05 +0.00    +0.006 A  
DOCKED: ATOM     19  C   UNL     1     -37.249  -9.394  15.600 -0.04 +0.00    +0.001 A  
DOCKED: ATOM     20  C   UNL     1     -36.702  -9.225  16.873 -0.01 +0.00    +0.029 A  
DOCKED: ATOM     21  C   UNL     1     -36.377  -7.948  17.328 -0.00 +0.00    +0.140 A  
DOCKED: ATOM     22  C   UNL     1     -36.599  -6.839  16.512 -0.00 +0.00    +0.029 A  
DOCKED: ATOM     23  F   UNL     1     -35.850  -7.786  18.549 +0.00 -0.00    -0.204 F  
DOCKED: ATOM     24  C   UNL     1     -37.147  -7.007  15.239 -0.02 +0.00    +0.001 A  
DOCKED: ENDBRANCH   2  18
DOCKED: TORSDOF 5
DOCKED: TER
DOCKED: ENDMDL
________________________________________________________________________________


    FINAL DOCKED STATE:
    ________________________


Run:   433 / 512
Time taken for this run:   0.002s

DOCKED: MODEL        433
DOCKED: USER    Run = 433
DOCKED: USER
DOCKED: USER    Estimated Free Energy of Binding    =  -4.47 kcal/mol  [=(1)+(2)+(3)-(4)]
DOCKED: USER
DOCKED: USER    (1) Final Intermolecular Energy     =  -5.96 kcal/mol
DOCKED: USER        vdW + Hbond + desolv Energy     =  -5.96 kcal/mol
DOCKED: USER        Electrostatic Energy            =  +0.00 kcal/mol
DOCKED: USER        Moving Ligand-Fixed Receptor    =  -5.96 kcal/mol
DOCKED: USER        Moving Ligand-Moving Receptor   =  +0.00 kcal/mol
DOCKED: USER    (2) Final Total Internal Energy     =  -1.48 kcal/mol
DOCKED: USER    (3) Torsional Free Energy           =  +1.49 kcal/mol
DOCKED: USER    (4) Unbound System's Energy         =  -1.48 kcal/mol
DOCKED: USER
DOCKED: USER
DOCKED: REMARK  5 active torsions:
DOCKED: REMARK  status: ('A' for Active; 'I' for Inactive)
DOCKED: REMARK    1  A    between atoms: C_2  and  C_19 
DOCKED: REMARK    2  A    between atoms: C_2  and  C_11 
DOCKED: REMARK    3  A    between atoms: C_19  and  C_20 
DOCKED: REMARK    4  A    between atoms: C_20  and  C_21 
DOCKED: REMARK    5  A    between atoms: C_21  and  N_22 
DOCKED: USER                              x       y       z     vdW  Elec       q    Type
DOCKED: USER                           _______ _______ _______ _____ _____    ______ ____
DOCKED: ROOT
DOCKED: ATOM      1  O   UNL     1     -36.630  -8.650  13.620 -0.04 -0.00    -0.346 OA 
DOCKED: ATOM      2  C   UNL     1     -38.088  -8.602  13.734 -0.12 +0.00    +0.130 C  
DOCKED: ATOM      3  C   UNL     1     -38.534  -9.932  13.200 -0.21 +0.00    +0.004 A  
DOCKED: ATOM      4  C   UNL     1     -37.426 -10.715  12.910 -0.26 +0.00    +0.006 A  
DOCKED: ATOM      5  C   UNL     1     -36.188  -9.974  13.238 -0.17 +0.00    +0.169 C  
DOCKED: ATOM      6  C   UNL     1     -39.819 -10.415  12.999 -0.22 -0.00    -0.001 A  
DOCKED: ATOM      7  C   UNL     1     -37.561 -11.997  12.407 -0.32 +0.00    +0.008 A  
DOCKED: ATOM      8  C   UNL     1     -39.972 -11.705  12.488 -0.24 +0.00    +0.010 A  
DOCKED: ATOM      9  C   UNL     1     -38.849 -12.492  12.194 -0.27 +0.00    +0.068 A  
DOCKED: ATOM     10  N   UNL     1     -39.168 -14.884  11.251 -2.56 -0.00    -0.191 NA 
DOCKED: ATOM     11  C   UNL     1     -39.025 -13.811  11.673 -0.36 +0.00    +0.101 C  
DOCKED: ENDROOT
DOCKED: BRANCH   2  12
DOCKED: ATOM     12  C   UNL     1     -38.451  -8.399  15.201 -0.04 +0.00    +0.038 C  
DOCKED: BRANCH  12  13
DOCKED: ATOM     13  C   UNL     1     -37.324  -8.863  16.122 -0.02 +0.00    +0.038 C  
DOCKED: BRANCH  13  14
DOCKED: ATOM     14  C   UNL     1     -37.724 -10.123  16.887 -0.01 +0.00    +0.251 C  
DOCKED: BRANCH  14  15
DOCKED: ATOM     15  N   UNL     1     -37.790 -11.265  15.984 -0.04 +0.00    +0.141 N  
DOCKED: ATOM     16  C   UNL     1     -36.661 -12.168  16.209 -0.07 +0.00    +0.285 C  
DOCKED: ATOM     17  C   UNL     1     -39.055 -11.983  16.152 -0.03 +0.00    +0.285 C  
DOCKED: ENDBRANCH  14  15
DOCKED: ENDBRANCH  13  14
DOCKED: ENDBRANCH  12  13
DOCKED: ENDBRANCH   2  12
DOCKED: BRANCH   2  18
DOCKED: ATOM     18  C   UNL     1     -38.553  -7.455  12.901 -0.17 +0.00    +0.006 A  
DOCKED: ATOM     19  C   UNL     1     -37.636  -6.724  12.148 -0.13 +0.00    +0.001 A  
DOCKED: ATOM     20  C   UNL     1     -38.072  -5.651  11.369 -0.14 +0.00    +0.029 A  
DOCKED: ATOM     21  C   UNL     1     -39.424  -5.312  11.345 -0.12 +0.00    +0.140 A  
DOCKED: ATOM     22  C   UNL     1     -40.341  -6.044  12.098 -0.18 +0.00    +0.029 A  
DOCKED: ATOM     23  F   UNL     1     -39.843  -4.283  10.596 -0.03 -0.00    -0.204 F  
DOCKED: ATOM     24  C   UNL     1     -39.906  -7.116  12.878 -0.20 +0.00    +0.001 A  
DOCKED: ENDBRANCH   2  18
DOCKED: TORSDOF 5
DOCKED: TER
DOCKED: ENDMDL
________________________________________________________________________________


    FINAL DOCKED STATE:
    ________________________


Run:   434 / 512
Time taken for this run:   0.002s

DOCKED: MODEL        434
DOCKED: USER    Run = 434
DOCKED: USER
DOCKED: USER    Estimated Free Energy of Binding    =  -4.01 kcal/mol  [=(1)+(2)+(3)-(4)]
DOCKED: USER
DOCKED: USER    (1) Final Intermolecular Energy     =  -5.50 kcal/mol
DOCKED: USER        vdW + Hbond + desolv Energy     =  -5.50 kcal/mol
DOCKED: USER        Electrostatic Energy            =  +0.00 kcal/mol
DOCKED: USER        Moving Ligand-Fixed Receptor    =  -5.50 kcal/mol
DOCKED: USER        Moving Ligand-Moving Receptor   =  +0.00 kcal/mol
DOCKED: USER    (2) Final Total Internal Energy     =  -1.14 kcal/mol
DOCKED: USER    (3) Torsional Free Energy           =  +1.49 kcal/mol
DOCKED: USER    (4) Unbound System's Energy         =  -1.14 kcal/mol
DOCKED: USER
DOCKED: USER
DOCKED: REMARK  5 active torsions:
DOCKED: REMARK  status: ('A' for Active; 'I' for Inactive)
DOCKED: REMARK    1  A    between atoms: C_2  and  C_19 
DOCKED: REMARK    2  A    between atoms: C_2  and  C_11 
DOCKED: REMARK    3  A    between atoms: C_19  and  C_20 
DOCKED: REMARK    4  A    between atoms: C_20  and  C_21 
DOCKED: REMARK    5  A    between atoms: C_21  and  N_22 
DOCKED: USER                              x       y       z     vdW  Elec       q    Type
DOCKED: USER                           _______ _______ _______ _____ _____    ______ ____
DOCKED: ROOT
DOCKED: ATOM      1  O   UNL     1     -31.091  -0.553   4.011 -0.03 -0.00    -0.346 OA 
DOCKED: ATOM      2  C   UNL     1     -31.142  -0.171   2.599 -0.10 +0.00    +0.130 C  
DOCKED: ATOM      3  C   UNL     1     -32.528  -0.557   2.171 -0.13 +0.00    +0.004 A  
DOCKED: ATOM      4  C   UNL     1     -33.244  -1.016   3.268 -0.25 +0.00    +0.006 A  
DOCKED: ATOM      5  C   UNL     1     -32.399  -0.955   4.481 -0.13 +0.00    +0.169 C  
DOCKED: ATOM      6  C   UNL     1     -33.112  -0.496   0.914 -0.18 -0.00    -0.001 A  
DOCKED: ATOM      7  C   UNL     1     -34.559  -1.431   3.147 -0.31 +0.00    +0.008 A  
DOCKED: ATOM      8  C   UNL     1     -34.437  -0.915   0.775 -0.35 +0.00    +0.010 A  
DOCKED: ATOM      9  C   UNL     1     -35.156  -1.380   1.886 -0.40 +0.00    +0.068 A  
DOCKED: ATOM     10  N   UNL     1     -37.614  -2.146   1.594 -2.46 -0.00    -0.191 NA 
DOCKED: ATOM     11  C   UNL     1     -36.512  -1.803   1.725 -0.19 +0.00    +0.101 C  
DOCKED: ENDROOT
DOCKED: BRANCH   2  12
DOCKED: ATOM     12  C   UNL     1     -30.884   1.327   2.494 -0.16 +0.00    +0.038 C  
DOCKED: BRANCH  12  13
DOCKED: ATOM     13  C   UNL     1     -30.972   2.004   3.861 -0.14 +0.00    +0.038 C  
DOCKED: BRANCH  13  14
DOCKED: ATOM     14  C   UNL     1     -31.706   3.341   3.765 -0.11 +0.00    +0.251 C  
DOCKED: BRANCH  14  15
DOCKED: ATOM     15  N   UNL     1     -32.716   3.441   4.812 -0.15 +0.00    +0.141 N  
DOCKED: ATOM     16  C   UNL     1     -33.326   4.772   4.815 -0.09 +0.00    +0.285 C  
DOCKED: ATOM     17  C   UNL     1     -33.742   2.412   4.638 -0.23 +0.00    +0.285 C  
DOCKED: ENDBRANCH  14  15
DOCKED: ENDBRANCH  13  14
DOCKED: ENDBRANCH  12  13
DOCKED: ENDBRANCH   2  12
DOCKED: BRANCH   2  18
DOCKED: ATOM     18  C   UNL     1     -30.079  -0.950   1.898 -0.04 +0.00    +0.006 A  
DOCKED: ATOM     19  C   UNL     1     -30.417  -2.088   1.167 -0.03 +0.00    +0.001 A  
DOCKED: ATOM     20  C   UNL     1     -29.422  -2.816   0.513 -0.01 +0.00    +0.029 A  
DOCKED: ATOM     21  C   UNL     1     -28.093  -2.405   0.590 +0.00 +0.00    +0.140 A  
DOCKED: ATOM     22  C   UNL     1     -27.755  -1.266   1.321 -0.01 +0.00    +0.029 A  
DOCKED: ATOM     23  F   UNL     1     -27.138  -3.103  -0.040 +0.00 -0.00    -0.204 F  
DOCKED: ATOM     24  C   UNL     1     -28.749  -0.538   1.976 -0.02 +0.00    +0.001 A  
DOCKED: ENDBRANCH   2  18
DOCKED: TORSDOF 5
DOCKED: TER
DOCKED: ENDMDL
________________________________________________________________________________


    FINAL DOCKED STATE:
    ________________________


Run:   435 / 512
Time taken for this run:   0.002s

DOCKED: MODEL        435
DOCKED: USER    Run = 435
DOCKED: USER
DOCKED: USER    Estimated Free Energy of Binding    =  -3.72 kcal/mol  [=(1)+(2)+(3)-(4)]
DOCKED: USER
DOCKED: USER    (1) Final Intermolecular Energy     =  -5.21 kcal/mol
DOCKED: USER        vdW + Hbond + desolv Energy     =  -5.21 kcal/mol
DOCKED: USER        Electrostatic Energy            =  +0.00 kcal/mol
DOCKED: USER        Moving Ligand-Fixed Receptor    =  -5.21 kcal/mol
DOCKED: USER        Moving Ligand-Moving Receptor   =  +0.00 kcal/mol
DOCKED: USER    (2) Final Total Internal Energy     =  -1.18 kcal/mol
DOCKED: USER    (3) Torsional Free Energy           =  +1.49 kcal/mol
DOCKED: USER    (4) Unbound System's Energy         =  -1.18 kcal/mol
DOCKED: USER
DOCKED: USER
DOCKED: REMARK  5 active torsions:
DOCKED: REMARK  status: ('A' for Active; 'I' for Inactive)
DOCKED: REMARK    1  A    between atoms: C_2  and  C_19 
DOCKED: REMARK    2  A    between atoms: C_2  and  C_11 
DOCKED: REMARK    3  A    between atoms: C_19  and  C_20 
DOCKED: REMARK    4  A    between atoms: C_20  and  C_21 
DOCKED: REMARK    5  A    between atoms: C_21  and  N_22 
DOCKED: USER                              x       y       z     vdW  Elec       q    Type
DOCKED: USER                           _______ _______ _______ _____ _____    ______ ____
DOCKED: ROOT
DOCKED: ATOM      1  O   UNL     1     -30.428  -9.297   6.711 +0.01 -0.00    -0.346 OA 
DOCKED: ATOM      2  C   UNL     1     -30.505 -10.385   5.736 -0.09 +0.00    +0.130 C  
DOCKED: ATOM      3  C   UNL     1     -30.823 -11.593   6.570 -0.14 +0.00    +0.004 A  
DOCKED: ATOM      4  C   UNL     1     -31.020 -11.211   7.889 -0.16 +0.00    +0.006 A  
DOCKED: ATOM      5  C   UNL     1     -30.862  -9.744   8.016 -0.06 +0.00    +0.169 C  
DOCKED: ATOM      6  C   UNL     1     -30.939 -12.922   6.189 -0.13 -0.00    -0.001 A  
DOCKED: ATOM      7  C   UNL     1     -31.335 -12.137   8.869 -0.25 +0.00    +0.008 A  
DOCKED: ATOM      8  C   UNL     1     -31.252 -13.869   7.166 -0.29 +0.00    +0.010 A  
DOCKED: ATOM      9  C   UNL     1     -31.449 -13.478   8.499 -0.31 +0.00    +0.068 A  
DOCKED: ATOM     10  N   UNL     1     -32.032 -15.261  10.286 -2.68 -0.00    -0.191 NA 
DOCKED: ATOM     11  C   UNL     1     -31.770 -14.461   9.484 -0.36 +0.00    +0.101 C  
DOCKED: ENDROOT
DOCKED: BRANCH   2  12
DOCKED: ATOM     12  C   UNL     1     -31.600 -10.055   4.729 -0.05 +0.00    +0.038 C  
DOCKED: BRANCH  12  13
DOCKED: ATOM     13  C   UNL     1     -31.797  -8.546   4.596 -0.16 +0.00    +0.038 C  
DOCKED: BRANCH  13  14
DOCKED: ATOM     14  C   UNL     1     -33.119  -8.108   5.223 -0.15 +0.00    +0.251 C  
DOCKED: BRANCH  14  15
DOCKED: ATOM     15  N   UNL     1     -33.154  -6.658   5.372 -0.11 +0.00    +0.141 N  
DOCKED: ATOM     16  C   UNL     1     -31.840  -6.148   5.769 -0.02 +0.00    +0.285 C  
DOCKED: ATOM     17  C   UNL     1     -33.590  -6.022   4.128 -0.15 +0.00    +0.285 C  
DOCKED: ENDBRANCH  14  15
DOCKED: ENDBRANCH  13  14
DOCKED: ENDBRANCH  12  13
DOCKED: ENDBRANCH   2  12
DOCKED: BRANCH   2  18
DOCKED: ATOM     18  C   UNL     1     -29.171 -10.472   5.073 -0.04 +0.00    +0.006 A  
DOCKED: ATOM     19  C   UNL     1     -28.981 -11.343   4.001 -0.05 +0.00    +0.001 A  
DOCKED: ATOM     20  C   UNL     1     -27.733 -11.423   3.382 -0.01 +0.00    +0.029 A  
DOCKED: ATOM     21  C   UNL     1     -26.678 -10.632   3.835 +0.00 +0.00    +0.140 A  
DOCKED: ATOM     22  C   UNL     1     -26.869  -9.760   4.906 -0.00 +0.00    +0.029 A  
DOCKED: ATOM     23  F   UNL     1     -25.481 -10.707   3.239 +0.00 -0.00    -0.204 F  
DOCKED: ATOM     24  C   UNL     1     -28.117  -9.680   5.527 -0.00 +0.00    +0.001 A  
DOCKED: ENDBRANCH   2  18
DOCKED: TORSDOF 5
DOCKED: TER
DOCKED: ENDMDL
________________________________________________________________________________


    FINAL DOCKED STATE:
    ________________________


Run:   436 / 512
Time taken for this run:   0.002s

DOCKED: MODEL        436
DOCKED: USER    Run = 436
DOCKED: USER
DOCKED: USER    Estimated Free Energy of Binding    =  -3.58 kcal/mol  [=(1)+(2)+(3)-(4)]
DOCKED: USER
DOCKED: USER    (1) Final Intermolecular Energy     =  -5.07 kcal/mol
DOCKED: USER        vdW + Hbond + desolv Energy     =  -5.07 kcal/mol
DOCKED: USER        Electrostatic Energy            =  +0.00 kcal/mol
DOCKED: USER        Moving Ligand-Fixed Receptor    =  -5.07 kcal/mol
DOCKED: USER        Moving Ligand-Moving Receptor   =  +0.00 kcal/mol
DOCKED: USER    (2) Final Total Internal Energy     =  -1.55 kcal/mol
DOCKED: USER    (3) Torsional Free Energy           =  +1.49 kcal/mol
DOCKED: USER    (4) Unbound System's Energy         =  -1.55 kcal/mol
DOCKED: USER
DOCKED: USER
DOCKED: REMARK  5 active torsions:
DOCKED: REMARK  status: ('A' for Active; 'I' for Inactive)
DOCKED: REMARK    1  A    between atoms: C_2  and  C_19 
DOCKED: REMARK    2  A    between atoms: C_2  and  C_11 
DOCKED: REMARK    3  A    between atoms: C_19  and  C_20 
DOCKED: REMARK    4  A    between atoms: C_20  and  C_21 
DOCKED: REMARK    5  A    between atoms: C_21  and  N_22 
DOCKED: USER                              x       y       z     vdW  Elec       q    Type
DOCKED: USER                           _______ _______ _______ _____ _____    ______ ____
DOCKED: ROOT
DOCKED: ATOM      1  O   UNL     1     -31.270   0.206   3.831 -0.06 -0.00    -0.346 OA 
DOCKED: ATOM      2  C   UNL     1     -31.137  -0.140   2.416 -0.10 +0.00    +0.130 C  
DOCKED: ATOM      3  C   UNL     1     -32.502  -0.637   2.038 -0.18 +0.00    +0.004 A  
DOCKED: ATOM      4  C   UNL     1     -33.369  -0.484   3.111 -0.23 +0.00    +0.006 A  
DOCKED: ATOM      5  C   UNL     1     -32.651   0.127   4.253 -0.20 +0.00    +0.169 C  
DOCKED: ATOM      6  C   UNL     1     -32.945  -1.170   0.836 -0.23 -0.00    -0.001 A  
DOCKED: ATOM      7  C   UNL     1     -34.698  -0.861   3.023 -0.28 +0.00    +0.008 A  
DOCKED: ATOM      8  C   UNL     1     -34.282  -1.559   0.733 -0.35 +0.00    +0.010 A  
DOCKED: ATOM      9  C   UNL     1     -35.154  -1.405   1.822 -0.40 +0.00    +0.068 A  
DOCKED: ATOM     10  N   UNL     1     -37.630  -2.132   1.596 -2.48 -0.00    -0.191 NA 
DOCKED: ATOM     11  C   UNL     1     -36.519  -1.807   1.697 -0.17 +0.00    +0.101 C  
DOCKED: ENDROOT
DOCKED: BRANCH   2  12
DOCKED: ATOM     12  C   UNL     1     -30.728   1.112   1.649 -0.11 +0.00    +0.038 C  
DOCKED: BRANCH  12  13
DOCKED: ATOM     13  C   UNL     1     -30.691   2.337   2.561 -0.15 +0.00    +0.038 C  
DOCKED: BRANCH  13  14
DOCKED: ATOM     14  C   UNL     1     -29.256   2.699   2.937 -0.02 +0.00    +0.251 C  
DOCKED: BRANCH  14  15
DOCKED: ATOM     15  N   UNL     1     -28.560   1.531   3.465 -0.01 +0.00    +0.141 N  
DOCKED: ATOM     16  C   UNL     1     -27.148   1.555   3.080 +0.00 +0.00    +0.285 C  
DOCKED: ATOM     17  C   UNL     1     -28.688   1.469   4.922 -0.00 +0.00    +0.285 C  
DOCKED: ENDBRANCH  14  15
DOCKED: ENDBRANCH  13  14
DOCKED: ENDBRANCH  12  13
DOCKED: ENDBRANCH   2  12
DOCKED: BRANCH   2  18
DOCKED: ATOM     18  C   UNL     1     -30.087  -1.196   2.321 -0.04 +0.00    +0.006 A  
DOCKED: ATOM     19  C   UNL     1     -29.970  -2.154   3.328 -0.02 +0.00    +0.001 A  
DOCKED: ATOM     20  C   UNL     1     -28.988  -3.141   3.239 -0.01 +0.00    +0.029 A  
DOCKED: ATOM     21  C   UNL     1     -28.125  -3.169   2.144 -0.00 +0.00    +0.140 A  
DOCKED: ATOM     22  C   UNL     1     -28.243  -2.211   1.138 -0.00 +0.00    +0.029 A  
DOCKED: ATOM     23  F   UNL     1     -27.183  -4.118   2.058 +0.00 -0.00    -0.204 F  
DOCKED: ATOM     24  C   UNL     1     -29.225  -1.223   1.226 -0.02 +0.00    +0.001 A  
DOCKED: ENDBRANCH   2  18
DOCKED: TORSDOF 5
DOCKED: TER
DOCKED: ENDMDL
________________________________________________________________________________


    FINAL DOCKED STATE:
    ________________________


Run:   437 / 512
Time taken for this run:   0.002s

DOCKED: MODEL        437
DOCKED: USER    Run = 437
DOCKED: USER
DOCKED: USER    Estimated Free Energy of Binding    =  -6.25 kcal/mol  [=(1)+(2)+(3)-(4)]
DOCKED: USER
DOCKED: USER    (1) Final Intermolecular Energy     =  -7.74 kcal/mol
DOCKED: USER        vdW + Hbond + desolv Energy     =  -7.74 kcal/mol
DOCKED: USER        Electrostatic Energy            =  +0.00 kcal/mol
DOCKED: USER        Moving Ligand-Fixed Receptor    =  -7.74 kcal/mol
DOCKED: USER        Moving Ligand-Moving Receptor   =  +0.00 kcal/mol
DOCKED: USER    (2) Final Total Internal Energy     =  -1.26 kcal/mol
DOCKED: USER    (3) Torsional Free Energy           =  +1.49 kcal/mol
DOCKED: USER    (4) Unbound System's Energy         =  -1.26 kcal/mol
DOCKED: USER
DOCKED: USER
DOCKED: REMARK  5 active torsions:
DOCKED: REMARK  status: ('A' for Active; 'I' for Inactive)
DOCKED: REMARK    1  A    between atoms: C_2  and  C_19 
DOCKED: REMARK    2  A    between atoms: C_2  and  C_11 
DOCKED: REMARK    3  A    between atoms: C_19  and  C_20 
DOCKED: REMARK    4  A    between atoms: C_20  and  C_21 
DOCKED: REMARK    5  A    between atoms: C_21  and  N_22 
DOCKED: USER                              x       y       z     vdW  Elec       q    Type
DOCKED: USER                           _______ _______ _______ _____ _____    ______ ____
DOCKED: ROOT
DOCKED: ATOM      1  O   UNL     1     -36.389 -14.514  13.693 -0.34 -0.00    -0.346 OA 
DOCKED: ATOM      2  C   UNL     1     -37.372 -13.461  13.953 -0.28 +0.00    +0.130 C  
DOCKED: ATOM      3  C   UNL     1     -38.005 -13.222  12.612 -0.36 +0.00    +0.004 A  
DOCKED: ATOM      4  C   UNL     1     -37.508 -14.132  11.691 -0.38 +0.00    +0.006 A  
DOCKED: ATOM      5  C   UNL     1     -36.535 -15.033  12.350 -0.22 +0.00    +0.169 C  
DOCKED: ATOM      6  C   UNL     1     -38.953 -12.280  12.241 -0.31 -0.00    -0.001 A  
DOCKED: ATOM      7  C   UNL     1     -37.934 -14.132  10.374 -0.24 +0.00    +0.008 A  
DOCKED: ATOM      8  C   UNL     1     -39.391 -12.263  10.916 -0.29 +0.00    +0.010 A  
DOCKED: ATOM      9  C   UNL     1     -38.884 -13.185   9.987 -0.45 +0.00    +0.068 A  
DOCKED: ATOM     10  N   UNL     1     -39.721 -13.130   7.536 -3.11 -0.00    -0.191 NA 
DOCKED: ATOM     11  C   UNL     1     -39.345 -13.154   8.635 -0.33 +0.00    +0.101 C  
DOCKED: ENDROOT
DOCKED: BRANCH   2  12
DOCKED: ATOM     12  C   UNL     1     -38.362 -13.971  14.994 -0.29 +0.00    +0.038 C  
DOCKED: BRANCH  12  13
DOCKED: ATOM     13  C   UNL     1     -39.534 -13.008  15.166 -0.18 +0.00    +0.038 C  
DOCKED: BRANCH  13  14
DOCKED: ATOM     14  C   UNL     1     -39.304 -12.067  16.348 -0.04 +0.00    +0.251 C  
DOCKED: BRANCH  14  15
DOCKED: ATOM     15  N   UNL     1     -39.947 -10.782  16.106 -0.02 +0.00    +0.141 N  
DOCKED: ATOM     16  C   UNL     1     -39.157  -9.693  16.682 -0.00 +0.00    +0.285 C  
DOCKED: ATOM     17  C   UNL     1     -40.141 -10.564  14.671 -0.02 +0.00    +0.285 C  
DOCKED: ENDBRANCH  14  15
DOCKED: ENDBRANCH  13  14
DOCKED: ENDBRANCH  12  13
DOCKED: ENDBRANCH   2  12
DOCKED: BRANCH   2  18
DOCKED: ATOM     18  C   UNL     1     -36.619 -12.277  14.460 -0.22 +0.00    +0.006 A  
DOCKED: ATOM     19  C   UNL     1     -36.392 -11.185  13.624 -0.22 +0.00    +0.001 A  
DOCKED: ATOM     20  C   UNL     1     -35.687 -10.079  14.100 -0.14 +0.00    +0.029 A  
DOCKED: ATOM     21  C   UNL     1     -35.211 -10.066  15.410 -0.05 +0.00    +0.140 A  
DOCKED: ATOM     22  C   UNL     1     -35.439 -11.159  16.246 -0.08 +0.00    +0.029 A  
DOCKED: ATOM     23  F   UNL     1     -34.536  -9.003  15.867 -0.00 -0.00    -0.204 F  
DOCKED: ATOM     24  C   UNL     1     -36.143 -12.266  15.771 -0.14 +0.00    +0.001 A  
DOCKED: ENDBRANCH   2  18
DOCKED: TORSDOF 5
DOCKED: TER
DOCKED: ENDMDL
________________________________________________________________________________


    FINAL DOCKED STATE:
    ________________________


Run:   438 / 512
Time taken for this run:   0.002s

DOCKED: MODEL        438
DOCKED: USER    Run = 438
DOCKED: USER
DOCKED: USER    Estimated Free Energy of Binding    =  -4.54 kcal/mol  [=(1)+(2)+(3)-(4)]
DOCKED: USER
DOCKED: USER    (1) Final Intermolecular Energy     =  -6.03 kcal/mol
DOCKED: USER        vdW + Hbond + desolv Energy     =  -6.03 kcal/mol
DOCKED: USER        Electrostatic Energy            =  +0.00 kcal/mol
DOCKED: USER        Moving Ligand-Fixed Receptor    =  -6.03 kcal/mol
DOCKED: USER        Moving Ligand-Moving Receptor   =  +0.00 kcal/mol
DOCKED: USER    (2) Final Total Internal Energy     =  -1.27 kcal/mol
DOCKED: USER    (3) Torsional Free Energy           =  +1.49 kcal/mol
DOCKED: USER    (4) Unbound System's Energy         =  -1.27 kcal/mol
DOCKED: USER
DOCKED: USER
DOCKED: REMARK  5 active torsions:
DOCKED: REMARK  status: ('A' for Active; 'I' for Inactive)
DOCKED: REMARK    1  A    between atoms: C_2  and  C_19 
DOCKED: REMARK    2  A    between atoms: C_2  and  C_11 
DOCKED: REMARK    3  A    between atoms: C_19  and  C_20 
DOCKED: REMARK    4  A    between atoms: C_20  and  C_21 
DOCKED: REMARK    5  A    between atoms: C_21  and  N_22 
DOCKED: USER                              x       y       z     vdW  Elec       q    Type
DOCKED: USER                           _______ _______ _______ _____ _____    ______ ____
DOCKED: ROOT
DOCKED: ATOM      1  O   UNL     1     -35.782 -10.540  15.260 -0.03 -0.00    -0.346 OA 
DOCKED: ATOM      2  C   UNL     1     -36.274  -9.737  14.140 -0.12 +0.00    +0.130 C  
DOCKED: ATOM      3  C   UNL     1     -37.022 -10.725  13.291 -0.23 +0.00    +0.004 A  
DOCKED: ATOM      4  C   UNL     1     -37.050 -11.959  13.926 -0.23 +0.00    +0.006 A  
DOCKED: ATOM      5  C   UNL     1     -36.345 -11.872  15.224 -0.13 +0.00    +0.169 C  
DOCKED: ATOM      6  C   UNL     1     -37.638 -10.543  12.062 -0.27 -0.00    -0.001 A  
DOCKED: ATOM      7  C   UNL     1     -37.687 -13.048  13.356 -0.31 +0.00    +0.008 A  
DOCKED: ATOM      8  C   UNL     1     -38.280 -11.633  11.472 -0.34 +0.00    +0.010 A  
DOCKED: ATOM      9  C   UNL     1     -38.305 -12.879  12.116 -0.32 +0.00    +0.068 A  
DOCKED: ATOM     10  N   UNL     1     -39.510 -14.880  10.995 -2.37 -0.00    -0.191 NA 
DOCKED: ATOM     11  C   UNL     1     -38.969 -13.982  11.497 -0.36 +0.00    +0.101 C  
DOCKED: ENDROOT
DOCKED: BRANCH   2  12
DOCKED: ATOM     12  C   UNL     1     -37.168  -8.633  14.692 -0.06 +0.00    +0.038 C  
DOCKED: BRANCH  12  13
DOCKED: ATOM     13  C   UNL     1     -38.563  -9.160  15.025 -0.06 +0.00    +0.038 C  
DOCKED: BRANCH  13  14
DOCKED: ATOM     14  C   UNL     1     -39.643  -8.181  14.567 -0.04 +0.00    +0.251 C  
DOCKED: BRANCH  14  15
DOCKED: ATOM     15  N   UNL     1     -39.901  -8.341  13.141 -0.18 +0.00    +0.141 N  
DOCKED: ATOM     16  C   UNL     1     -41.329  -8.192  12.856 -0.15 +0.00    +0.285 C  
DOCKED: ATOM     17  C   UNL     1     -39.125  -7.373  12.365 -0.13 +0.00    +0.285 C  
DOCKED: ENDBRANCH  14  15
DOCKED: ENDBRANCH  13  14
DOCKED: ENDBRANCH  12  13
DOCKED: ENDBRANCH   2  12
DOCKED: BRANCH   2  18
DOCKED: ATOM     18  C   UNL     1     -35.078  -9.168  13.452 -0.13 +0.00    +0.006 A  
DOCKED: ATOM     19  C   UNL     1     -33.798  -9.514  13.883 -0.11 +0.00    +0.001 A  
DOCKED: ATOM     20  C   UNL     1     -32.680  -8.981  13.239 -0.09 +0.00    +0.029 A  
DOCKED: ATOM     21  C   UNL     1     -32.844  -8.105  12.167 -0.07 +0.00    +0.140 A  
DOCKED: ATOM     22  C   UNL     1     -34.125  -7.760  11.737 -0.12 +0.00    +0.029 A  
DOCKED: ATOM     23  F   UNL     1     -31.771  -7.595  11.549 -0.01 -0.00    -0.204 F  
DOCKED: ATOM     24  C   UNL     1     -35.244  -8.292  12.381 -0.16 +0.00    +0.001 A  
DOCKED: ENDBRANCH   2  18
DOCKED: TORSDOF 5
DOCKED: TER
DOCKED: ENDMDL
________________________________________________________________________________


    FINAL DOCKED STATE:
    ________________________


Run:   439 / 512
Time taken for this run:   0.002s

DOCKED: MODEL        439
DOCKED: USER    Run = 439
DOCKED: USER
DOCKED: USER    Estimated Free Energy of Binding    =  -3.77 kcal/mol  [=(1)+(2)+(3)-(4)]
DOCKED: USER
DOCKED: USER    (1) Final Intermolecular Energy     =  -5.26 kcal/mol
DOCKED: USER        vdW + Hbond + desolv Energy     =  -5.26 kcal/mol
DOCKED: USER        Electrostatic Energy            =  +0.00 kcal/mol
DOCKED: USER        Moving Ligand-Fixed Receptor    =  -5.26 kcal/mol
DOCKED: USER        Moving Ligand-Moving Receptor   =  +0.00 kcal/mol
DOCKED: USER    (2) Final Total Internal Energy     =  -1.45 kcal/mol
DOCKED: USER    (3) Torsional Free Energy           =  +1.49 kcal/mol
DOCKED: USER    (4) Unbound System's Energy         =  -1.45 kcal/mol
DOCKED: USER
DOCKED: USER
DOCKED: REMARK  5 active torsions:
DOCKED: REMARK  status: ('A' for Active; 'I' for Inactive)
DOCKED: REMARK    1  A    between atoms: C_2  and  C_19 
DOCKED: REMARK    2  A    between atoms: C_2  and  C_11 
DOCKED: REMARK    3  A    between atoms: C_19  and  C_20 
DOCKED: REMARK    4  A    between atoms: C_20  and  C_21 
DOCKED: REMARK    5  A    between atoms: C_21  and  N_22 
DOCKED: USER                              x       y       z     vdW  Elec       q    Type
DOCKED: USER                           _______ _______ _______ _____ _____    ______ ____
DOCKED: ROOT
DOCKED: ATOM      1  O   UNL     1     -33.600  -4.605   6.561 -0.04 -0.00    -0.346 OA 
DOCKED: ATOM      2  C   UNL     1     -35.005  -4.637   6.151 -0.23 +0.00    +0.130 C  
DOCKED: ATOM      3  C   UNL     1     -35.063  -3.684   4.992 -0.29 +0.00    +0.004 A  
DOCKED: ATOM      4  C   UNL     1     -33.786  -3.232   4.695 -0.19 +0.00    +0.006 A  
DOCKED: ATOM      5  C   UNL     1     -32.806  -3.854   5.613 -0.11 +0.00    +0.169 C  
DOCKED: ATOM      6  C   UNL     1     -36.158  -3.261   4.253 -0.30 -0.00    -0.001 A  
DOCKED: ATOM      7  C   UNL     1     -33.560  -2.342   3.658 -0.21 +0.00    +0.008 A  
DOCKED: ATOM      8  C   UNL     1     -35.947  -2.361   3.207 -0.40 +0.00    +0.010 A  
DOCKED: ATOM      9  C   UNL     1     -34.654  -1.904   2.911 -0.31 +0.00    +0.068 A  
DOCKED: ATOM     10  N   UNL     1     -34.297  -0.238   0.960 -0.78 -0.00    -0.191 NA 
DOCKED: ATOM     11  C   UNL     1     -34.457  -0.985   1.836 -0.38 +0.00    +0.101 C  
DOCKED: ENDROOT
DOCKED: BRANCH   2  12
DOCKED: ATOM     12  C   UNL     1     -35.361  -6.067   5.762 -0.11 +0.00    +0.038 C  
DOCKED: BRANCH  12  13
DOCKED: ATOM     13  C   UNL     1     -34.342  -7.064   6.310 -0.21 +0.00    +0.038 C  
DOCKED: BRANCH  13  14
DOCKED: ATOM     14  C   UNL     1     -34.604  -7.364   7.784 -0.13 +0.00    +0.251 C  
DOCKED: BRANCH  14  15
DOCKED: ATOM     15  N   UNL     1     -33.383  -7.191   8.562 -0.07 +0.00    +0.141 N  
DOCKED: ATOM     16  C   UNL     1     -33.526  -6.081   9.506 -0.04 +0.00    +0.285 C  
DOCKED: ATOM     17  C   UNL     1     -33.047  -8.424   9.276 -0.10 +0.00    +0.285 C  
DOCKED: ENDBRANCH  14  15
DOCKED: ENDBRANCH  13  14
DOCKED: ENDBRANCH  12  13
DOCKED: ENDBRANCH   2  12
DOCKED: BRANCH   2  18
DOCKED: ATOM     18  C   UNL     1     -35.811  -4.181   7.321 -0.27 +0.00    +0.006 A  
DOCKED: ATOM     19  C   UNL     1     -35.235  -3.353   8.283 -0.21 +0.00    +0.001 A  
DOCKED: ATOM     20  C   UNL     1     -35.990  -2.927   9.377 -0.21 +0.00    +0.029 A  
DOCKED: ATOM     21  C   UNL     1     -37.319  -3.328   9.506 -0.13 +0.00    +0.140 A  
DOCKED: ATOM     22  C   UNL     1     -37.894  -4.156   8.543 -0.25 +0.00    +0.029 A  
DOCKED: ATOM     23  F   UNL     1     -38.043  -2.918  10.555 +0.00 -0.00    -0.204 F  
DOCKED: ATOM     24  C   UNL     1     -37.140  -4.583   7.449 -0.27 +0.00    +0.001 A  
DOCKED: ENDBRANCH   2  18
DOCKED: TORSDOF 5
DOCKED: TER
DOCKED: ENDMDL
________________________________________________________________________________


    FINAL DOCKED STATE:
    ________________________


Run:   440 / 512
Time taken for this run:   0.002s

DOCKED: MODEL        440
DOCKED: USER    Run = 440
DOCKED: USER
DOCKED: USER    Estimated Free Energy of Binding    =  -4.14 kcal/mol  [=(1)+(2)+(3)-(4)]
DOCKED: USER
DOCKED: USER    (1) Final Intermolecular Energy     =  -5.63 kcal/mol
DOCKED: USER        vdW + Hbond + desolv Energy     =  -5.63 kcal/mol
DOCKED: USER        Electrostatic Energy            =  +0.00 kcal/mol
DOCKED: USER        Moving Ligand-Fixed Receptor    =  -5.63 kcal/mol
DOCKED: USER        Moving Ligand-Moving Receptor   =  +0.00 kcal/mol
DOCKED: USER    (2) Final Total Internal Energy     =  -1.51 kcal/mol
DOCKED: USER    (3) Torsional Free Energy           =  +1.49 kcal/mol
DOCKED: USER    (4) Unbound System's Energy         =  -1.51 kcal/mol
DOCKED: USER
DOCKED: USER
DOCKED: REMARK  5 active torsions:
DOCKED: REMARK  status: ('A' for Active; 'I' for Inactive)
DOCKED: REMARK    1  A    between atoms: C_2  and  C_19 
DOCKED: REMARK    2  A    between atoms: C_2  and  C_11 
DOCKED: REMARK    3  A    between atoms: C_19  and  C_20 
DOCKED: REMARK    4  A    between atoms: C_20  and  C_21 
DOCKED: REMARK    5  A    between atoms: C_21  and  N_22 
DOCKED: USER                              x       y       z     vdW  Elec       q    Type
DOCKED: USER                           _______ _______ _______ _____ _____    ______ ____
DOCKED: ROOT
DOCKED: ATOM      1  O   UNL     1     -35.524 -10.552  15.068 -0.04 -0.00    -0.346 OA 
DOCKED: ATOM      2  C   UNL     1     -36.156  -9.730  14.035 -0.13 +0.00    +0.130 C  
DOCKED: ATOM      3  C   UNL     1     -36.947 -10.716  13.225 -0.24 +0.00    +0.004 A  
DOCKED: ATOM      4  C   UNL     1     -36.864 -11.972  13.808 -0.25 +0.00    +0.006 A  
DOCKED: ATOM      5  C   UNL     1     -36.036 -11.904  15.033 -0.15 +0.00    +0.169 C  
DOCKED: ATOM      6  C   UNL     1     -37.689 -10.515  12.070 -0.27 -0.00    -0.001 A  
DOCKED: ATOM      7  C   UNL     1     -37.512 -13.066  13.259 -0.33 +0.00    +0.008 A  
DOCKED: ATOM      8  C   UNL     1     -38.345 -11.608  11.502 -0.34 +0.00    +0.010 A  
DOCKED: ATOM      9  C   UNL     1     -38.257 -12.877  12.094 -0.32 +0.00    +0.068 A  
DOCKED: ATOM     10  N   UNL     1     -39.491 -14.884  11.017 -2.39 -0.00    -0.191 NA 
DOCKED: ATOM     11  C   UNL     1     -38.937 -13.984  11.499 -0.35 +0.00    +0.101 C  
DOCKED: ENDROOT
DOCKED: BRANCH   2  12
DOCKED: ATOM     12  C   UNL     1     -37.032  -8.686  14.718 -0.06 +0.00    +0.038 C  
DOCKED: BRANCH  12  13
DOCKED: ATOM     13  C   UNL     1     -36.744  -8.611  16.216 -0.02 +0.00    +0.038 C  
DOCKED: BRANCH  13  14
DOCKED: ATOM     14  C   UNL     1     -35.627  -7.612  16.512 -0.00 +0.00    +0.251 C  
DOCKED: BRANCH  14  15
DOCKED: ATOM     15  N   UNL     1     -34.327  -8.269  16.439 -0.01 +0.00    +0.141 N  
DOCKED: ATOM     16  C   UNL     1     -33.265  -7.287  16.214 -0.00 +0.00    +0.285 C  
DOCKED: ATOM     17  C   UNL     1     -34.064  -9.030  17.661 -0.00 +0.00    +0.285 C  
DOCKED: ENDBRANCH  14  15
DOCKED: ENDBRANCH  13  14
DOCKED: ENDBRANCH  12  13
DOCKED: ENDBRANCH   2  12
DOCKED: BRANCH   2  18
DOCKED: ATOM     18  C   UNL     1     -35.057  -9.086  13.257 -0.14 +0.00    +0.006 A  
DOCKED: ATOM     19  C   UNL     1     -33.727  -9.328  13.599 -0.11 +0.00    +0.001 A  
DOCKED: ATOM     20  C   UNL     1     -32.701  -8.725  12.870 -0.09 +0.00    +0.029 A  
DOCKED: ATOM     21  C   UNL     1     -33.006  -7.882  11.803 -0.08 +0.00    +0.140 A  
DOCKED: ATOM     22  C   UNL     1     -34.336  -7.640  11.462 -0.13 +0.00    +0.029 A  
DOCKED: ATOM     23  F   UNL     1     -32.020  -7.305  11.103 -0.01 -0.00    -0.204 F  
DOCKED: ATOM     24  C   UNL     1     -35.364  -8.242  12.190 -0.16 +0.00    +0.001 A  
DOCKED: ENDBRANCH   2  18
DOCKED: TORSDOF 5
DOCKED: TER
DOCKED: ENDMDL
________________________________________________________________________________


    FINAL DOCKED STATE:
    ________________________


Run:   441 / 512
Time taken for this run:   0.002s

DOCKED: MODEL        441
DOCKED: USER    Run = 441
DOCKED: USER
DOCKED: USER    Estimated Free Energy of Binding    =  -4.82 kcal/mol  [=(1)+(2)+(3)-(4)]
DOCKED: USER
DOCKED: USER    (1) Final Intermolecular Energy     =  -6.31 kcal/mol
DOCKED: USER        vdW + Hbond + desolv Energy     =  -6.31 kcal/mol
DOCKED: USER        Electrostatic Energy            =  +0.00 kcal/mol
DOCKED: USER        Moving Ligand-Fixed Receptor    =  -6.31 kcal/mol
DOCKED: USER        Moving Ligand-Moving Receptor   =  +0.00 kcal/mol
DOCKED: USER    (2) Final Total Internal Energy     =  -1.14 kcal/mol
DOCKED: USER    (3) Torsional Free Energy           =  +1.49 kcal/mol
DOCKED: USER    (4) Unbound System's Energy         =  -1.14 kcal/mol
DOCKED: USER
DOCKED: USER
DOCKED: REMARK  5 active torsions:
DOCKED: REMARK  status: ('A' for Active; 'I' for Inactive)
DOCKED: REMARK    1  A    between atoms: C_2  and  C_19 
DOCKED: REMARK    2  A    between atoms: C_2  and  C_11 
DOCKED: REMARK    3  A    between atoms: C_19  and  C_20 
DOCKED: REMARK    4  A    between atoms: C_20  and  C_21 
DOCKED: REMARK    5  A    between atoms: C_21  and  N_22 
DOCKED: USER                              x       y       z     vdW  Elec       q    Type
DOCKED: USER                           _______ _______ _______ _____ _____    ______ ____
DOCKED: ROOT
DOCKED: ATOM      1  O   UNL     1     -38.689 -10.550  14.443 -0.01 -0.00    -0.346 OA 
DOCKED: ATOM      2  C   UNL     1     -37.643 -11.566  14.317 -0.14 +0.00    +0.130 C  
DOCKED: ATOM      3  C   UNL     1     -37.908 -12.190  12.977 -0.29 +0.00    +0.004 A  
DOCKED: ATOM      4  C   UNL     1     -38.944 -11.517  12.345 -0.29 +0.00    +0.006 A  
DOCKED: ATOM      5  C   UNL     1     -39.421 -10.410  13.203 -0.17 +0.00    +0.169 C  
DOCKED: ATOM      6  C   UNL     1     -37.275 -13.261  12.362 -0.39 -0.00    -0.001 A  
DOCKED: ATOM      7  C   UNL     1     -39.383 -11.890  11.086 -0.04 +0.00    +0.008 A  
DOCKED: ATOM      8  C   UNL     1     -37.710 -13.652  11.095 -0.29 +0.00    +0.010 A  
DOCKED: ATOM      9  C   UNL     1     -38.759 -12.970  10.460 -0.42 +0.00    +0.068 A  
DOCKED: ATOM     10  N   UNL     1     -39.538 -13.719   8.106 -2.24 -0.00    -0.191 NA 
DOCKED: ATOM     11  C   UNL     1     -39.189 -13.384   9.162 -0.50 +0.00    +0.101 C  
DOCKED: ENDROOT
DOCKED: BRANCH   2  12
DOCKED: ATOM     12  C   UNL     1     -36.287 -10.875  14.391 -0.18 +0.00    +0.038 C  
DOCKED: BRANCH  12  13
DOCKED: ATOM     13  C   UNL     1     -36.439  -9.357  14.467 -0.10 +0.00    +0.038 C  
DOCKED: BRANCH  13  14
DOCKED: ATOM     14  C   UNL     1     -35.237  -8.653  13.840 -0.08 +0.00    +0.251 C  
DOCKED: BRANCH  14  15
DOCKED: ATOM     15  N   UNL     1     -35.440  -8.484  12.406 -0.15 +0.00    +0.141 N  
DOCKED: ATOM     16  C   UNL     1     -36.281  -7.316  12.137 -0.09 +0.00    +0.285 C  
DOCKED: ATOM     17  C   UNL     1     -34.156  -8.354  11.715 -0.07 +0.00    +0.285 C  
DOCKED: ENDBRANCH  14  15
DOCKED: ENDBRANCH  13  14
DOCKED: ENDBRANCH  12  13
DOCKED: ENDBRANCH   2  12
DOCKED: BRANCH   2  18
DOCKED: ATOM     18  C   UNL     1     -37.824 -12.521  15.449 -0.15 +0.00    +0.006 A  
DOCKED: ATOM     19  C   UNL     1     -36.742 -12.846  16.266 -0.15 +0.00    +0.001 A  
DOCKED: ATOM     20  C   UNL     1     -36.912 -13.740  17.324 -0.21 +0.00    +0.029 A  
DOCKED: ATOM     21  C   UNL     1     -38.163 -14.305  17.564 -0.09 +0.00    +0.140 A  
DOCKED: ATOM     22  C   UNL     1     -39.245 -13.979  16.747 -0.06 +0.00    +0.029 A  
DOCKED: ATOM     23  F   UNL     1     -38.327 -15.161  18.581 -0.05 -0.00    -0.204 F  
DOCKED: ATOM     24  C   UNL     1     -39.076 -13.086  15.688 -0.16 +0.00    +0.001 A  
DOCKED: ENDBRANCH   2  18
DOCKED: TORSDOF 5
DOCKED: TER
DOCKED: ENDMDL
________________________________________________________________________________


    FINAL DOCKED STATE:
    ________________________


Run:   442 / 512
Time taken for this run:   0.002s

DOCKED: MODEL        442
DOCKED: USER    Run = 442
DOCKED: USER
DOCKED: USER    Estimated Free Energy of Binding    =  -4.19 kcal/mol  [=(1)+(2)+(3)-(4)]
DOCKED: USER
DOCKED: USER    (1) Final Intermolecular Energy     =  -5.68 kcal/mol
DOCKED: USER        vdW + Hbond + desolv Energy     =  -5.68 kcal/mol
DOCKED: USER        Electrostatic Energy            =  +0.00 kcal/mol
DOCKED: USER        Moving Ligand-Fixed Receptor    =  -5.68 kcal/mol
DOCKED: USER        Moving Ligand-Moving Receptor   =  +0.00 kcal/mol
DOCKED: USER    (2) Final Total Internal Energy     =  -0.80 kcal/mol
DOCKED: USER    (3) Torsional Free Energy           =  +1.49 kcal/mol
DOCKED: USER    (4) Unbound System's Energy         =  -0.80 kcal/mol
DOCKED: USER
DOCKED: USER
DOCKED: REMARK  5 active torsions:
DOCKED: REMARK  status: ('A' for Active; 'I' for Inactive)
DOCKED: REMARK    1  A    between atoms: C_2  and  C_19 
DOCKED: REMARK    2  A    between atoms: C_2  and  C_11 
DOCKED: REMARK    3  A    between atoms: C_19  and  C_20 
DOCKED: REMARK    4  A    between atoms: C_20  and  C_21 
DOCKED: REMARK    5  A    between atoms: C_21  and  N_22 
DOCKED: USER                              x       y       z     vdW  Elec       q    Type
DOCKED: USER                           _______ _______ _______ _____ _____    ______ ____
DOCKED: ROOT
DOCKED: ATOM      1  O   UNL     1     -35.334  -9.916  14.671 -0.05 -0.00    -0.346 OA 
DOCKED: ATOM      2  C   UNL     1     -36.416  -9.228  13.965 -0.11 +0.00    +0.130 C  
DOCKED: ATOM      3  C   UNL     1     -37.150 -10.334  13.264 -0.22 +0.00    +0.004 A  
DOCKED: ATOM      4  C   UNL     1     -36.604 -11.558  13.625 -0.24 +0.00    +0.006 A  
DOCKED: ATOM      5  C   UNL     1     -35.497 -11.351  14.585 -0.16 +0.00    +0.169 C  
DOCKED: ATOM      6  C   UNL     1     -38.221 -10.264  12.386 -0.27 -0.00    -0.001 A  
DOCKED: ATOM      7  C   UNL     1     -37.105 -12.747  13.121 -0.33 +0.00    +0.008 A  
DOCKED: ATOM      8  C   UNL     1     -38.734 -11.453  11.866 -0.31 +0.00    +0.010 A  
DOCKED: ATOM      9  C   UNL     1     -38.179 -12.688  12.232 -0.31 +0.00    +0.068 A  
DOCKED: ATOM     10  N   UNL     1     -39.158 -14.878  11.252 -2.56 -0.00    -0.191 NA 
DOCKED: ATOM     11  C   UNL     1     -38.719 -13.896  11.691 -0.32 +0.00    +0.101 C  
DOCKED: ENDROOT
DOCKED: BRANCH   2  12
DOCKED: ATOM     12  C   UNL     1     -37.277  -8.502  14.992 -0.05 +0.00    +0.038 C  
DOCKED: BRANCH  12  13
DOCKED: ATOM     13  C   UNL     1     -38.742  -8.462  14.561 -0.08 +0.00    +0.038 C  
DOCKED: BRANCH  13  14
DOCKED: ATOM     14  C   UNL     1     -39.062  -7.164  13.821 -0.07 +0.00    +0.251 C  
DOCKED: BRANCH  14  15
DOCKED: ATOM     15  N   UNL     1     -40.292  -6.576  14.337 -0.04 +0.00    +0.141 N  
DOCKED: ATOM     16  C   UNL     1     -41.441  -7.426  14.024 -0.05 +0.00    +0.285 C  
DOCKED: ATOM     17  C   UNL     1     -40.196  -6.363  15.782 -0.00 +0.00    +0.285 C  
DOCKED: ENDBRANCH  14  15
DOCKED: ENDBRANCH  13  14
DOCKED: ENDBRANCH  12  13
DOCKED: ENDBRANCH   2  12
DOCKED: BRANCH   2  18
DOCKED: ATOM     18  C   UNL     1     -35.777  -8.264  13.021 -0.14 +0.00    +0.006 A  
DOCKED: ATOM     19  C   UNL     1     -34.857  -8.719  12.078 -0.02 +0.00    +0.001 A  
DOCKED: ATOM     20  C   UNL     1     -34.260  -7.817  11.196 -0.14 +0.00    +0.029 A  
DOCKED: ATOM     21  C   UNL     1     -34.584  -6.463  11.259 -0.07 +0.00    +0.140 A  
DOCKED: ATOM     22  C   UNL     1     -35.505  -6.008  12.203 -0.07 +0.00    +0.029 A  
DOCKED: ATOM     23  F   UNL     1     -34.013  -5.598  10.411 -0.00 -0.00    -0.204 F  
DOCKED: ATOM     24  C   UNL     1     -36.102  -6.910  13.085 -0.08 +0.00    +0.001 A  
DOCKED: ENDBRANCH   2  18
DOCKED: TORSDOF 5
DOCKED: TER
DOCKED: ENDMDL
________________________________________________________________________________


    FINAL DOCKED STATE:
    ________________________


Run:   443 / 512
Time taken for this run:   0.002s

DOCKED: MODEL        443
DOCKED: USER    Run = 443
DOCKED: USER
DOCKED: USER    Estimated Free Energy of Binding    =  -4.04 kcal/mol  [=(1)+(2)+(3)-(4)]
DOCKED: USER
DOCKED: USER    (1) Final Intermolecular Energy     =  -5.53 kcal/mol
DOCKED: USER        vdW + Hbond + desolv Energy     =  -5.53 kcal/mol
DOCKED: USER        Electrostatic Energy            =  +0.00 kcal/mol
DOCKED: USER        Moving Ligand-Fixed Receptor    =  -5.53 kcal/mol
DOCKED: USER        Moving Ligand-Moving Receptor   =  +0.00 kcal/mol
DOCKED: USER    (2) Final Total Internal Energy     =  -1.08 kcal/mol
DOCKED: USER    (3) Torsional Free Energy           =  +1.49 kcal/mol
DOCKED: USER    (4) Unbound System's Energy         =  -1.08 kcal/mol
DOCKED: USER
DOCKED: USER
DOCKED: REMARK  5 active torsions:
DOCKED: REMARK  status: ('A' for Active; 'I' for Inactive)
DOCKED: REMARK    1  A    between atoms: C_2  and  C_19 
DOCKED: REMARK    2  A    between atoms: C_2  and  C_11 
DOCKED: REMARK    3  A    between atoms: C_19  and  C_20 
DOCKED: REMARK    4  A    between atoms: C_20  and  C_21 
DOCKED: REMARK    5  A    between atoms: C_21  and  N_22 
DOCKED: USER                              x       y       z     vdW  Elec       q    Type
DOCKED: USER                           _______ _______ _______ _____ _____    ______ ____
DOCKED: ROOT
DOCKED: ATOM      1  O   UNL     1     -36.194  -9.087  13.473 -0.07 -0.00    -0.346 OA 
DOCKED: ATOM      2  C   UNL     1     -35.708 -10.236  14.238 -0.14 +0.00    +0.130 C  
DOCKED: ATOM      3  C   UNL     1     -36.469 -11.397  13.667 -0.23 +0.00    +0.004 A  
DOCKED: ATOM      4  C   UNL     1     -37.240 -10.968  12.596 -0.27 +0.00    +0.006 A  
DOCKED: ATOM      5  C   UNL     1     -37.037  -9.518  12.379 -0.19 +0.00    +0.169 C  
DOCKED: ATOM      6  C   UNL     1     -36.470 -12.729  14.057 -0.27 -0.00    -0.001 A  
DOCKED: ATOM      7  C   UNL     1     -38.038 -11.848  11.885 -0.36 +0.00    +0.008 A  
DOCKED: ATOM      8  C   UNL     1     -37.273 -13.627  13.352 -0.37 +0.00    +0.010 A  
DOCKED: ATOM      9  C   UNL     1     -38.052 -13.189  12.271 -0.33 +0.00    +0.068 A  
DOCKED: ATOM     10  N   UNL     1     -39.527 -14.884  10.981 -2.37 -0.00    -0.191 NA 
DOCKED: ATOM     11  C   UNL     1     -38.866 -14.124  11.560 -0.28 +0.00    +0.101 C  
DOCKED: ENDROOT
DOCKED: BRANCH   2  12
DOCKED: ATOM     12  C   UNL     1     -34.202 -10.353  14.029 -0.11 +0.00    +0.038 C  
DOCKED: BRANCH  12  13
DOCKED: ATOM     13  C   UNL     1     -33.602  -9.030  13.557 -0.11 +0.00    +0.038 C  
DOCKED: BRANCH  13  14
DOCKED: ATOM     14  C   UNL     1     -32.444  -9.267  12.588 -0.06 +0.00    +0.251 C  
DOCKED: BRANCH  14  15
DOCKED: ATOM     15  N   UNL     1     -32.810  -8.833  11.245 -0.10 +0.00    +0.141 N  
DOCKED: ATOM     16  C   UNL     1     -32.997  -7.382  11.205 -0.06 +0.00    +0.285 C  
DOCKED: ATOM     17  C   UNL     1     -31.790  -9.240  10.277 -0.08 +0.00    +0.285 C  
DOCKED: ENDBRANCH  14  15
DOCKED: ENDBRANCH  13  14
DOCKED: ENDBRANCH  12  13
DOCKED: ENDBRANCH   2  12
DOCKED: BRANCH   2  18
DOCKED: ATOM     18  C   UNL     1     -36.033  -9.976  15.671 -0.05 +0.00    +0.006 A  
DOCKED: ATOM     19  C   UNL     1     -37.284 -10.329  16.177 -0.04 +0.00    +0.001 A  
DOCKED: ATOM     20  C   UNL     1     -37.587 -10.084  17.517 -0.01 +0.00    +0.029 A  
DOCKED: ATOM     21  C   UNL     1     -36.640  -9.488  18.349 -0.00 +0.00    +0.140 A  
DOCKED: ATOM     22  C   UNL     1     -35.389  -9.136  17.842 -0.01 +0.00    +0.029 A  
DOCKED: ATOM     23  F   UNL     1     -36.930  -9.256  19.635 +0.00 -0.00    -0.204 F  
DOCKED: ATOM     24  C   UNL     1     -35.085  -9.380  16.502 -0.02 +0.00    +0.001 A  
DOCKED: ENDBRANCH   2  18
DOCKED: TORSDOF 5
DOCKED: TER
DOCKED: ENDMDL
________________________________________________________________________________


    FINAL DOCKED STATE:
    ________________________


Run:   444 / 512
Time taken for this run:   0.002s

DOCKED: MODEL        444
DOCKED: USER    Run = 444
DOCKED: USER
DOCKED: USER    Estimated Free Energy of Binding    =  -3.17 kcal/mol  [=(1)+(2)+(3)-(4)]
DOCKED: USER
DOCKED: USER    (1) Final Intermolecular Energy     =  -4.66 kcal/mol
DOCKED: USER        vdW + Hbond + desolv Energy     =  -4.66 kcal/mol
DOCKED: USER        Electrostatic Energy            =  +0.00 kcal/mol
DOCKED: USER        Moving Ligand-Fixed Receptor    =  -4.66 kcal/mol
DOCKED: USER        Moving Ligand-Moving Receptor   =  +0.00 kcal/mol
DOCKED: USER    (2) Final Total Internal Energy     =  -1.37 kcal/mol
DOCKED: USER    (3) Torsional Free Energy           =  +1.49 kcal/mol
DOCKED: USER    (4) Unbound System's Energy         =  -1.37 kcal/mol
DOCKED: USER
DOCKED: USER
DOCKED: REMARK  5 active torsions:
DOCKED: REMARK  status: ('A' for Active; 'I' for Inactive)
DOCKED: REMARK    1  A    between atoms: C_2  and  C_19 
DOCKED: REMARK    2  A    between atoms: C_2  and  C_11 
DOCKED: REMARK    3  A    between atoms: C_19  and  C_20 
DOCKED: REMARK    4  A    between atoms: C_20  and  C_21 
DOCKED: REMARK    5  A    between atoms: C_21  and  N_22 
DOCKED: USER                              x       y       z     vdW  Elec       q    Type
DOCKED: USER                           _______ _______ _______ _____ _____    ______ ____
DOCKED: ROOT
DOCKED: ATOM      1  O   UNL     1     -37.535   6.329   4.535 -0.65 -0.00    -0.346 OA 
DOCKED: ATOM      2  C   UNL     1     -38.743   7.154   4.469 -0.10 +0.00    +0.130 C  
DOCKED: ATOM      3  C   UNL     1     -39.735   6.407   5.312 -0.14 +0.00    +0.004 A  
DOCKED: ATOM      4  C   UNL     1     -39.118   5.311   5.899 -0.15 +0.00    +0.006 A  
DOCKED: ATOM      5  C   UNL     1     -37.693   5.264   5.501 -0.12 +0.00    +0.169 C  
DOCKED: ATOM      6  C   UNL     1     -41.074   6.681   5.550 -0.11 -0.00    -0.001 A  
DOCKED: ATOM      7  C   UNL     1     -39.814   4.454   6.734 -0.22 +0.00    +0.008 A  
DOCKED: ATOM      8  C   UNL     1     -41.790   5.824   6.387 -0.14 +0.00    +0.010 A  
DOCKED: ATOM      9  C   UNL     1     -41.163   4.717   6.976 -0.19 +0.00    +0.068 A  
DOCKED: ATOM     10  N   UNL     1     -42.521   3.149   8.530 -1.69 -0.00    -0.191 NA 
DOCKED: ATOM     11  C   UNL     1     -41.912   3.852   7.832 -0.21 +0.00    +0.101 C  
DOCKED: ENDROOT
DOCKED: BRANCH   2  12
DOCKED: ATOM     12  C   UNL     1     -38.415   8.535   5.022 -0.04 +0.00    +0.038 C  
DOCKED: BRANCH  12  13
DOCKED: ATOM     13  C   UNL     1     -37.127   8.515   5.843 -0.03 +0.00    +0.038 C  
DOCKED: BRANCH  13  14
DOCKED: ATOM     14  C   UNL     1     -35.966   9.124   5.059 -0.00 +0.00    +0.251 C  
DOCKED: BRANCH  14  15
DOCKED: ATOM     15  N   UNL     1     -35.669   8.315   3.883 -0.05 +0.00    +0.141 N  
DOCKED: ATOM     16  C   UNL     1     -35.116   9.145   2.812 -0.02 +0.00    +0.285 C  
DOCKED: ATOM     17  C   UNL     1     -34.739   7.236   4.220 -0.05 +0.00    +0.285 C  
DOCKED: ENDBRANCH  14  15
DOCKED: ENDBRANCH  13  14
DOCKED: ENDBRANCH  12  13
DOCKED: ENDBRANCH   2  12
DOCKED: BRANCH   2  18
DOCKED: ATOM     18  C   UNL     1     -39.140   7.230   3.032 -0.14 +0.00    +0.006 A  
DOCKED: ATOM     19  C   UNL     1     -40.260   6.532   2.582 -0.10 +0.00    +0.001 A  
DOCKED: ATOM     20  C   UNL     1     -40.631   6.604   1.238 -0.18 +0.00    +0.029 A  
DOCKED: ATOM     21  C   UNL     1     -39.882   7.373   0.349 -0.09 +0.00    +0.140 A  
DOCKED: ATOM     22  C   UNL     1     -38.763   8.071   0.800 -0.11 +0.00    +0.029 A  
DOCKED: ATOM     23  F   UNL     1     -40.239   7.443  -0.940 -0.00 -0.00    -0.204 F  
DOCKED: ATOM     24  C   UNL     1     -38.391   7.999   2.144 -0.13 +0.00    +0.001 A  
DOCKED: ENDBRANCH   2  18
DOCKED: TORSDOF 5
DOCKED: TER
DOCKED: ENDMDL
________________________________________________________________________________


    FINAL DOCKED STATE:
    ________________________


Run:   445 / 512
Time taken for this run:   0.002s

DOCKED: MODEL        445
DOCKED: USER    Run = 445
DOCKED: USER
DOCKED: USER    Estimated Free Energy of Binding    =  -3.54 kcal/mol  [=(1)+(2)+(3)-(4)]
DOCKED: USER
DOCKED: USER    (1) Final Intermolecular Energy     =  -5.03 kcal/mol
DOCKED: USER        vdW + Hbond + desolv Energy     =  -5.03 kcal/mol
DOCKED: USER        Electrostatic Energy            =  +0.00 kcal/mol
DOCKED: USER        Moving Ligand-Fixed Receptor    =  -5.03 kcal/mol
DOCKED: USER        Moving Ligand-Moving Receptor   =  +0.00 kcal/mol
DOCKED: USER    (2) Final Total Internal Energy     =  -1.34 kcal/mol
DOCKED: USER    (3) Torsional Free Energy           =  +1.49 kcal/mol
DOCKED: USER    (4) Unbound System's Energy         =  -1.34 kcal/mol
DOCKED: USER
DOCKED: USER
DOCKED: REMARK  5 active torsions:
DOCKED: REMARK  status: ('A' for Active; 'I' for Inactive)
DOCKED: REMARK    1  A    between atoms: C_2  and  C_19 
DOCKED: REMARK    2  A    between atoms: C_2  and  C_11 
DOCKED: REMARK    3  A    between atoms: C_19  and  C_20 
DOCKED: REMARK    4  A    between atoms: C_20  and  C_21 
DOCKED: REMARK    5  A    between atoms: C_21  and  N_22 
DOCKED: USER                              x       y       z     vdW  Elec       q    Type
DOCKED: USER                           _______ _______ _______ _____ _____    ______ ____
DOCKED: ROOT
DOCKED: ATOM      1  O   UNL     1     -35.942  -9.040  14.219 -0.03 -0.00    -0.346 OA 
DOCKED: ATOM      2  C   UNL     1     -35.941 -10.128  15.198 -0.07 +0.00    +0.130 C  
DOCKED: ATOM      3  C   UNL     1     -36.723 -11.218  14.525 -0.16 +0.00    +0.004 A  
DOCKED: ATOM      4  C   UNL     1     -37.047 -10.831  13.232 -0.24 +0.00    +0.006 A  
DOCKED: ATOM      5  C   UNL     1     -36.500  -9.483  12.960 -0.18 +0.00    +0.169 C  
DOCKED: ATOM      6  C   UNL     1     -37.107 -12.458  15.013 -0.18 -0.00    -0.001 A  
DOCKED: ATOM      7  C   UNL     1     -37.766 -11.661  12.390 -0.32 +0.00    +0.008 A  
DOCKED: ATOM      8  C   UNL     1     -37.836 -13.306  14.177 -0.26 +0.00    +0.010 A  
DOCKED: ATOM      9  C   UNL     1     -38.163 -12.909  12.872 -0.27 +0.00    +0.068 A  
DOCKED: ATOM     10  N   UNL     1     -39.512 -14.509  11.344 -2.55 -0.00    -0.191 NA 
DOCKED: ATOM     11  C   UNL     1     -38.908 -13.791  12.030 -0.27 +0.00    +0.101 C  
DOCKED: ENDROOT
DOCKED: BRANCH   2  12
DOCKED: ATOM     12  C   UNL     1     -34.496 -10.522  15.481 -0.10 +0.00    +0.038 C  
DOCKED: BRANCH  12  13
DOCKED: ATOM     13  C   UNL     1     -33.707 -10.712  14.187 -0.13 +0.00    +0.038 C  
DOCKED: BRANCH  13  14
DOCKED: ATOM     14  C   UNL     1     -32.707  -9.577  13.982 -0.07 +0.00    +0.251 C  
DOCKED: BRANCH  14  15
DOCKED: ATOM     15  N   UNL     1     -33.281  -8.542  13.130 -0.08 +0.00    +0.141 N  
DOCKED: ATOM     16  C   UNL     1     -32.880  -7.212  13.591 -0.02 +0.00    +0.285 C  
DOCKED: ATOM     17  C   UNL     1     -32.879  -8.739  11.736 -0.04 +0.00    +0.285 C  
DOCKED: ENDBRANCH  14  15
DOCKED: ENDBRANCH  13  14
DOCKED: ENDBRANCH  12  13
DOCKED: ENDBRANCH   2  12
DOCKED: BRANCH   2  18
DOCKED: ATOM     18  C   UNL     1     -36.608  -9.608  16.428 -0.02 +0.00    +0.006 A  
DOCKED: ATOM     19  C   UNL     1     -35.896  -9.523  17.623 -0.01 +0.00    +0.001 A  
DOCKED: ATOM     20  C   UNL     1     -36.521  -9.037  18.773 -0.00 +0.00    +0.029 A  
DOCKED: ATOM     21  C   UNL     1     -37.856  -8.636  18.724 +0.00 +0.00    +0.140 A  
DOCKED: ATOM     22  C   UNL     1     -38.567  -8.721  17.527 -0.00 +0.00    +0.029 A  
DOCKED: ATOM     23  F   UNL     1     -38.455  -8.168  19.827 +0.00 -0.00    -0.204 F  
DOCKED: ATOM     24  C   UNL     1     -37.943  -9.207  16.378 -0.02 +0.00    +0.001 A  
DOCKED: ENDBRANCH   2  18
DOCKED: TORSDOF 5
DOCKED: TER
DOCKED: ENDMDL
________________________________________________________________________________


    FINAL DOCKED STATE:
    ________________________


Run:   446 / 512
Time taken for this run:   0.002s

DOCKED: MODEL        446
DOCKED: USER    Run = 446
DOCKED: USER
DOCKED: USER    Estimated Free Energy of Binding    =  -3.39 kcal/mol  [=(1)+(2)+(3)-(4)]
DOCKED: USER
DOCKED: USER    (1) Final Intermolecular Energy     =  -4.88 kcal/mol
DOCKED: USER        vdW + Hbond + desolv Energy     =  -4.88 kcal/mol
DOCKED: USER        Electrostatic Energy            =  +0.00 kcal/mol
DOCKED: USER        Moving Ligand-Fixed Receptor    =  -4.88 kcal/mol
DOCKED: USER        Moving Ligand-Moving Receptor   =  +0.00 kcal/mol
DOCKED: USER    (2) Final Total Internal Energy     =  -1.25 kcal/mol
DOCKED: USER    (3) Torsional Free Energy           =  +1.49 kcal/mol
DOCKED: USER    (4) Unbound System's Energy         =  -1.25 kcal/mol
DOCKED: USER
DOCKED: USER
DOCKED: REMARK  5 active torsions:
DOCKED: REMARK  status: ('A' for Active; 'I' for Inactive)
DOCKED: REMARK    1  A    between atoms: C_2  and  C_19 
DOCKED: REMARK    2  A    between atoms: C_2  and  C_11 
DOCKED: REMARK    3  A    between atoms: C_19  and  C_20 
DOCKED: REMARK    4  A    between atoms: C_20  and  C_21 
DOCKED: REMARK    5  A    between atoms: C_21  and  N_22 
DOCKED: USER                              x       y       z     vdW  Elec       q    Type
DOCKED: USER                           _______ _______ _______ _____ _____    ______ ____
DOCKED: ROOT
DOCKED: ATOM      1  O   UNL     1     -33.801  -0.358   2.116 -0.73 -0.00    -0.346 OA 
DOCKED: ATOM      2  C   UNL     1     -32.695  -0.576   3.050 -0.19 +0.00    +0.130 C  
DOCKED: ATOM      3  C   UNL     1     -33.149  -1.742   3.879 -0.19 +0.00    +0.004 A  
DOCKED: ATOM      4  C   UNL     1     -34.357  -2.220   3.392 -0.29 +0.00    +0.006 A  
DOCKED: ATOM      5  C   UNL     1     -34.774  -1.423   2.216 -0.35 +0.00    +0.169 C  
DOCKED: ATOM      6  C   UNL     1     -32.535  -2.340   4.971 -0.12 -0.00    -0.001 A  
DOCKED: ATOM      7  C   UNL     1     -34.993  -3.301   3.977 -0.32 +0.00    +0.008 A  
DOCKED: ATOM      8  C   UNL     1     -33.166  -3.429   5.574 -0.15 +0.00    +0.010 A  
DOCKED: ATOM      9  C   UNL     1     -34.389  -3.907   5.080 -0.22 +0.00    +0.068 A  
DOCKED: ATOM     10  N   UNL     1     -35.531  -5.933   6.221 -0.10 -0.00    -0.191 NA 
DOCKED: ATOM     11  C   UNL     1     -35.019  -5.024   5.709 -0.24 +0.00    +0.101 C  
DOCKED: ENDROOT
DOCKED: BRANCH   2  12
DOCKED: ATOM     12  C   UNL     1     -31.435  -0.875   2.245 -0.12 +0.00    +0.038 C  
DOCKED: BRANCH  12  13
DOCKED: ATOM     13  C   UNL     1     -31.520  -0.284   0.839 -0.18 +0.00    +0.038 C  
DOCKED: BRANCH  13  14
DOCKED: ATOM     14  C   UNL     1     -32.058  -1.310  -0.157 -0.09 +0.00    +0.251 C  
DOCKED: BRANCH  14  15
DOCKED: ATOM     15  N   UNL     1     -32.977  -0.674  -1.094 -0.16 +0.00    +0.141 N  
DOCKED: ATOM     16  C   UNL     1     -32.395  -0.628  -2.436 -0.09 +0.00    +0.285 C  
DOCKED: ATOM     17  C   UNL     1     -34.258  -1.381  -1.120 -0.16 +0.00    +0.285 C  
DOCKED: ENDBRANCH  14  15
DOCKED: ENDBRANCH  13  14
DOCKED: ENDBRANCH  12  13
DOCKED: ENDBRANCH   2  12
DOCKED: BRANCH   2  18
DOCKED: ATOM     18  C   UNL     1     -32.541   0.678   3.844 -0.22 +0.00    +0.006 A  
DOCKED: ATOM     19  C   UNL     1     -31.291   1.288   3.948 -0.15 +0.00    +0.001 A  
DOCKED: ATOM     20  C   UNL     1     -31.149   2.460   4.691 -0.11 +0.00    +0.029 A  
DOCKED: ATOM     21  C   UNL     1     -32.255   3.021   5.329 -0.14 +0.00    +0.140 A  
DOCKED: ATOM     22  C   UNL     1     -33.504   2.410   5.224 -0.32 +0.00    +0.029 A  
DOCKED: ATOM     23  F   UNL     1     -32.118   4.147   6.041 -0.00 -0.00    -0.204 F  
DOCKED: ATOM     24  C   UNL     1     -33.648   1.237   4.481 -0.25 +0.00    +0.001 A  
DOCKED: ENDBRANCH   2  18
DOCKED: TORSDOF 5
DOCKED: TER
DOCKED: ENDMDL
________________________________________________________________________________


    FINAL DOCKED STATE:
    ________________________


Run:   447 / 512
Time taken for this run:   0.002s

DOCKED: MODEL        447
DOCKED: USER    Run = 447
DOCKED: USER
DOCKED: USER    Estimated Free Energy of Binding    =  -4.90 kcal/mol  [=(1)+(2)+(3)-(4)]
DOCKED: USER
DOCKED: USER    (1) Final Intermolecular Energy     =  -6.39 kcal/mol
DOCKED: USER        vdW + Hbond + desolv Energy     =  -6.39 kcal/mol
DOCKED: USER        Electrostatic Energy            =  +0.00 kcal/mol
DOCKED: USER        Moving Ligand-Fixed Receptor    =  -6.39 kcal/mol
DOCKED: USER        Moving Ligand-Moving Receptor   =  +0.00 kcal/mol
DOCKED: USER    (2) Final Total Internal Energy     =  -1.29 kcal/mol
DOCKED: USER    (3) Torsional Free Energy           =  +1.49 kcal/mol
DOCKED: USER    (4) Unbound System's Energy         =  -1.29 kcal/mol
DOCKED: USER
DOCKED: USER
DOCKED: REMARK  5 active torsions:
DOCKED: REMARK  status: ('A' for Active; 'I' for Inactive)
DOCKED: REMARK    1  A    between atoms: C_2  and  C_19 
DOCKED: REMARK    2  A    between atoms: C_2  and  C_11 
DOCKED: REMARK    3  A    between atoms: C_19  and  C_20 
DOCKED: REMARK    4  A    between atoms: C_20  and  C_21 
DOCKED: REMARK    5  A    between atoms: C_21  and  N_22 
DOCKED: USER                              x       y       z     vdW  Elec       q    Type
DOCKED: USER                           _______ _______ _______ _____ _____    ______ ____
DOCKED: ROOT
DOCKED: ATOM      1  O   UNL     1     -38.203 -10.695  15.117 -0.01 -0.00    -0.346 OA 
DOCKED: ATOM      2  C   UNL     1     -37.409 -11.921  15.028 -0.12 +0.00    +0.130 C  
DOCKED: ATOM      3  C   UNL     1     -37.685 -12.428  13.643 -0.25 +0.00    +0.004 A  
DOCKED: ATOM      4  C   UNL     1     -38.479 -11.517  12.961 -0.25 +0.00    +0.006 A  
DOCKED: ATOM      5  C   UNL     1     -38.768 -10.354  13.830 -0.12 +0.00    +0.169 C  
DOCKED: ATOM      6  C   UNL     1     -37.259 -13.598  13.031 -0.39 -0.00    -0.001 A  
DOCKED: ATOM      7  C   UNL     1     -38.875 -11.742  11.654 -0.31 +0.00    +0.008 A  
DOCKED: ATOM      8  C   UNL     1     -37.654 -13.842  11.714 -0.43 +0.00    +0.010 A  
DOCKED: ATOM      9  C   UNL     1     -38.458 -12.918  11.029 -0.39 +0.00    +0.068 A  
DOCKED: ATOM     10  N   UNL     1     -39.169 -13.400   8.585 -1.94 -0.00    -0.191 NA 
DOCKED: ATOM     11  C   UNL     1     -38.850 -13.184   9.681 -0.52 +0.00    +0.101 C  
DOCKED: ENDROOT
DOCKED: BRANCH   2  12
DOCKED: ATOM     12  C   UNL     1     -35.944 -11.564  15.248 -0.16 +0.00    +0.038 C  
DOCKED: BRANCH  12  13
DOCKED: ATOM     13  C   UNL     1     -35.303 -11.029  13.969 -0.17 +0.00    +0.038 C  
DOCKED: BRANCH  13  14
DOCKED: ATOM     14  C   UNL     1     -35.405  -9.507  13.898 -0.10 +0.00    +0.251 C  
DOCKED: BRANCH  14  15
DOCKED: ATOM     15  N   UNL     1     -35.373  -9.060  12.510 -0.13 +0.00    +0.141 N  
DOCKED: ATOM     16  C   UNL     1     -36.632  -8.405  12.150 -0.05 +0.00    +0.285 C  
DOCKED: ATOM     17  C   UNL     1     -34.246  -8.153  12.286 -0.09 +0.00    +0.285 C  
DOCKED: ENDBRANCH  14  15
DOCKED: ENDBRANCH  13  14
DOCKED: ENDBRANCH  12  13
DOCKED: ENDBRANCH   2  12
DOCKED: BRANCH   2  18
DOCKED: ATOM     18  C   UNL     1     -37.905 -12.840  16.094 -0.16 +0.00    +0.006 A  
DOCKED: ATOM     19  C   UNL     1     -39.271 -12.932  16.355 -0.13 +0.00    +0.001 A  
DOCKED: ATOM     20  C   UNL     1     -39.733 -13.792  17.352 -0.14 +0.00    +0.029 A  
DOCKED: ATOM     21  C   UNL     1     -38.829 -14.559  18.086 -0.03 +0.00    +0.140 A  
DOCKED: ATOM     22  C   UNL     1     -37.462 -14.467  17.824 -0.24 +0.00    +0.029 A  
DOCKED: ATOM     23  F   UNL     1     -39.273 -15.385  19.041 -0.06 -0.00    -0.204 F  
DOCKED: ATOM     24  C   UNL     1     -36.999 -13.607  16.827 -0.20 +0.00    +0.001 A  
DOCKED: ENDBRANCH   2  18
DOCKED: TORSDOF 5
DOCKED: TER
DOCKED: ENDMDL
________________________________________________________________________________


    FINAL DOCKED STATE:
    ________________________


Run:   448 / 512
Time taken for this run:   0.002s

DOCKED: MODEL        448
DOCKED: USER    Run = 448
DOCKED: USER
DOCKED: USER    Estimated Free Energy of Binding    =  -3.17 kcal/mol  [=(1)+(2)+(3)-(4)]
DOCKED: USER
DOCKED: USER    (1) Final Intermolecular Energy     =  -4.66 kcal/mol
DOCKED: USER        vdW + Hbond + desolv Energy     =  -4.66 kcal/mol
DOCKED: USER        Electrostatic Energy            =  +0.00 kcal/mol
DOCKED: USER        Moving Ligand-Fixed Receptor    =  -4.66 kcal/mol
DOCKED: USER        Moving Ligand-Moving Receptor   =  +0.00 kcal/mol
DOCKED: USER    (2) Final Total Internal Energy     =  -1.50 kcal/mol
DOCKED: USER    (3) Torsional Free Energy           =  +1.49 kcal/mol
DOCKED: USER    (4) Unbound System's Energy         =  -1.50 kcal/mol
DOCKED: USER
DOCKED: USER
DOCKED: REMARK  5 active torsions:
DOCKED: REMARK  status: ('A' for Active; 'I' for Inactive)
DOCKED: REMARK    1  A    between atoms: C_2  and  C_19 
DOCKED: REMARK    2  A    between atoms: C_2  and  C_11 
DOCKED: REMARK    3  A    between atoms: C_19  and  C_20 
DOCKED: REMARK    4  A    between atoms: C_20  and  C_21 
DOCKED: REMARK    5  A    between atoms: C_21  and  N_22 
DOCKED: USER                              x       y       z     vdW  Elec       q    Type
DOCKED: USER                           _______ _______ _______ _____ _____    ______ ____
DOCKED: ROOT
DOCKED: ATOM      1  O   UNL     1     -31.368  -2.404   5.757 -0.06 -0.00    -0.346 OA 
DOCKED: ATOM      2  C   UNL     1     -32.051  -3.682   5.551 -0.09 +0.00    +0.130 C  
DOCKED: ATOM      3  C   UNL     1     -33.124  -3.359   4.553 -0.16 +0.00    +0.004 A  
DOCKED: ATOM      4  C   UNL     1     -32.997  -2.041   4.139 -0.16 +0.00    +0.006 A  
DOCKED: ATOM      5  C   UNL     1     -31.840  -1.412   4.816 -0.13 +0.00    +0.169 C  
DOCKED: ATOM      6  C   UNL     1     -34.126  -4.171   4.042 -0.24 -0.00    -0.001 A  
DOCKED: ATOM      7  C   UNL     1     -33.863  -1.490   3.211 -0.27 +0.00    +0.008 A  
DOCKED: ATOM      8  C   UNL     1     -35.011  -3.629   3.108 +0.27 +0.00    +0.010 A  
DOCKED: ATOM      9  C   UNL     1     -34.879  -2.295   2.694 -0.32 +0.00    +0.068 A  
DOCKED: ATOM     10  N   UNL     1     -36.534  -1.321   0.955 -2.38 -0.00    -0.191 NA 
DOCKED: ATOM     11  C   UNL     1     -35.792  -1.757   1.736 -0.44 +0.00    +0.101 C  
DOCKED: ENDROOT
DOCKED: BRANCH   2  12
DOCKED: ATOM     12  C   UNL     1     -31.037  -4.692   5.028 -0.03 +0.00    +0.038 C  
DOCKED: BRANCH  12  13
DOCKED: ATOM     13  C   UNL     1     -30.326  -4.172   3.780 -0.02 +0.00    +0.038 C  
DOCKED: BRANCH  13  14
DOCKED: ATOM     14  C   UNL     1     -30.809  -4.901   2.528 -0.01 +0.00    +0.251 C  
DOCKED: BRANCH  14  15
DOCKED: ATOM     15  N   UNL     1     -31.625  -4.014   1.708 -0.05 +0.00    +0.141 N  
DOCKED: ATOM     16  C   UNL     1     -30.780  -3.172   0.859 -0.00 +0.00    +0.285 C  
DOCKED: ATOM     17  C   UNL     1     -32.560  -4.785   0.887 -0.11 +0.00    +0.285 C  
DOCKED: ENDBRANCH  14  15
DOCKED: ENDBRANCH  13  14
DOCKED: ENDBRANCH  12  13
DOCKED: ENDBRANCH   2  12
DOCKED: BRANCH   2  18
DOCKED: ATOM     18  C   UNL     1     -32.596  -4.103   6.875 -0.12 +0.00    +0.006 A  
DOCKED: ATOM     19  C   UNL     1     -32.449  -5.422   7.302 -0.05 +0.00    +0.001 A  
DOCKED: ATOM     20  C   UNL     1     -32.959  -5.815   8.540 -0.05 +0.00    +0.029 A  
DOCKED: ATOM     21  C   UNL     1     -33.615  -4.888   9.349 -0.05 +0.00    +0.140 A  
DOCKED: ATOM     22  C   UNL     1     -33.762  -3.569   8.922 -0.14 +0.00    +0.029 A  
DOCKED: ATOM     23  F   UNL     1     -34.103  -5.265  10.538 -0.00 -0.00    -0.204 F  
DOCKED: ATOM     24  C   UNL     1     -33.252  -3.175   7.683 -0.03 +0.00    +0.001 A  
DOCKED: ENDBRANCH   2  18
DOCKED: TORSDOF 5
DOCKED: TER
DOCKED: ENDMDL
________________________________________________________________________________


    FINAL DOCKED STATE:
    ________________________


Run:   449 / 512
Time taken for this run:   0.002s

DOCKED: MODEL        449
DOCKED: USER    Run = 449
DOCKED: USER
DOCKED: USER    Estimated Free Energy of Binding    =  -3.74 kcal/mol  [=(1)+(2)+(3)-(4)]
DOCKED: USER
DOCKED: USER    (1) Final Intermolecular Energy     =  -5.23 kcal/mol
DOCKED: USER        vdW + Hbond + desolv Energy     =  -5.23 kcal/mol
DOCKED: USER        Electrostatic Energy            =  +0.00 kcal/mol
DOCKED: USER        Moving Ligand-Fixed Receptor    =  -5.23 kcal/mol
DOCKED: USER        Moving Ligand-Moving Receptor   =  +0.00 kcal/mol
DOCKED: USER    (2) Final Total Internal Energy     =  -1.27 kcal/mol
DOCKED: USER    (3) Torsional Free Energy           =  +1.49 kcal/mol
DOCKED: USER    (4) Unbound System's Energy         =  -1.27 kcal/mol
DOCKED: USER
DOCKED: USER
DOCKED: REMARK  5 active torsions:
DOCKED: REMARK  status: ('A' for Active; 'I' for Inactive)
DOCKED: REMARK    1  A    between atoms: C_2  and  C_19 
DOCKED: REMARK    2  A    between atoms: C_2  and  C_11 
DOCKED: REMARK    3  A    between atoms: C_19  and  C_20 
DOCKED: REMARK    4  A    between atoms: C_20  and  C_21 
DOCKED: REMARK    5  A    between atoms: C_21  and  N_22 
DOCKED: USER                              x       y       z     vdW  Elec       q    Type
DOCKED: USER                           _______ _______ _______ _____ _____    ______ ____
DOCKED: ROOT
DOCKED: ATOM      1  O   UNL     1     -31.145  -4.424   3.694 +0.01 -0.00    -0.346 OA 
DOCKED: ATOM      2  C   UNL     1     -31.111  -3.030   4.136 -0.04 +0.00    +0.130 C  
DOCKED: ATOM      3  C   UNL     1     -32.254  -2.392   3.401 -0.11 +0.00    +0.004 A  
DOCKED: ATOM      4  C   UNL     1     -32.949  -3.359   2.689 -0.15 +0.00    +0.006 A  
DOCKED: ATOM      5  C   UNL     1     -32.331  -4.686   2.909 -0.09 +0.00    +0.169 C  
DOCKED: ATOM      6  C   UNL     1     -32.655  -1.064   3.376 -0.20 -0.00    -0.001 A  
DOCKED: ATOM      7  C   UNL     1     -34.059  -3.034   1.927 -0.19 +0.00    +0.008 A  
DOCKED: ATOM      8  C   UNL     1     -33.769  -0.720   2.608 -0.28 +0.00    +0.010 A  
DOCKED: ATOM      9  C   UNL     1     -34.467  -1.700   1.888 -0.33 +0.00    +0.068 A  
DOCKED: ATOM     10  N   UNL     1     -36.535  -1.028   0.478 -2.56 -0.00    -0.191 NA 
DOCKED: ATOM     11  C   UNL     1     -35.607  -1.330   1.110 -0.41 +0.00    +0.101 C  
DOCKED: ENDROOT
DOCKED: BRANCH   2  12
DOCKED: ATOM     12  C   UNL     1     -31.286  -2.999   5.649 -0.10 +0.00    +0.038 C  
DOCKED: BRANCH  12  13
DOCKED: ATOM     13  C   UNL     1     -32.739  -3.252   6.047 -0.16 +0.00    +0.038 C  
DOCKED: BRANCH  13  14
DOCKED: ATOM     14  C   UNL     1     -33.088  -4.735   5.938 -0.08 +0.00    +0.251 C  
DOCKED: BRANCH  14  15
DOCKED: ATOM     15  N   UNL     1     -34.511  -4.902   5.668 -0.17 +0.00    +0.141 N  
DOCKED: ATOM     16  C   UNL     1     -34.948  -6.253   6.021 -0.15 +0.00    +0.285 C  
DOCKED: ATOM     17  C   UNL     1     -35.296  -3.907   6.401 -0.16 +0.00    +0.285 C  
DOCKED: ENDBRANCH  14  15
DOCKED: ENDBRANCH  13  14
DOCKED: ENDBRANCH  12  13
DOCKED: ENDBRANCH   2  12
DOCKED: BRANCH   2  18
DOCKED: ATOM     18  C   UNL     1     -29.783  -2.478   3.736 -0.02 +0.00    +0.006 A  
DOCKED: ATOM     19  C   UNL     1     -29.145  -1.541   4.548 -0.02 +0.00    +0.001 A  
DOCKED: ATOM     20  C   UNL     1     -27.904  -1.025   4.173 -0.01 +0.00    +0.029 A  
DOCKED: ATOM     21  C   UNL     1     -27.302  -1.447   2.988 +0.00 +0.00    +0.140 A  
DOCKED: ATOM     22  C   UNL     1     -27.941  -2.385   2.177 -0.00 +0.00    +0.029 A  
DOCKED: ATOM     23  F   UNL     1     -26.110  -0.954   2.629 +0.00 -0.00    -0.204 F  
DOCKED: ATOM     24  C   UNL     1     -29.183  -2.901   2.550 -0.01 +0.00    +0.001 A  
DOCKED: ENDBRANCH   2  18
DOCKED: TORSDOF 5
DOCKED: TER
DOCKED: ENDMDL
________________________________________________________________________________


    FINAL DOCKED STATE:
    ________________________


Run:   450 / 512
Time taken for this run:   0.002s

DOCKED: MODEL        450
DOCKED: USER    Run = 450
DOCKED: USER
DOCKED: USER    Estimated Free Energy of Binding    =  -4.38 kcal/mol  [=(1)+(2)+(3)-(4)]
DOCKED: USER
DOCKED: USER    (1) Final Intermolecular Energy     =  -5.87 kcal/mol
DOCKED: USER        vdW + Hbond + desolv Energy     =  -5.87 kcal/mol
DOCKED: USER        Electrostatic Energy            =  +0.00 kcal/mol
DOCKED: USER        Moving Ligand-Fixed Receptor    =  -5.87 kcal/mol
DOCKED: USER        Moving Ligand-Moving Receptor   =  +0.00 kcal/mol
DOCKED: USER    (2) Final Total Internal Energy     =  -1.30 kcal/mol
DOCKED: USER    (3) Torsional Free Energy           =  +1.49 kcal/mol
DOCKED: USER    (4) Unbound System's Energy         =  -1.30 kcal/mol
DOCKED: USER
DOCKED: USER
DOCKED: REMARK  5 active torsions:
DOCKED: REMARK  status: ('A' for Active; 'I' for Inactive)
DOCKED: REMARK    1  A    between atoms: C_2  and  C_19 
DOCKED: REMARK    2  A    between atoms: C_2  and  C_11 
DOCKED: REMARK    3  A    between atoms: C_19  and  C_20 
DOCKED: REMARK    4  A    between atoms: C_20  and  C_21 
DOCKED: REMARK    5  A    between atoms: C_21  and  N_22 
DOCKED: USER                              x       y       z     vdW  Elec       q    Type
DOCKED: USER                           _______ _______ _______ _____ _____    ______ ____
DOCKED: ROOT
DOCKED: ATOM      1  O   UNL     1     -36.803  -8.536  13.614 -0.04 -0.00    -0.346 OA 
DOCKED: ATOM      2  C   UNL     1     -38.260  -8.536  13.749 -0.12 +0.00    +0.130 C  
DOCKED: ATOM      3  C   UNL     1     -38.670  -9.883  13.229 -0.21 +0.00    +0.004 A  
DOCKED: ATOM      4  C   UNL     1     -37.540 -10.631  12.928 -0.26 +0.00    +0.006 A  
DOCKED: ATOM      5  C   UNL     1     -36.323  -9.847  13.234 -0.17 +0.00    +0.169 C  
DOCKED: ATOM      6  C   UNL     1     -39.940 -10.410  13.049 -0.21 -0.00    -0.001 A  
DOCKED: ATOM      7  C   UNL     1     -37.640 -11.920  12.434 -0.33 +0.00    +0.008 A  
DOCKED: ATOM      8  C   UNL     1     -40.058 -11.707  12.548 -0.24 +0.00    +0.010 A  
DOCKED: ATOM      9  C   UNL     1     -38.913 -12.459  12.242 -0.27 +0.00    +0.068 A  
DOCKED: ATOM     10  N   UNL     1     -39.167 -14.866  11.319 -2.59 -0.00    -0.191 NA 
DOCKED: ATOM     11  C   UNL     1     -39.053 -13.786  11.732 -0.36 +0.00    +0.101 C  
DOCKED: ENDROOT
DOCKED: BRANCH   2  12
DOCKED: ATOM     12  C   UNL     1     -38.608  -8.336  15.219 -0.04 +0.00    +0.038 C  
DOCKED: BRANCH  12  13
DOCKED: ATOM     13  C   UNL     1     -38.530  -9.650  15.994 -0.03 +0.00    +0.038 C  
DOCKED: BRANCH  13  14
DOCKED: ATOM     14  C   UNL     1     -39.830  -9.922  16.748 -0.00 +0.00    +0.251 C  
DOCKED: BRANCH  14  15
DOCKED: ATOM     15  N   UNL     1     -40.933  -9.190  16.137 -0.02 +0.00    +0.141 N  
DOCKED: ATOM     16  C   UNL     1     -42.060 -10.085  15.867 -0.00 +0.00    +0.285 C  
DOCKED: ATOM     17  C   UNL     1     -41.358  -8.085  16.997 +0.00 +0.00    +0.285 C  
DOCKED: ENDBRANCH  14  15
DOCKED: ENDBRANCH  13  14
DOCKED: ENDBRANCH  12  13
DOCKED: ENDBRANCH   2  12
DOCKED: BRANCH   2  18
DOCKED: ATOM     18  C   UNL     1     -38.775  -7.410  12.916 -0.18 +0.00    +0.006 A  
DOCKED: ATOM     19  C   UNL     1     -37.889  -6.634  12.170 -0.14 +0.00    +0.001 A  
DOCKED: ATOM     20  C   UNL     1     -38.372  -5.581  11.391 -0.15 +0.00    +0.029 A  
DOCKED: ATOM     21  C   UNL     1     -39.738  -5.307  11.360 -0.11 +0.00    +0.140 A  
DOCKED: ATOM     22  C   UNL     1     -40.624  -6.084  12.106 -0.17 +0.00    +0.029 A  
DOCKED: ATOM     23  F   UNL     1     -40.202  -4.297  10.611 -0.03 -0.00    -0.204 F  
DOCKED: ATOM     24  C   UNL     1     -40.142  -7.136  12.886 -0.21 +0.00    +0.001 A  
DOCKED: ENDBRANCH   2  18
DOCKED: TORSDOF 5
DOCKED: TER
DOCKED: ENDMDL
________________________________________________________________________________


    FINAL DOCKED STATE:
    ________________________


Run:   451 / 512
Time taken for this run:   0.002s

DOCKED: MODEL        451
DOCKED: USER    Run = 451
DOCKED: USER
DOCKED: USER    Estimated Free Energy of Binding    =  -3.68 kcal/mol  [=(1)+(2)+(3)-(4)]
DOCKED: USER
DOCKED: USER    (1) Final Intermolecular Energy     =  -5.17 kcal/mol
DOCKED: USER        vdW + Hbond + desolv Energy     =  -5.17 kcal/mol
DOCKED: USER        Electrostatic Energy            =  +0.00 kcal/mol
DOCKED: USER        Moving Ligand-Fixed Receptor    =  -5.17 kcal/mol
DOCKED: USER        Moving Ligand-Moving Receptor   =  +0.00 kcal/mol
DOCKED: USER    (2) Final Total Internal Energy     =  -1.20 kcal/mol
DOCKED: USER    (3) Torsional Free Energy           =  +1.49 kcal/mol
DOCKED: USER    (4) Unbound System's Energy         =  -1.20 kcal/mol
DOCKED: USER
DOCKED: USER
DOCKED: REMARK  5 active torsions:
DOCKED: REMARK  status: ('A' for Active; 'I' for Inactive)
DOCKED: REMARK    1  A    between atoms: C_2  and  C_19 
DOCKED: REMARK    2  A    between atoms: C_2  and  C_11 
DOCKED: REMARK    3  A    between atoms: C_19  and  C_20 
DOCKED: REMARK    4  A    between atoms: C_20  and  C_21 
DOCKED: REMARK    5  A    between atoms: C_21  and  N_22 
DOCKED: USER                              x       y       z     vdW  Elec       q    Type
DOCKED: USER                           _______ _______ _______ _____ _____    ______ ____
DOCKED: ROOT
DOCKED: ATOM      1  O   UNL     1     -36.085  -9.120  14.087 -0.04 -0.00    -0.346 OA 
DOCKED: ATOM      2  C   UNL     1     -37.519  -8.909  14.294 -0.08 +0.00    +0.130 C  
DOCKED: ATOM      3  C   UNL     1     -38.154 -10.119  13.674 -0.16 +0.00    +0.004 A  
DOCKED: ATOM      4  C   UNL     1     -37.168 -10.998  13.249 -0.24 +0.00    +0.006 A  
DOCKED: ATOM      5  C   UNL     1     -35.832 -10.445  13.565 -0.12 +0.00    +0.169 C  
DOCKED: ATOM      6  C   UNL     1     -39.498 -10.424  13.510 -0.18 -0.00    -0.001 A  
DOCKED: ATOM      7  C   UNL     1     -37.488 -12.202  12.645 -0.32 +0.00    +0.008 A  
DOCKED: ATOM      8  C   UNL     1     -39.836 -11.632  12.899 -0.21 +0.00    +0.010 A  
DOCKED: ATOM      9  C   UNL     1     -38.836 -12.517  12.469 -0.25 +0.00    +0.068 A  
DOCKED: ATOM     10  N   UNL     1     -39.498 -14.754  11.342 -2.55 -0.00    -0.191 NA 
DOCKED: ATOM     11  C   UNL     1     -39.201 -13.751  11.847 -0.35 +0.00    +0.101 C  
DOCKED: ENDROOT
DOCKED: BRANCH   2  12
DOCKED: ATOM     12  C   UNL     1     -37.779  -8.803  15.792 -0.03 +0.00    +0.038 C  
DOCKED: BRANCH  12  13
DOCKED: ATOM     13  C   UNL     1     -39.273  -8.684  16.090 -0.02 +0.00    +0.038 C  
DOCKED: BRANCH  13  14
DOCKED: ATOM     14  C   UNL     1     -39.542  -7.585  17.117 -0.00 +0.00    +0.251 C  
DOCKED: BRANCH  14  15
DOCKED: ATOM     15  N   UNL     1     -39.388  -6.271  16.505 -0.00 +0.00    +0.141 N  
DOCKED: ATOM     16  C   UNL     1     -40.695  -5.676  16.222 -0.00 +0.00    +0.285 C  
DOCKED: ATOM     17  C   UNL     1     -38.604  -5.388  17.371 +0.00 +0.00    +0.285 C  
DOCKED: ENDBRANCH  14  15
DOCKED: ENDBRANCH  13  14
DOCKED: ENDBRANCH  12  13
DOCKED: ENDBRANCH   2  12
DOCKED: BRANCH   2  18
DOCKED: ATOM     18  C   UNL     1     -37.878  -7.641  13.594 -0.11 +0.00    +0.006 A  
DOCKED: ATOM     19  C   UNL     1     -37.315  -6.434  14.006 -0.05 +0.00    +0.001 A  
DOCKED: ATOM     20  C   UNL     1     -37.652  -5.249  13.351 -0.04 +0.00    +0.029 A  
DOCKED: ATOM     21  C   UNL     1     -38.551  -5.272  12.286 -0.09 +0.00    +0.140 A  
DOCKED: ATOM     22  C   UNL     1     -39.113  -6.480  11.874 -0.12 +0.00    +0.029 A  
DOCKED: ATOM     23  F   UNL     1     -38.873  -4.135  11.656 -0.01 -0.00    -0.204 F  
DOCKED: ATOM     24  C   UNL     1     -38.777  -7.666  12.529 -0.20 +0.00    +0.001 A  
DOCKED: ENDBRANCH   2  18
DOCKED: TORSDOF 5
DOCKED: TER
DOCKED: ENDMDL
________________________________________________________________________________


    FINAL DOCKED STATE:
    ________________________


Run:   452 / 512
Time taken for this run:   0.002s

DOCKED: MODEL        452
DOCKED: USER    Run = 452
DOCKED: USER
DOCKED: USER    Estimated Free Energy of Binding    =  -4.02 kcal/mol  [=(1)+(2)+(3)-(4)]
DOCKED: USER
DOCKED: USER    (1) Final Intermolecular Energy     =  -5.51 kcal/mol
DOCKED: USER        vdW + Hbond + desolv Energy     =  -5.51 kcal/mol
DOCKED: USER        Electrostatic Energy            =  +0.00 kcal/mol
DOCKED: USER        Moving Ligand-Fixed Receptor    =  -5.51 kcal/mol
DOCKED: USER        Moving Ligand-Moving Receptor   =  +0.00 kcal/mol
DOCKED: USER    (2) Final Total Internal Energy     =  -1.35 kcal/mol
DOCKED: USER    (3) Torsional Free Energy           =  +1.49 kcal/mol
DOCKED: USER    (4) Unbound System's Energy         =  -1.35 kcal/mol
DOCKED: USER
DOCKED: USER
DOCKED: REMARK  5 active torsions:
DOCKED: REMARK  status: ('A' for Active; 'I' for Inactive)
DOCKED: REMARK    1  A    between atoms: C_2  and  C_19 
DOCKED: REMARK    2  A    between atoms: C_2  and  C_11 
DOCKED: REMARK    3  A    between atoms: C_19  and  C_20 
DOCKED: REMARK    4  A    between atoms: C_20  and  C_21 
DOCKED: REMARK    5  A    between atoms: C_21  and  N_22 
DOCKED: USER                              x       y       z     vdW  Elec       q    Type
DOCKED: USER                           _______ _______ _______ _____ _____    ______ ____
DOCKED: ROOT
DOCKED: ATOM      1  O   UNL     1     -34.746 -10.310  14.499 -0.07 -0.00    -0.346 OA 
DOCKED: ATOM      2  C   UNL     1     -35.917  -9.489  14.184 -0.11 +0.00    +0.130 C  
DOCKED: ATOM      3  C   UNL     1     -36.857 -10.447  13.511 -0.20 +0.00    +0.004 A  
DOCKED: ATOM      4  C   UNL     1     -36.319 -11.726  13.538 -0.23 +0.00    +0.006 A  
DOCKED: ATOM      5  C   UNL     1     -35.012 -11.707  14.232 -0.14 +0.00    +0.169 C  
DOCKED: ATOM      6  C   UNL     1     -38.094 -10.208  12.931 -0.25 -0.00    -0.001 A  
DOCKED: ATOM      7  C   UNL     1     -36.992 -12.803  12.987 -0.34 +0.00    +0.008 A  
DOCKED: ATOM      8  C   UNL     1     -38.783 -11.282  12.367 -0.28 +0.00    +0.010 A  
DOCKED: ATOM      9  C   UNL     1     -38.235 -12.573  12.395 -0.29 +0.00    +0.068 A  
DOCKED: ATOM     10  N   UNL     1     -39.544 -14.547  11.343 -2.56 -0.00    -0.191 NA 
DOCKED: ATOM     11  C   UNL     1     -38.957 -13.661  11.814 -0.36 +0.00    +0.101 C  
DOCKED: ENDROOT
DOCKED: BRANCH   2  12
DOCKED: ATOM     12  C   UNL     1     -36.475  -8.925  15.485 -0.04 +0.00    +0.038 C  
DOCKED: BRANCH  12  13
DOCKED: ATOM     13  C   UNL     1     -35.732  -9.482  16.698 -0.02 +0.00    +0.038 C  
DOCKED: BRANCH  13  14
DOCKED: ATOM     14  C   UNL     1     -36.684 -10.227  17.631 -0.01 +0.00    +0.251 C  
DOCKED: BRANCH  14  15
DOCKED: ATOM     15  N   UNL     1     -36.183 -11.569  17.900 -0.03 +0.00    +0.141 N  
DOCKED: ATOM     16  C   UNL     1     -36.744 -12.530  16.949 -0.07 +0.00    +0.285 C  
DOCKED: ATOM     17  C   UNL     1     -34.720 -11.595  17.844 -0.04 +0.00    +0.285 C  
DOCKED: ENDBRANCH  14  15
DOCKED: ENDBRANCH  13  14
DOCKED: ENDBRANCH  12  13
DOCKED: ENDBRANCH   2  12
DOCKED: BRANCH   2  18
DOCKED: ATOM     18  C   UNL     1     -35.452  -8.397  13.279 -0.13 +0.00    +0.006 A  
DOCKED: ATOM     19  C   UNL     1     -35.754  -7.069  13.578 -0.06 +0.00    +0.001 A  
DOCKED: ATOM     20  C   UNL     1     -35.320  -6.049  12.730 -0.05 +0.00    +0.029 A  
DOCKED: ATOM     21  C   UNL     1     -34.584  -6.358  11.587 -0.06 +0.00    +0.140 A  
DOCKED: ATOM     22  C   UNL     1     -34.283  -7.687  11.289 -0.13 +0.00    +0.029 A  
DOCKED: ATOM     23  F   UNL     1     -34.166  -5.379  10.775 -0.00 -0.00    -0.204 F  
DOCKED: ATOM     24  C   UNL     1     -34.717  -8.708  12.136 -0.04 +0.00    +0.001 A  
DOCKED: ENDBRANCH   2  18
DOCKED: TORSDOF 5
DOCKED: TER
DOCKED: ENDMDL
________________________________________________________________________________


    FINAL DOCKED STATE:
    ________________________


Run:   453 / 512
Time taken for this run:   0.002s

DOCKED: MODEL        453
DOCKED: USER    Run = 453
DOCKED: USER
DOCKED: USER    Estimated Free Energy of Binding    =  -4.52 kcal/mol  [=(1)+(2)+(3)-(4)]
DOCKED: USER
DOCKED: USER    (1) Final Intermolecular Energy     =  -6.01 kcal/mol
DOCKED: USER        vdW + Hbond + desolv Energy     =  -6.01 kcal/mol
DOCKED: USER        Electrostatic Energy            =  +0.00 kcal/mol
DOCKED: USER        Moving Ligand-Fixed Receptor    =  -6.01 kcal/mol
DOCKED: USER        Moving Ligand-Moving Receptor   =  +0.00 kcal/mol
DOCKED: USER    (2) Final Total Internal Energy     =  -1.33 kcal/mol
DOCKED: USER    (3) Torsional Free Energy           =  +1.49 kcal/mol
DOCKED: USER    (4) Unbound System's Energy         =  -1.33 kcal/mol
DOCKED: USER
DOCKED: USER
DOCKED: REMARK  5 active torsions:
DOCKED: REMARK  status: ('A' for Active; 'I' for Inactive)
DOCKED: REMARK    1  A    between atoms: C_2  and  C_19 
DOCKED: REMARK    2  A    between atoms: C_2  and  C_11 
DOCKED: REMARK    3  A    between atoms: C_19  and  C_20 
DOCKED: REMARK    4  A    between atoms: C_20  and  C_21 
DOCKED: REMARK    5  A    between atoms: C_21  and  N_22 
DOCKED: USER                              x       y       z     vdW  Elec       q    Type
DOCKED: USER                           _______ _______ _______ _____ _____    ______ ____
DOCKED: ROOT
DOCKED: ATOM      1  O   UNL     1     -35.240  -4.808   6.938 -0.08 -0.00    -0.346 OA 
DOCKED: ATOM      2  C   UNL     1     -33.946  -4.464   6.346 -0.16 +0.00    +0.130 C  
DOCKED: ATOM      3  C   UNL     1     -34.311  -3.757   5.073 -0.23 +0.00    +0.004 A  
DOCKED: ATOM      4  C   UNL     1     -35.689  -3.612   4.997 -0.29 +0.00    +0.006 A  
DOCKED: ATOM      5  C   UNL     1     -36.322  -4.192   6.203 -0.18 +0.00    +0.169 C  
DOCKED: ATOM      6  C   UNL     1     -33.488  -3.272   4.067 -0.20 -0.00    -0.001 A  
DOCKED: ATOM      7  C   UNL     1     -36.289  -2.985   3.919 -0.31 +0.00    +0.008 A  
DOCKED: ATOM      8  C   UNL     1     -34.078  -2.641   2.971 -0.26 +0.00    +0.010 A  
DOCKED: ATOM      9  C   UNL     1     -35.472  -2.498   2.898 -0.31 +0.00    +0.068 A  
DOCKED: ATOM     10  N   UNL     1     -36.536  -1.316   0.851 -2.50 -0.00    -0.191 NA 
DOCKED: ATOM     11  C   UNL     1     -36.059  -1.847   1.769 -0.36 +0.00    +0.101 C  
DOCKED: ENDROOT
DOCKED: BRANCH   2  12
DOCKED: ATOM     12  C   UNL     1     -33.190  -3.572   7.324 -0.16 +0.00    +0.038 C  
DOCKED: BRANCH  12  13
DOCKED: ATOM     13  C   UNL     1     -34.028  -3.270   8.565 -0.17 +0.00    +0.038 C  
DOCKED: BRANCH  13  14
DOCKED: ATOM     14  C   UNL     1     -33.359  -3.815   9.825 -0.08 +0.00    +0.251 C  
DOCKED: BRANCH  14  15
DOCKED: ATOM     15  N   UNL     1     -33.919  -5.115  10.175 -0.04 +0.00    +0.141 N  
DOCKED: ATOM     16  C   UNL     1     -33.187  -6.190   9.505 -0.03 +0.00    +0.285 C  
DOCKED: ATOM     17  C   UNL     1     -33.896  -5.313  11.626 -0.02 +0.00    +0.285 C  
DOCKED: ENDBRANCH  14  15
DOCKED: ENDBRANCH  13  14
DOCKED: ENDBRANCH  12  13
DOCKED: ENDBRANCH   2  12
DOCKED: BRANCH   2  18
DOCKED: ATOM     18  C   UNL     1     -33.218  -5.745   6.113 -0.10 +0.00    +0.006 A  
DOCKED: ATOM     19  C   UNL     1     -33.932  -6.931   5.943 -0.18 +0.00    +0.001 A  
DOCKED: ATOM     20  C   UNL     1     -33.250  -8.129   5.725 -0.19 +0.00    +0.029 A  
DOCKED: ATOM     21  C   UNL     1     -31.857  -8.139   5.676 -0.08 +0.00    +0.140 A  
DOCKED: ATOM     22  C   UNL     1     -31.144  -6.953   5.846 -0.02 +0.00    +0.029 A  
DOCKED: ATOM     23  F   UNL     1     -31.203  -9.289   5.465 -0.03 -0.00    -0.204 F  
DOCKED: ATOM     24  C   UNL     1     -31.825  -5.754   6.064 -0.03 +0.00    +0.001 A  
DOCKED: ENDBRANCH   2  18
DOCKED: TORSDOF 5
DOCKED: TER
DOCKED: ENDMDL
________________________________________________________________________________


    FINAL DOCKED STATE:
    ________________________


Run:   454 / 512
Time taken for this run:   0.002s

DOCKED: MODEL        454
DOCKED: USER    Run = 454
DOCKED: USER
DOCKED: USER    Estimated Free Energy of Binding    =  -4.34 kcal/mol  [=(1)+(2)+(3)-(4)]
DOCKED: USER
DOCKED: USER    (1) Final Intermolecular Energy     =  -5.83 kcal/mol
DOCKED: USER        vdW + Hbond + desolv Energy     =  -5.83 kcal/mol
DOCKED: USER        Electrostatic Energy            =  +0.00 kcal/mol
DOCKED: USER        Moving Ligand-Fixed Receptor    =  -5.83 kcal/mol
DOCKED: USER        Moving Ligand-Moving Receptor   =  +0.00 kcal/mol
DOCKED: USER    (2) Final Total Internal Energy     =  -1.31 kcal/mol
DOCKED: USER    (3) Torsional Free Energy           =  +1.49 kcal/mol
DOCKED: USER    (4) Unbound System's Energy         =  -1.31 kcal/mol
DOCKED: USER
DOCKED: USER
DOCKED: REMARK  5 active torsions:
DOCKED: REMARK  status: ('A' for Active; 'I' for Inactive)
DOCKED: REMARK    1  A    between atoms: C_2  and  C_19 
DOCKED: REMARK    2  A    between atoms: C_2  and  C_11 
DOCKED: REMARK    3  A    between atoms: C_19  and  C_20 
DOCKED: REMARK    4  A    between atoms: C_20  and  C_21 
DOCKED: REMARK    5  A    between atoms: C_21  and  N_22 
DOCKED: USER                              x       y       z     vdW  Elec       q    Type
DOCKED: USER                           _______ _______ _______ _____ _____    ______ ____
DOCKED: ROOT
DOCKED: ATOM      1  O   UNL     1     -36.401  -8.770  13.713 -0.04 -0.00    -0.346 OA 
DOCKED: ATOM      2  C   UNL     1     -37.858  -8.638  13.759 -0.12 +0.00    +0.130 C  
DOCKED: ATOM      3  C   UNL     1     -38.355  -9.948  13.219 -0.21 +0.00    +0.004 A  
DOCKED: ATOM      4  C   UNL     1     -37.280 -10.796  12.990 -0.26 +0.00    +0.006 A  
DOCKED: ATOM      5  C   UNL     1     -36.018 -10.121  13.368 -0.14 +0.00    +0.169 C  
DOCKED: ATOM      6  C   UNL     1     -39.654 -10.361  12.963 -0.22 -0.00    -0.001 A  
DOCKED: ATOM      7  C   UNL     1     -37.465 -12.076  12.496 -0.32 +0.00    +0.008 A  
DOCKED: ATOM      8  C   UNL     1     -39.857 -11.647  12.460 -0.24 +0.00    +0.010 A  
DOCKED: ATOM      9  C   UNL     1     -38.767 -12.500  12.229 -0.28 +0.00    +0.068 A  
DOCKED: ATOM     10  N   UNL     1     -39.179 -14.884  11.299 -2.59 -0.00    -0.191 NA 
DOCKED: ATOM     11  C   UNL     1     -38.994 -13.814  11.716 -0.35 +0.00    +0.101 C  
DOCKED: ENDROOT
DOCKED: BRANCH   2  12
DOCKED: ATOM     12  C   UNL     1     -38.276  -8.394  15.204 -0.04 +0.00    +0.038 C  
DOCKED: BRANCH  12  13
DOCKED: ATOM     13  C   UNL     1     -38.535  -9.709  15.938 -0.04 +0.00    +0.038 C  
DOCKED: BRANCH  13  14
DOCKED: ATOM     14  C   UNL     1     -37.451  -9.980  16.979 -0.01 +0.00    +0.251 C  
DOCKED: BRANCH  14  15
DOCKED: ATOM     15  N   UNL     1     -36.130  -9.737  16.411 -0.02 +0.00    +0.141 N  
DOCKED: ATOM     16  C   UNL     1     -35.407  -8.736  17.195 -0.00 +0.00    +0.285 C  
DOCKED: ATOM     17  C   UNL     1     -35.362 -10.981  16.343 -0.04 +0.00    +0.285 C  
DOCKED: ENDBRANCH  14  15
DOCKED: ENDBRANCH  13  14
DOCKED: ENDBRANCH  12  13
DOCKED: ENDBRANCH   2  12
DOCKED: BRANCH   2  18
DOCKED: ATOM     18  C   UNL     1     -38.219  -7.478  12.891 -0.17 +0.00    +0.006 A  
DOCKED: ATOM     19  C   UNL     1     -37.231  -6.826  12.155 -0.12 +0.00    +0.001 A  
DOCKED: ATOM     20  C   UNL     1     -37.569  -5.741  11.345 -0.11 +0.00    +0.029 A  
DOCKED: ATOM     21  C   UNL     1     -38.893  -5.311  11.272 -0.12 +0.00    +0.140 A  
DOCKED: ATOM     22  C   UNL     1     -39.881  -5.965  12.008 -0.17 +0.00    +0.029 A  
DOCKED: ATOM     23  F   UNL     1     -39.218  -4.271  10.492 -0.03 -0.00    -0.204 F  
DOCKED: ATOM     24  C   UNL     1     -39.543  -7.049  12.820 -0.20 +0.00    +0.001 A  
DOCKED: ENDBRANCH   2  18
DOCKED: TORSDOF 5
DOCKED: TER
DOCKED: ENDMDL
________________________________________________________________________________


    FINAL DOCKED STATE:
    ________________________


Run:   455 / 512
Time taken for this run:   0.002s

DOCKED: MODEL        455
DOCKED: USER    Run = 455
DOCKED: USER
DOCKED: USER    Estimated Free Energy of Binding    =  -5.26 kcal/mol  [=(1)+(2)+(3)-(4)]
DOCKED: USER
DOCKED: USER    (1) Final Intermolecular Energy     =  -6.75 kcal/mol
DOCKED: USER        vdW + Hbond + desolv Energy     =  -6.75 kcal/mol
DOCKED: USER        Electrostatic Energy            =  +0.00 kcal/mol
DOCKED: USER        Moving Ligand-Fixed Receptor    =  -6.75 kcal/mol
DOCKED: USER        Moving Ligand-Moving Receptor   =  +0.00 kcal/mol
DOCKED: USER    (2) Final Total Internal Energy     =  -1.43 kcal/mol
DOCKED: USER    (3) Torsional Free Energy           =  +1.49 kcal/mol
DOCKED: USER    (4) Unbound System's Energy         =  -1.43 kcal/mol
DOCKED: USER
DOCKED: USER
DOCKED: REMARK  5 active torsions:
DOCKED: REMARK  status: ('A' for Active; 'I' for Inactive)
DOCKED: REMARK    1  A    between atoms: C_2  and  C_19 
DOCKED: REMARK    2  A    between atoms: C_2  and  C_11 
DOCKED: REMARK    3  A    between atoms: C_19  and  C_20 
DOCKED: REMARK    4  A    between atoms: C_20  and  C_21 
DOCKED: REMARK    5  A    between atoms: C_21  and  N_22 
DOCKED: USER                              x       y       z     vdW  Elec       q    Type
DOCKED: USER                           _______ _______ _______ _____ _____    ______ ____
DOCKED: ROOT
DOCKED: ATOM      1  O   UNL     1     -36.811 -12.822  14.017 -0.12 -0.00    -0.346 OA 
DOCKED: ATOM      2  C   UNL     1     -38.218 -12.434  14.119 -0.17 +0.00    +0.130 C  
DOCKED: ATOM      3  C   UNL     1     -38.750 -12.640  12.730 -0.28 +0.00    +0.004 A  
DOCKED: ATOM      4  C   UNL     1     -37.764 -13.202  11.931 -0.40 +0.00    +0.006 A  
DOCKED: ATOM      5  C   UNL     1     -36.534 -13.414  12.727 -0.22 +0.00    +0.169 C  
DOCKED: ATOM      6  C   UNL     1     -40.009 -12.364  12.218 -0.28 -0.00    -0.001 A  
DOCKED: ATOM      7  C   UNL     1     -37.998 -13.501  10.600 -0.32 +0.00    +0.008 A  
DOCKED: ATOM      8  C   UNL     1     -40.260 -12.656  10.876 -0.32 +0.00    +0.010 A  
DOCKED: ATOM      9  C   UNL     1     -39.260 -13.222  10.072 -0.43 +0.00    +0.068 A  
DOCKED: ATOM     10  N   UNL     1     -39.760 -13.756   7.586 -2.77 -0.00    -0.191 NA 
DOCKED: ATOM     11  C   UNL     1     -39.535 -13.516   8.701 -0.32 +0.00    +0.101 C  
DOCKED: ENDROOT
DOCKED: BRANCH   2  12
DOCKED: ATOM     12  C   UNL     1     -38.892 -13.329  15.152 -0.22 +0.00    +0.038 C  
DOCKED: BRANCH  12  13
DOCKED: ATOM     13  C   UNL     1     -37.867 -14.153  15.928 -0.25 +0.00    +0.038 C  
DOCKED: BRANCH  13  14
DOCKED: ATOM     14  C   UNL     1     -38.096 -14.038  17.434 -0.13 +0.00    +0.251 C  
DOCKED: BRANCH  14  15
DOCKED: ATOM     15  N   UNL     1     -37.352 -12.906  17.975 -0.08 +0.00    +0.141 N  
DOCKED: ATOM     16  C   UNL     1     -36.130 -12.676  17.204 -0.08 +0.00    +0.285 C  
DOCKED: ATOM     17  C   UNL     1     -38.182 -11.700  17.983 -0.01 +0.00    +0.285 C  
DOCKED: ENDBRANCH  14  15
DOCKED: ENDBRANCH  13  14
DOCKED: ENDBRANCH  12  13
DOCKED: ENDBRANCH   2  12
DOCKED: BRANCH   2  18
DOCKED: ATOM     18  C   UNL     1     -38.247 -11.004  14.546 -0.10 +0.00    +0.006 A  
DOCKED: ATOM     19  C   UNL     1     -37.062 -10.271  14.606 -0.11 +0.00    +0.001 A  
DOCKED: ATOM     20  C   UNL     1     -37.090  -8.934  15.005 -0.05 +0.00    +0.029 A  
DOCKED: ATOM     21  C   UNL     1     -38.302  -8.333  15.343 -0.02 +0.00    +0.140 A  
DOCKED: ATOM     22  C   UNL     1     -39.486  -9.066  15.283 -0.04 +0.00    +0.029 A  
DOCKED: ATOM     23  F   UNL     1     -38.328  -7.049  15.725 +0.00 -0.00    -0.204 F  
DOCKED: ATOM     24  C   UNL     1     -39.459 -10.404  14.884 -0.07 +0.00    +0.001 A  
DOCKED: ENDBRANCH   2  18
DOCKED: TORSDOF 5
DOCKED: TER
DOCKED: ENDMDL
________________________________________________________________________________


    FINAL DOCKED STATE:
    ________________________


Run:   456 / 512
Time taken for this run:   0.002s

DOCKED: MODEL        456
DOCKED: USER    Run = 456
DOCKED: USER
DOCKED: USER    Estimated Free Energy of Binding    =  -4.21 kcal/mol  [=(1)+(2)+(3)-(4)]
DOCKED: USER
DOCKED: USER    (1) Final Intermolecular Energy     =  -5.70 kcal/mol
DOCKED: USER        vdW + Hbond + desolv Energy     =  -5.70 kcal/mol
DOCKED: USER        Electrostatic Energy            =  +0.00 kcal/mol
DOCKED: USER        Moving Ligand-Fixed Receptor    =  -5.70 kcal/mol
DOCKED: USER        Moving Ligand-Moving Receptor   =  +0.00 kcal/mol
DOCKED: USER    (2) Final Total Internal Energy     =  -1.42 kcal/mol
DOCKED: USER    (3) Torsional Free Energy           =  +1.49 kcal/mol
DOCKED: USER    (4) Unbound System's Energy         =  -1.42 kcal/mol
DOCKED: USER
DOCKED: USER
DOCKED: REMARK  5 active torsions:
DOCKED: REMARK  status: ('A' for Active; 'I' for Inactive)
DOCKED: REMARK    1  A    between atoms: C_2  and  C_19 
DOCKED: REMARK    2  A    between atoms: C_2  and  C_11 
DOCKED: REMARK    3  A    between atoms: C_19  and  C_20 
DOCKED: REMARK    4  A    between atoms: C_20  and  C_21 
DOCKED: REMARK    5  A    between atoms: C_21  and  N_22 
DOCKED: USER                              x       y       z     vdW  Elec       q    Type
DOCKED: USER                           _______ _______ _______ _____ _____    ______ ____
DOCKED: ROOT
DOCKED: ATOM      1  O   UNL     1     -36.488  -8.797  13.938 -0.03 -0.00    -0.346 OA 
DOCKED: ATOM      2  C   UNL     1     -37.931  -8.610  13.783 -0.12 +0.00    +0.130 C  
DOCKED: ATOM      3  C   UNL     1     -38.404  -9.916  13.215 -0.21 +0.00    +0.004 A  
DOCKED: ATOM      4  C   UNL     1     -37.344 -10.810  13.154 -0.24 +0.00    +0.006 A  
DOCKED: ATOM      5  C   UNL     1     -36.117 -10.172  13.682 -0.15 +0.00    +0.169 C  
DOCKED: ATOM      6  C   UNL     1     -39.673 -10.288  12.796 -0.22 -0.00    -0.001 A  
DOCKED: ATOM      7  C   UNL     1     -37.513 -12.097  12.672 -0.31 +0.00    +0.008 A  
DOCKED: ATOM      8  C   UNL     1     -39.859 -11.581  12.303 -0.24 +0.00    +0.010 A  
DOCKED: ATOM      9  C   UNL     1     -38.784 -12.481  12.242 -0.27 +0.00    +0.068 A  
DOCKED: ATOM     10  N   UNL     1     -39.165 -14.874  11.327 -2.60 -0.00    -0.191 NA 
DOCKED: ATOM     11  C   UNL     1     -38.994 -13.800  11.737 -0.35 +0.00    +0.101 C  
DOCKED: ENDROOT
DOCKED: BRANCH   2  12
DOCKED: ATOM     12  C   UNL     1     -38.528  -8.307  15.152 -0.04 +0.00    +0.038 C  
DOCKED: BRANCH  12  13
DOCKED: ATOM     13  C   UNL     1     -37.463  -7.807  16.126 -0.01 +0.00    +0.038 C  
DOCKED: BRANCH  13  14
DOCKED: ATOM     14  C   UNL     1     -37.251  -6.301  15.982 -0.00 +0.00    +0.251 C  
DOCKED: BRANCH  14  15
DOCKED: ATOM     15  N   UNL     1     -35.836  -5.973  16.118 -0.00 +0.00    +0.141 N  
DOCKED: ATOM     16  C   UNL     1     -35.235  -6.727  17.219 -0.00 +0.00    +0.285 C  
DOCKED: ATOM     17  C   UNL     1     -35.122  -6.242  14.869 -0.00 +0.00    +0.285 C  
DOCKED: ENDBRANCH  14  15
DOCKED: ENDBRANCH  13  14
DOCKED: ENDBRANCH  12  13
DOCKED: ENDBRANCH   2  12
DOCKED: BRANCH   2  18
DOCKED: ATOM     18  C   UNL     1     -38.124  -7.464  12.846 -0.17 +0.00    +0.006 A  
DOCKED: ATOM     19  C   UNL     1     -37.023  -6.886  12.216 -0.12 +0.00    +0.001 A  
DOCKED: ATOM     20  C   UNL     1     -37.205  -5.815  11.340 -0.10 +0.00    +0.029 A  
DOCKED: ATOM     21  C   UNL     1     -38.486  -5.324  11.096 -0.12 +0.00    +0.140 A  
DOCKED: ATOM     22  C   UNL     1     -39.587  -5.903  11.726 -0.15 +0.00    +0.029 A  
DOCKED: ATOM     23  F   UNL     1     -38.661  -4.298  10.254 -0.03 -0.00    -0.204 F  
DOCKED: ATOM     24  C   UNL     1     -39.406  -6.974  12.603 -0.20 +0.00    +0.001 A  
DOCKED: ENDBRANCH   2  18
DOCKED: TORSDOF 5
DOCKED: TER
DOCKED: ENDMDL
________________________________________________________________________________


    FINAL DOCKED STATE:
    ________________________


Run:   457 / 512
Time taken for this run:   0.002s

DOCKED: MODEL        457
DOCKED: USER    Run = 457
DOCKED: USER
DOCKED: USER    Estimated Free Energy of Binding    =  -4.49 kcal/mol  [=(1)+(2)+(3)-(4)]
DOCKED: USER
DOCKED: USER    (1) Final Intermolecular Energy     =  -5.99 kcal/mol
DOCKED: USER        vdW + Hbond + desolv Energy     =  -5.99 kcal/mol
DOCKED: USER        Electrostatic Energy            =  +0.00 kcal/mol
DOCKED: USER        Moving Ligand-Fixed Receptor    =  -5.99 kcal/mol
DOCKED: USER        Moving Ligand-Moving Receptor   =  +0.00 kcal/mol
DOCKED: USER    (2) Final Total Internal Energy     =  -1.38 kcal/mol
DOCKED: USER    (3) Torsional Free Energy           =  +1.49 kcal/mol
DOCKED: USER    (4) Unbound System's Energy         =  -1.38 kcal/mol
DOCKED: USER
DOCKED: USER
DOCKED: REMARK  5 active torsions:
DOCKED: REMARK  status: ('A' for Active; 'I' for Inactive)
DOCKED: REMARK    1  A    between atoms: C_2  and  C_19 
DOCKED: REMARK    2  A    between atoms: C_2  and  C_11 
DOCKED: REMARK    3  A    between atoms: C_19  and  C_20 
DOCKED: REMARK    4  A    between atoms: C_20  and  C_21 
DOCKED: REMARK    5  A    between atoms: C_21  and  N_22 
DOCKED: USER                              x       y       z     vdW  Elec       q    Type
DOCKED: USER                           _______ _______ _______ _____ _____    ______ ____
DOCKED: ROOT
DOCKED: ATOM      1  O   UNL     1     -36.635  -8.566  13.312 -0.06 -0.00    -0.346 OA 
DOCKED: ATOM      2  C   UNL     1     -38.055  -8.542  13.667 -0.13 +0.00    +0.130 C  
DOCKED: ATOM      3  C   UNL     1     -38.564  -9.876  13.202 -0.21 +0.00    +0.004 A  
DOCKED: ATOM      4  C   UNL     1     -37.508 -10.639  12.725 -0.28 +0.00    +0.006 A  
DOCKED: ATOM      5  C   UNL     1     -36.244  -9.880  12.850 -0.13 +0.00    +0.169 C  
DOCKED: ATOM      6  C   UNL     1     -39.858 -10.378  13.212 -0.21 -0.00    -0.001 A  
DOCKED: ATOM      7  C   UNL     1     -37.706 -11.920  12.240 -0.34 +0.00    +0.008 A  
DOCKED: ATOM      8  C   UNL     1     -40.074 -11.667  12.722 -0.22 +0.00    +0.010 A  
DOCKED: ATOM      9  C   UNL     1     -39.004 -12.434  12.239 -0.26 +0.00    +0.068 A  
DOCKED: ATOM     10  N   UNL     1     -39.440 -14.825  11.341 -2.56 -0.00    -0.191 NA 
DOCKED: ATOM     11  C   UNL     1     -39.245 -13.752  11.743 -0.36 +0.00    +0.101 C  
DOCKED: ENDROOT
DOCKED: BRANCH   2  12
DOCKED: ATOM     12  C   UNL     1     -38.172  -8.355  15.175 -0.04 +0.00    +0.038 C  
DOCKED: BRANCH  12  13
DOCKED: ATOM     13  C   UNL     1     -38.200  -9.697  15.903 -0.04 +0.00    +0.038 C  
DOCKED: BRANCH  13  14
DOCKED: ATOM     14  C   UNL     1     -36.951  -9.883  16.762 -0.01 +0.00    +0.251 C  
DOCKED: BRANCH  14  15
DOCKED: ATOM     15  N   UNL     1     -36.354 -11.190  16.513 -0.05 +0.00    +0.141 N  
DOCKED: ATOM     16  C   UNL     1     -37.303 -12.069  15.829 -0.06 +0.00    +0.285 C  
DOCKED: ATOM     17  C   UNL     1     -35.128 -11.055  15.725 -0.06 +0.00    +0.285 C  
DOCKED: ENDBRANCH  14  15
DOCKED: ENDBRANCH  13  14
DOCKED: ENDBRANCH  12  13
DOCKED: ENDBRANCH   2  12
DOCKED: BRANCH   2  18
DOCKED: ATOM     18  C   UNL     1     -38.669  -7.397  12.933 -0.17 +0.00    +0.006 A  
DOCKED: ATOM     19  C   UNL     1     -40.028  -7.124  13.079 -0.19 +0.00    +0.001 A  
DOCKED: ATOM     20  C   UNL     1     -40.601  -6.054  12.391 -0.17 +0.00    +0.029 A  
DOCKED: ATOM     21  C   UNL     1     -39.814  -5.257  11.560 -0.12 +0.00    +0.140 A  
DOCKED: ATOM     22  C   UNL     1     -38.455  -5.531  11.415 -0.16 +0.00    +0.029 A  
DOCKED: ATOM     23  F   UNL     1     -40.364  -4.229  10.902 -0.02 -0.00    -0.204 F  
DOCKED: ATOM     24  C   UNL     1     -37.881  -6.602  12.102 -0.14 +0.00    +0.001 A  
DOCKED: ENDBRANCH   2  18
DOCKED: TORSDOF 5
DOCKED: TER
DOCKED: ENDMDL
________________________________________________________________________________


    FINAL DOCKED STATE:
    ________________________


Run:   458 / 512
Time taken for this run:   0.002s

DOCKED: MODEL        458
DOCKED: USER    Run = 458
DOCKED: USER
DOCKED: USER    Estimated Free Energy of Binding    =  -3.71 kcal/mol  [=(1)+(2)+(3)-(4)]
DOCKED: USER
DOCKED: USER    (1) Final Intermolecular Energy     =  -5.20 kcal/mol
DOCKED: USER        vdW + Hbond + desolv Energy     =  -5.20 kcal/mol
DOCKED: USER        Electrostatic Energy            =  +0.00 kcal/mol
DOCKED: USER        Moving Ligand-Fixed Receptor    =  -5.20 kcal/mol
DOCKED: USER        Moving Ligand-Moving Receptor   =  +0.00 kcal/mol
DOCKED: USER    (2) Final Total Internal Energy     =  -1.41 kcal/mol
DOCKED: USER    (3) Torsional Free Energy           =  +1.49 kcal/mol
DOCKED: USER    (4) Unbound System's Energy         =  -1.41 kcal/mol
DOCKED: USER
DOCKED: USER
DOCKED: REMARK  5 active torsions:
DOCKED: REMARK  status: ('A' for Active; 'I' for Inactive)
DOCKED: REMARK    1  A    between atoms: C_2  and  C_19 
DOCKED: REMARK    2  A    between atoms: C_2  and  C_11 
DOCKED: REMARK    3  A    between atoms: C_19  and  C_20 
DOCKED: REMARK    4  A    between atoms: C_20  and  C_21 
DOCKED: REMARK    5  A    between atoms: C_21  and  N_22 
DOCKED: USER                              x       y       z     vdW  Elec       q    Type
DOCKED: USER                           _______ _______ _______ _____ _____    ______ ____
DOCKED: ROOT
DOCKED: ATOM      1  O   UNL     1     -30.605 -10.298   5.216 -0.00 -0.00    -0.346 OA 
DOCKED: ATOM      2  C   UNL     1     -29.780 -11.469   4.915 -0.09 +0.00    +0.130 C  
DOCKED: ATOM      3  C   UNL     1     -30.131 -12.444   6.000 -0.12 +0.00    +0.004 A  
DOCKED: ATOM      4  C   UNL     1     -31.148 -11.922   6.787 -0.17 +0.00    +0.006 A  
DOCKED: ATOM      5  C   UNL     1     -31.543 -10.590   6.278 -0.10 +0.00    +0.169 C  
DOCKED: ATOM      6  C   UNL     1     -29.602 -13.699   6.263 -0.12 -0.00    -0.001 A  
DOCKED: ATOM      7  C   UNL     1     -31.664 -12.628   7.860 -0.30 +0.00    +0.008 A  
DOCKED: ATOM      8  C   UNL     1     -30.109 -14.422   7.345 -0.22 +0.00    +0.010 A  
DOCKED: ATOM      9  C   UNL     1     -31.135 -13.889   8.138 -0.29 +0.00    +0.068 A  
DOCKED: ATOM     10  N   UNL     1     -32.057 -15.259  10.135 -2.63 -0.00    -0.191 NA 
DOCKED: ATOM     11  C   UNL     1     -31.643 -14.644   9.240 -0.41 +0.00    +0.101 C  
DOCKED: ENDROOT
DOCKED: BRANCH   2  12
DOCKED: ATOM     12  C   UNL     1     -30.145 -11.972   3.523 -0.11 +0.00    +0.038 C  
DOCKED: BRANCH  12  13
DOCKED: ATOM     13  C   UNL     1     -29.865 -10.914   2.457 -0.11 +0.00    +0.038 C  
DOCKED: BRANCH  13  14
DOCKED: ATOM     14  C   UNL     1     -31.150 -10.201   2.041 -0.15 +0.00    +0.251 C  
DOCKED: BRANCH  14  15
DOCKED: ATOM     15  N   UNL     1     -31.358  -9.012   2.859 -0.13 +0.00    +0.141 N  
DOCKED: ATOM     16  C   UNL     1     -30.655  -7.862   2.286 -0.02 +0.00    +0.285 C  
DOCKED: ATOM     17  C   UNL     1     -32.786  -8.720   2.990 -0.18 +0.00    +0.285 C  
DOCKED: ENDBRANCH  14  15
DOCKED: ENDBRANCH  13  14
DOCKED: ENDBRANCH  12  13
DOCKED: ENDBRANCH   2  12
DOCKED: BRANCH   2  18
DOCKED: ATOM     18  C   UNL     1     -28.356 -11.025   4.970 -0.02 +0.00    +0.006 A  
DOCKED: ATOM     19  C   UNL     1     -28.053  -9.682   5.192 -0.01 +0.00    +0.001 A  
DOCKED: ATOM     20  C   UNL     1     -26.721  -9.269   5.244 -0.00 +0.00    +0.029 A  
DOCKED: ATOM     21  C   UNL     1     -25.696 -10.197   5.073 -0.00 +0.00    +0.140 A  
DOCKED: ATOM     22  C   UNL     1     -26.000 -11.540   4.852 -0.00 +0.00    +0.029 A  
DOCKED: ATOM     23  F   UNL     1     -24.417  -9.800   5.125 +0.00 -0.00    -0.204 F  
DOCKED: ATOM     24  C   UNL     1     -27.331 -11.955   4.800 -0.01 +0.00    +0.001 A  
DOCKED: ENDBRANCH   2  18
DOCKED: TORSDOF 5
DOCKED: TER
DOCKED: ENDMDL
________________________________________________________________________________


    FINAL DOCKED STATE:
    ________________________


Run:   459 / 512
Time taken for this run:   0.002s

DOCKED: MODEL        459
DOCKED: USER    Run = 459
DOCKED: USER
DOCKED: USER    Estimated Free Energy of Binding    =  -3.64 kcal/mol  [=(1)+(2)+(3)-(4)]
DOCKED: USER
DOCKED: USER    (1) Final Intermolecular Energy     =  -5.13 kcal/mol
DOCKED: USER        vdW + Hbond + desolv Energy     =  -5.13 kcal/mol
DOCKED: USER        Electrostatic Energy            =  +0.00 kcal/mol
DOCKED: USER        Moving Ligand-Fixed Receptor    =  -5.13 kcal/mol
DOCKED: USER        Moving Ligand-Moving Receptor   =  +0.00 kcal/mol
DOCKED: USER    (2) Final Total Internal Energy     =  -1.26 kcal/mol
DOCKED: USER    (3) Torsional Free Energy           =  +1.49 kcal/mol
DOCKED: USER    (4) Unbound System's Energy         =  -1.26 kcal/mol
DOCKED: USER
DOCKED: USER
DOCKED: REMARK  5 active torsions:
DOCKED: REMARK  status: ('A' for Active; 'I' for Inactive)
DOCKED: REMARK    1  A    between atoms: C_2  and  C_19 
DOCKED: REMARK    2  A    between atoms: C_2  and  C_11 
DOCKED: REMARK    3  A    between atoms: C_19  and  C_20 
DOCKED: REMARK    4  A    between atoms: C_20  and  C_21 
DOCKED: REMARK    5  A    between atoms: C_21  and  N_22 
DOCKED: USER                              x       y       z     vdW  Elec       q    Type
DOCKED: USER                           _______ _______ _______ _____ _____    ______ ____
DOCKED: ROOT
DOCKED: ATOM      1  O   UNL     1     -37.097 -10.196  15.954 -0.00 -0.00    -0.346 OA 
DOCKED: ATOM      2  C   UNL     1     -36.012 -11.048  15.466 -0.10 +0.00    +0.130 C  
DOCKED: ATOM      3  C   UNL     1     -36.677 -11.929  14.449 -0.20 +0.00    +0.004 A  
DOCKED: ATOM      4  C   UNL     1     -38.000 -11.542  14.288 -0.14 +0.00    +0.006 A  
DOCKED: ATOM      5  C   UNL     1     -38.295 -10.386  15.165 -0.05 +0.00    +0.169 C  
DOCKED: ATOM      6  C   UNL     1     -36.151 -12.983  13.715 -0.25 -0.00    -0.001 A  
DOCKED: ATOM      7  C   UNL     1     -38.838 -12.191  13.398 -0.20 +0.00    +0.008 A  
DOCKED: ATOM      8  C   UNL     1     -36.985 -13.650  12.817 -0.41 +0.00    +0.010 A  
DOCKED: ATOM      9  C   UNL     1     -38.322 -13.256  12.659 -0.28 +0.00    +0.068 A  
DOCKED: ATOM     10  N   UNL     1     -39.841 -14.514  10.979 -2.08 -0.00    -0.191 NA 
DOCKED: ATOM     11  C   UNL     1     -39.160 -13.950  11.733 -0.30 +0.00    +0.101 C  
DOCKED: ENDROOT
DOCKED: BRANCH   2  12
DOCKED: ATOM     12  C   UNL     1     -34.932 -10.157  14.865 -0.12 +0.00    +0.038 C  
DOCKED: BRANCH  12  13
DOCKED: ATOM     13  C   UNL     1     -35.402  -8.708  14.757 -0.06 +0.00    +0.038 C  
DOCKED: BRANCH  13  14
DOCKED: ATOM     14  C   UNL     1     -36.129  -8.462  13.437 -0.10 +0.00    +0.251 C  
DOCKED: BRANCH  14  15
DOCKED: ATOM     15  N   UNL     1     -37.510  -8.066  13.684 -0.08 +0.00    +0.141 N  
DOCKED: ATOM     16  C   UNL     1     -37.572  -6.689  14.178 -0.03 +0.00    +0.285 C  
DOCKED: ATOM     17  C   UNL     1     -38.312  -8.205  12.468 -0.12 +0.00    +0.285 C  
DOCKED: ENDBRANCH  14  15
DOCKED: ENDBRANCH  13  14
DOCKED: ENDBRANCH  12  13
DOCKED: ENDBRANCH   2  12
DOCKED: BRANCH   2  18
DOCKED: ATOM     18  C   UNL     1     -35.492 -11.807  16.641 -0.10 +0.00    +0.006 A  
DOCKED: ATOM     19  C   UNL     1     -36.363 -12.208  17.653 -0.09 +0.00    +0.001 A  
DOCKED: ATOM     20  C   UNL     1     -35.875 -12.918  18.751 -0.10 +0.00    +0.029 A  
DOCKED: ATOM     21  C   UNL     1     -34.518 -13.225  18.836 -0.09 +0.00    +0.140 A  
DOCKED: ATOM     22  C   UNL     1     -33.647 -12.823  17.823 -0.11 +0.00    +0.029 A  
DOCKED: ATOM     23  F   UNL     1     -34.050 -13.907  19.889 -0.02 -0.00    -0.204 F  
DOCKED: ATOM     24  C   UNL     1     -34.134 -12.113  16.724 -0.10 +0.00    +0.001 A  
DOCKED: ENDBRANCH   2  18
DOCKED: TORSDOF 5
DOCKED: TER
DOCKED: ENDMDL
________________________________________________________________________________


    FINAL DOCKED STATE:
    ________________________


Run:   460 / 512
Time taken for this run:   0.002s

DOCKED: MODEL        460
DOCKED: USER    Run = 460
DOCKED: USER
DOCKED: USER    Estimated Free Energy of Binding    =  -3.96 kcal/mol  [=(1)+(2)+(3)-(4)]
DOCKED: USER
DOCKED: USER    (1) Final Intermolecular Energy     =  -5.45 kcal/mol
DOCKED: USER        vdW + Hbond + desolv Energy     =  -5.45 kcal/mol
DOCKED: USER        Electrostatic Energy            =  +0.00 kcal/mol
DOCKED: USER        Moving Ligand-Fixed Receptor    =  -5.45 kcal/mol
DOCKED: USER        Moving Ligand-Moving Receptor   =  +0.00 kcal/mol
DOCKED: USER    (2) Final Total Internal Energy     =  -0.99 kcal/mol
DOCKED: USER    (3) Torsional Free Energy           =  +1.49 kcal/mol
DOCKED: USER    (4) Unbound System's Energy         =  -0.99 kcal/mol
DOCKED: USER
DOCKED: USER
DOCKED: REMARK  5 active torsions:
DOCKED: REMARK  status: ('A' for Active; 'I' for Inactive)
DOCKED: REMARK    1  A    between atoms: C_2  and  C_19 
DOCKED: REMARK    2  A    between atoms: C_2  and  C_11 
DOCKED: REMARK    3  A    between atoms: C_19  and  C_20 
DOCKED: REMARK    4  A    between atoms: C_20  and  C_21 
DOCKED: REMARK    5  A    between atoms: C_21  and  N_22 
DOCKED: USER                              x       y       z     vdW  Elec       q    Type
DOCKED: USER                           _______ _______ _______ _____ _____    ______ ____
DOCKED: ROOT
DOCKED: ATOM      1  O   UNL     1     -30.245 -11.265   4.588 -0.01 -0.00    -0.346 OA 
DOCKED: ATOM      2  C   UNL     1     -30.345 -10.377   5.747 -0.08 +0.00    +0.130 C  
DOCKED: ATOM      3  C   UNL     1     -30.741 -11.294   6.868 -0.13 +0.00    +0.004 A  
DOCKED: ATOM      4  C   UNL     1     -30.757 -12.606   6.416 -0.16 +0.00    +0.006 A  
DOCKED: ATOM      5  C   UNL     1     -30.367 -12.650   4.989 -0.05 +0.00    +0.169 C  
DOCKED: ATOM      6  C   UNL     1     -31.050 -10.992   8.187 -0.16 -0.00    -0.001 A  
DOCKED: ATOM      7  C   UNL     1     -31.085 -13.654   7.258 -0.26 +0.00    +0.008 A  
DOCKED: ATOM      8  C   UNL     1     -31.387 -12.038   9.047 -0.24 +0.00    +0.010 A  
DOCKED: ATOM      9  C   UNL     1     -31.404 -13.362   8.585 -0.30 +0.00    +0.068 A  
DOCKED: ATOM     10  N   UNL     1     -32.030 -15.281  10.210 -2.66 -0.00    -0.191 NA 
DOCKED: ATOM     11  C   UNL     1     -31.750 -14.420   9.481 -0.37 +0.00    +0.101 C  
DOCKED: ENDROOT
DOCKED: BRANCH   2  12
DOCKED: ATOM     12  C   UNL     1     -28.989  -9.719   5.969 -0.02 +0.00    +0.038 C  
DOCKED: BRANCH  12  13
DOCKED: ATOM     13  C   UNL     1     -28.538  -8.943   4.733 -0.01 +0.00    +0.038 C  
DOCKED: BRANCH  13  14
DOCKED: ATOM     14  C   UNL     1     -28.795  -7.446   4.899 +0.00 +0.00    +0.251 C  
DOCKED: BRANCH  14  15
DOCKED: ATOM     15  N   UNL     1     -27.872  -6.678   4.073 +0.00 +0.00    +0.141 N  
DOCKED: ATOM     16  C   UNL     1     -28.088  -5.242   4.257 +0.00 +0.00    +0.285 C  
DOCKED: ATOM     17  C   UNL     1     -26.485  -7.026   4.389 +0.00 +0.00    +0.285 C  
DOCKED: ENDBRANCH  14  15
DOCKED: ENDBRANCH  13  14
DOCKED: ENDBRANCH  12  13
DOCKED: ENDBRANCH   2  12
DOCKED: BRANCH   2  18
DOCKED: ATOM     18  C   UNL     1     -31.391  -9.362   5.429 -0.13 +0.00    +0.006 A  
DOCKED: ATOM     19  C   UNL     1     -31.979  -8.623   6.455 -0.12 +0.00    +0.001 A  
DOCKED: ATOM     20  C   UNL     1     -32.957  -7.674   6.157 -0.14 +0.00    +0.029 A  
DOCKED: ATOM     21  C   UNL     1     -33.346  -7.464   4.835 -0.14 +0.00    +0.140 A  
DOCKED: ATOM     22  C   UNL     1     -32.758  -8.204   3.809 -0.21 +0.00    +0.029 A  
DOCKED: ATOM     23  F   UNL     1     -34.284  -6.552   4.549 -0.09 -0.00    -0.204 F  
DOCKED: ATOM     24  C   UNL     1     -31.779  -9.154   4.106 -0.18 +0.00    +0.001 A  
DOCKED: ENDBRANCH   2  18
DOCKED: TORSDOF 5
DOCKED: TER
DOCKED: ENDMDL
________________________________________________________________________________


    FINAL DOCKED STATE:
    ________________________


Run:   461 / 512
Time taken for this run:   0.002s

DOCKED: MODEL        461
DOCKED: USER    Run = 461
DOCKED: USER
DOCKED: USER    Estimated Free Energy of Binding    =  -4.43 kcal/mol  [=(1)+(2)+(3)-(4)]
DOCKED: USER
DOCKED: USER    (1) Final Intermolecular Energy     =  -5.92 kcal/mol
DOCKED: USER        vdW + Hbond + desolv Energy     =  -5.92 kcal/mol
DOCKED: USER        Electrostatic Energy            =  +0.00 kcal/mol
DOCKED: USER        Moving Ligand-Fixed Receptor    =  -5.92 kcal/mol
DOCKED: USER        Moving Ligand-Moving Receptor   =  +0.00 kcal/mol
DOCKED: USER    (2) Final Total Internal Energy     =  -1.46 kcal/mol
DOCKED: USER    (3) Torsional Free Energy           =  +1.49 kcal/mol
DOCKED: USER    (4) Unbound System's Energy         =  -1.46 kcal/mol
DOCKED: USER
DOCKED: USER
DOCKED: REMARK  5 active torsions:
DOCKED: REMARK  status: ('A' for Active; 'I' for Inactive)
DOCKED: REMARK    1  A    between atoms: C_2  and  C_19 
DOCKED: REMARK    2  A    between atoms: C_2  and  C_11 
DOCKED: REMARK    3  A    between atoms: C_19  and  C_20 
DOCKED: REMARK    4  A    between atoms: C_20  and  C_21 
DOCKED: REMARK    5  A    between atoms: C_21  and  N_22 
DOCKED: USER                              x       y       z     vdW  Elec       q    Type
DOCKED: USER                           _______ _______ _______ _____ _____    ______ ____
DOCKED: ROOT
DOCKED: ATOM      1  O   UNL     1     -36.940 -13.695  15.130 -0.10 -0.00    -0.346 OA 
DOCKED: ATOM      2  C   UNL     1     -37.163 -12.271  14.875 -0.16 +0.00    +0.130 C  
DOCKED: ATOM      3  C   UNL     1     -37.603 -12.228  13.440 -0.27 +0.00    +0.004 A  
DOCKED: ATOM      4  C   UNL     1     -37.728 -13.521  12.951 -0.35 +0.00    +0.006 A  
DOCKED: ATOM      5  C   UNL     1     -37.397 -14.495  14.015 -0.11 +0.00    +0.169 C  
DOCKED: ATOM      6  C   UNL     1     -37.882 -11.133  12.636 -0.30 -0.00    -0.001 A  
DOCKED: ATOM      7  C   UNL     1     -38.129 -13.763  11.648 -0.44 +0.00    +0.008 A  
DOCKED: ATOM      8  C   UNL     1     -38.283 -11.360  11.318 -0.26 +0.00    +0.010 A  
DOCKED: ATOM      9  C   UNL     1     -38.407 -12.668  10.827 -0.37 +0.00    +0.068 A  
DOCKED: ATOM     10  N   UNL     1     -39.160 -13.055   8.378 -1.98 -0.00    -0.191 NA 
DOCKED: ATOM     11  C   UNL     1     -38.821 -12.882   9.477 -0.51 +0.00    +0.101 C  
DOCKED: ENDROOT
DOCKED: BRANCH   2  12
DOCKED: ATOM     12  C   UNL     1     -38.231 -11.770  15.839 -0.10 +0.00    +0.038 C  
DOCKED: BRANCH  12  13
DOCKED: ATOM     13  C   UNL     1     -39.168 -12.897  16.267 -0.15 +0.00    +0.038 C  
DOCKED: BRANCH  13  14
DOCKED: ATOM     14  C   UNL     1     -40.621 -12.557  15.940 -0.04 +0.00    +0.251 C  
DOCKED: BRANCH  14  15
DOCKED: ATOM     15  N   UNL     1     -40.769 -12.277  14.517 -0.08 +0.00    +0.141 N  
DOCKED: ATOM     16  C   UNL     1     -41.117 -13.496  13.785 -0.08 +0.00    +0.285 C  
DOCKED: ATOM     17  C   UNL     1     -41.784 -11.245  14.297 -0.04 +0.00    +0.285 C  
DOCKED: ENDBRANCH  14  15
DOCKED: ENDBRANCH  13  14
DOCKED: ENDBRANCH  12  13
DOCKED: ENDBRANCH   2  12
DOCKED: BRANCH   2  18
DOCKED: ATOM     18  C   UNL     1     -35.861 -11.578  15.104 -0.16 +0.00    +0.006 A  
DOCKED: ATOM     19  C   UNL     1     -34.847 -11.667  14.152 -0.12 +0.00    +0.001 A  
DOCKED: ATOM     20  C   UNL     1     -33.630 -11.019  14.369 -0.15 +0.00    +0.029 A  
DOCKED: ATOM     21  C   UNL     1     -33.430 -10.282  15.535 -0.05 +0.00    +0.140 A  
DOCKED: ATOM     22  C   UNL     1     -34.446 -10.193  16.487 -0.04 +0.00    +0.029 A  
DOCKED: ATOM     23  F   UNL     1     -32.263  -9.658  15.742 -0.00 -0.00    -0.204 F  
DOCKED: ATOM     24  C   UNL     1     -35.663 -10.842  16.272 -0.07 +0.00    +0.001 A  
DOCKED: ENDBRANCH   2  18
DOCKED: TORSDOF 5
DOCKED: TER
DOCKED: ENDMDL
________________________________________________________________________________


    FINAL DOCKED STATE:
    ________________________


Run:   462 / 512
Time taken for this run:   0.002s

DOCKED: MODEL        462
DOCKED: USER    Run = 462
DOCKED: USER
DOCKED: USER    Estimated Free Energy of Binding    =  -4.35 kcal/mol  [=(1)+(2)+(3)-(4)]
DOCKED: USER
DOCKED: USER    (1) Final Intermolecular Energy     =  -5.84 kcal/mol
DOCKED: USER        vdW + Hbond + desolv Energy     =  -5.84 kcal/mol
DOCKED: USER        Electrostatic Energy            =  +0.00 kcal/mol
DOCKED: USER        Moving Ligand-Fixed Receptor    =  -5.84 kcal/mol
DOCKED: USER        Moving Ligand-Moving Receptor   =  +0.00 kcal/mol
DOCKED: USER    (2) Final Total Internal Energy     =  -0.92 kcal/mol
DOCKED: USER    (3) Torsional Free Energy           =  +1.49 kcal/mol
DOCKED: USER    (4) Unbound System's Energy         =  -0.92 kcal/mol
DOCKED: USER
DOCKED: USER
DOCKED: REMARK  5 active torsions:
DOCKED: REMARK  status: ('A' for Active; 'I' for Inactive)
DOCKED: REMARK    1  A    between atoms: C_2  and  C_19 
DOCKED: REMARK    2  A    between atoms: C_2  and  C_11 
DOCKED: REMARK    3  A    between atoms: C_19  and  C_20 
DOCKED: REMARK    4  A    between atoms: C_20  and  C_21 
DOCKED: REMARK    5  A    between atoms: C_21  and  N_22 
DOCKED: USER                              x       y       z     vdW  Elec       q    Type
DOCKED: USER                           _______ _______ _______ _____ _____    ______ ____
DOCKED: ROOT
DOCKED: ATOM      1  O   UNL     1     -34.249  -5.278   6.066 -0.05 -0.00    -0.346 OA 
DOCKED: ATOM      2  C   UNL     1     -33.104  -4.995   5.199 -0.11 +0.00    +0.130 C  
DOCKED: ATOM      3  C   UNL     1     -33.675  -4.117   4.124 -0.20 +0.00    +0.004 A  
DOCKED: ATOM      4  C   UNL     1     -35.002  -3.832   4.410 -0.29 +0.00    +0.006 A  
DOCKED: ATOM      5  C   UNL     1     -35.393  -4.480   5.681 -0.23 +0.00    +0.169 C  
DOCKED: ATOM      6  C   UNL     1     -33.065  -3.603   2.989 -0.16 -0.00    -0.001 A  
DOCKED: ATOM      7  C   UNL     1     -35.763  -3.031   3.575 -0.27 +0.00    +0.008 A  
DOCKED: ATOM      8  C   UNL     1     -33.820  -2.797   2.135 -0.24 +0.00    +0.010 A  
DOCKED: ATOM      9  C   UNL     1     -35.162  -2.513   2.427 -0.23 +0.00    +0.068 A  
DOCKED: ATOM     10  N   UNL     1     -36.535  -1.010   0.823 -2.37 -0.00    -0.191 NA 
DOCKED: ATOM     11  C   UNL     1     -35.919  -1.685   1.542 -0.40 +0.00    +0.101 C  
DOCKED: ENDROOT
DOCKED: BRANCH   2  12
DOCKED: ATOM     12  C   UNL     1     -32.032  -4.297   6.028 -0.08 +0.00    +0.038 C  
DOCKED: BRANCH  12  13
DOCKED: ATOM     13  C   UNL     1     -31.944  -2.811   5.687 -0.14 +0.00    +0.038 C  
DOCKED: BRANCH  13  14
DOCKED: ATOM     14  C   UNL     1     -31.138  -2.052   6.740 -0.06 +0.00    +0.251 C  
DOCKED: BRANCH  14  15
DOCKED: ATOM     15  N   UNL     1     -29.833  -1.679   6.207 -0.05 +0.00    +0.141 N  
DOCKED: ATOM     16  C   UNL     1     -29.515  -0.291   6.547 -0.05 +0.00    +0.285 C  
DOCKED: ATOM     17  C   UNL     1     -28.793  -2.576   6.714 -0.01 +0.00    +0.285 C  
DOCKED: ENDBRANCH  14  15
DOCKED: ENDBRANCH  13  14
DOCKED: ENDBRANCH  12  13
DOCKED: ENDBRANCH   2  12
DOCKED: BRANCH   2  18
DOCKED: ATOM     18  C   UNL     1     -32.615  -6.306   4.681 -0.11 +0.00    +0.006 A  
DOCKED: ATOM     19  C   UNL     1     -31.520  -6.927   5.281 -0.04 +0.00    +0.001 A  
DOCKED: ATOM     20  C   UNL     1     -31.063  -8.153   4.795 -0.06 +0.00    +0.029 A  
DOCKED: ATOM     21  C   UNL     1     -31.702  -8.756   3.712 -0.14 +0.00    +0.140 A  
DOCKED: ATOM     22  C   UNL     1     -32.797  -8.134   3.113 -0.24 +0.00    +0.029 A  
DOCKED: ATOM     23  F   UNL     1     -31.265  -9.933   3.247 -0.07 -0.00    -0.204 F  
DOCKED: ATOM     24  C   UNL     1     -33.254  -6.907   3.598 -0.22 +0.00    +0.001 A  
DOCKED: ENDBRANCH   2  18
DOCKED: TORSDOF 5
DOCKED: TER
DOCKED: ENDMDL
________________________________________________________________________________


    FINAL DOCKED STATE:
    ________________________


Run:   463 / 512
Time taken for this run:   0.002s

DOCKED: MODEL        463
DOCKED: USER    Run = 463
DOCKED: USER
DOCKED: USER    Estimated Free Energy of Binding    =  -5.56 kcal/mol  [=(1)+(2)+(3)-(4)]
DOCKED: USER
DOCKED: USER    (1) Final Intermolecular Energy     =  -7.05 kcal/mol
DOCKED: USER        vdW + Hbond + desolv Energy     =  -7.05 kcal/mol
DOCKED: USER        Electrostatic Energy            =  +0.00 kcal/mol
DOCKED: USER        Moving Ligand-Fixed Receptor    =  -7.05 kcal/mol
DOCKED: USER        Moving Ligand-Moving Receptor   =  +0.00 kcal/mol
DOCKED: USER    (2) Final Total Internal Energy     =  -1.43 kcal/mol
DOCKED: USER    (3) Torsional Free Energy           =  +1.49 kcal/mol
DOCKED: USER    (4) Unbound System's Energy         =  -1.43 kcal/mol
DOCKED: USER
DOCKED: USER
DOCKED: REMARK  5 active torsions:
DOCKED: REMARK  status: ('A' for Active; 'I' for Inactive)
DOCKED: REMARK    1  A    between atoms: C_2  and  C_19 
DOCKED: REMARK    2  A    between atoms: C_2  and  C_11 
DOCKED: REMARK    3  A    between atoms: C_19  and  C_20 
DOCKED: REMARK    4  A    between atoms: C_20  and  C_21 
DOCKED: REMARK    5  A    between atoms: C_21  and  N_22 
DOCKED: USER                              x       y       z     vdW  Elec       q    Type
DOCKED: USER                           _______ _______ _______ _____ _____    ______ ____
DOCKED: ROOT
DOCKED: ATOM      1  O   UNL     1     -37.703 -10.676  13.890 -0.04 -0.00    -0.346 OA 
DOCKED: ATOM      2  C   UNL     1     -37.198 -12.049  13.881 -0.22 +0.00    +0.130 C  
DOCKED: ATOM      3  C   UNL     1     -37.651 -12.591  12.557 -0.34 +0.00    +0.004 A  
DOCKED: ATOM      4  C   UNL     1     -38.265 -11.584  11.826 -0.35 +0.00    +0.006 A  
DOCKED: ATOM      5  C   UNL     1     -38.249 -10.321  12.598 -0.23 +0.00    +0.169 C  
DOCKED: ATOM      6  C   UNL     1     -37.520 -13.870  12.036 -0.39 -0.00    -0.001 A  
DOCKED: ATOM      7  C   UNL     1     -38.770 -11.819  10.558 -0.09 +0.00    +0.008 A  
DOCKED: ATOM      8  C   UNL     1     -38.029 -14.124  10.761 -0.43 +0.00    +0.010 A  
DOCKED: ATOM      9  C   UNL     1     -38.650 -13.103  10.026 -0.43 +0.00    +0.068 A  
DOCKED: ATOM     10  N   UNL     1     -39.579 -13.607   7.660 -2.71 -0.00    -0.191 NA 
DOCKED: ATOM     11  C   UNL     1     -39.163 -13.381   8.721 -0.43 +0.00    +0.101 C  
DOCKED: ENDROOT
DOCKED: BRANCH   2  12
DOCKED: ATOM     12  C   UNL     1     -35.680 -12.006  14.017 -0.25 +0.00    +0.038 C  
DOCKED: BRANCH  12  13
DOCKED: ATOM     13  C   UNL     1     -35.211 -10.675  14.602 -0.16 +0.00    +0.038 C  
DOCKED: BRANCH  13  14
DOCKED: ATOM     14  C   UNL     1     -34.443 -10.888  15.905 -0.06 +0.00    +0.251 C  
DOCKED: BRANCH  14  15
DOCKED: ATOM     15  N   UNL     1     -35.248 -10.459  17.043 -0.02 +0.00    +0.141 N  
DOCKED: ATOM     16  C   UNL     1     -36.523  -9.900  16.593 -0.01 +0.00    +0.285 C  
DOCKED: ATOM     17  C   UNL     1     -35.479 -11.577  17.960 -0.03 +0.00    +0.285 C  
DOCKED: ENDBRANCH  14  15
DOCKED: ENDBRANCH  13  14
DOCKED: ENDBRANCH  12  13
DOCKED: ENDBRANCH   2  12
DOCKED: BRANCH   2  18
DOCKED: ATOM     18  C   UNL     1     -37.822 -12.751  15.041 -0.18 +0.00    +0.006 A  
DOCKED: ATOM     19  C   UNL     1     -39.180 -12.583  15.309 -0.13 +0.00    +0.001 A  
DOCKED: ATOM     20  C   UNL     1     -39.762 -13.239  16.394 -0.13 +0.00    +0.029 A  
DOCKED: ATOM     21  C   UNL     1     -38.987 -14.063  17.208 -0.04 +0.00    +0.140 A  
DOCKED: ATOM     22  C   UNL     1     -37.628 -14.231  16.940 -0.21 +0.00    +0.029 A  
DOCKED: ATOM     23  F   UNL     1     -39.546 -14.694  18.248 -0.03 -0.00    -0.204 F  
DOCKED: ATOM     24  C   UNL     1     -37.045 -13.574  15.855 -0.13 +0.00    +0.001 A  
DOCKED: ENDBRANCH   2  18
DOCKED: TORSDOF 5
DOCKED: TER
DOCKED: ENDMDL
________________________________________________________________________________


    FINAL DOCKED STATE:
    ________________________


Run:   464 / 512
Time taken for this run:   0.002s

DOCKED: MODEL        464
DOCKED: USER    Run = 464
DOCKED: USER
DOCKED: USER    Estimated Free Energy of Binding    =  -4.13 kcal/mol  [=(1)+(2)+(3)-(4)]
DOCKED: USER
DOCKED: USER    (1) Final Intermolecular Energy     =  -5.62 kcal/mol
DOCKED: USER        vdW + Hbond + desolv Energy     =  -5.62 kcal/mol
DOCKED: USER        Electrostatic Energy            =  +0.00 kcal/mol
DOCKED: USER        Moving Ligand-Fixed Receptor    =  -5.62 kcal/mol
DOCKED: USER        Moving Ligand-Moving Receptor   =  +0.00 kcal/mol
DOCKED: USER    (2) Final Total Internal Energy     =  -1.34 kcal/mol
DOCKED: USER    (3) Torsional Free Energy           =  +1.49 kcal/mol
DOCKED: USER    (4) Unbound System's Energy         =  -1.34 kcal/mol
DOCKED: USER
DOCKED: USER
DOCKED: REMARK  5 active torsions:
DOCKED: REMARK  status: ('A' for Active; 'I' for Inactive)
DOCKED: REMARK    1  A    between atoms: C_2  and  C_19 
DOCKED: REMARK    2  A    between atoms: C_2  and  C_11 
DOCKED: REMARK    3  A    between atoms: C_19  and  C_20 
DOCKED: REMARK    4  A    between atoms: C_20  and  C_21 
DOCKED: REMARK    5  A    between atoms: C_21  and  N_22 
DOCKED: USER                              x       y       z     vdW  Elec       q    Type
DOCKED: USER                           _______ _______ _______ _____ _____    ______ ____
DOCKED: ROOT
DOCKED: ATOM      1  O   UNL     1     -35.266 -10.129  14.812 -0.05 -0.00    -0.346 OA 
DOCKED: ATOM      2  C   UNL     1     -36.195  -9.380  13.966 -0.12 +0.00    +0.130 C  
DOCKED: ATOM      3  C   UNL     1     -36.954 -10.447  13.231 -0.23 +0.00    +0.004 A  
DOCKED: ATOM      4  C   UNL     1     -36.570 -11.697  13.697 -0.24 +0.00    +0.006 A  
DOCKED: ATOM      5  C   UNL     1     -35.556 -11.545  14.765 -0.16 +0.00    +0.169 C  
DOCKED: ATOM      6  C   UNL     1     -37.915 -10.322  12.239 -0.27 -0.00    -0.001 A  
DOCKED: ATOM      7  C   UNL     1     -37.126 -12.858  13.188 -0.34 +0.00    +0.008 A  
DOCKED: ATOM      8  C   UNL     1     -38.482 -11.484  11.712 -0.33 +0.00    +0.010 A  
DOCKED: ATOM      9  C   UNL     1     -38.090 -12.745  12.185 -0.32 +0.00    +0.068 A  
DOCKED: ATOM     10  N   UNL     1     -39.166 -14.881  11.188 -2.52 -0.00    -0.191 NA 
DOCKED: ATOM     11  C   UNL     1     -38.683 -13.923  11.635 -0.32 +0.00    +0.101 C  
DOCKED: ENDROOT
DOCKED: BRANCH   2  12
DOCKED: ATOM     12  C   UNL     1     -37.087  -8.529  14.863 -0.05 +0.00    +0.038 C  
DOCKED: BRANCH  12  13
DOCKED: ATOM     13  C   UNL     1     -36.405  -8.223  16.195 -0.02 +0.00    +0.038 C  
DOCKED: BRANCH  13  14
DOCKED: ATOM     14  C   UNL     1     -35.426  -7.059  16.057 -0.00 +0.00    +0.251 C  
DOCKED: BRANCH  14  15
DOCKED: ATOM     15  N   UNL     1     -34.376  -7.158  17.064 -0.00 +0.00    +0.141 N  
DOCKED: ATOM     16  C   UNL     1     -33.106  -7.550  16.450 -0.00 +0.00    +0.285 C  
DOCKED: ATOM     17  C   UNL     1     -34.224  -5.888  17.776 +0.00 +0.00    +0.285 C  
DOCKED: ENDBRANCH  14  15
DOCKED: ENDBRANCH  13  14
DOCKED: ENDBRANCH  12  13
DOCKED: ENDBRANCH   2  12
DOCKED: BRANCH   2  18
DOCKED: ATOM     18  C   UNL     1     -35.371  -8.526  13.061 -0.14 +0.00    +0.006 A  
DOCKED: ATOM     19  C   UNL     1     -34.017  -8.807  12.880 -0.11 +0.00    +0.001 A  
DOCKED: ATOM     20  C   UNL     1     -33.247  -8.007  12.035 -0.10 +0.00    +0.029 A  
DOCKED: ATOM     21  C   UNL     1     -33.831  -6.930  11.371 -0.07 +0.00    +0.140 A  
DOCKED: ATOM     22  C   UNL     1     -35.185  -6.649  11.552 -0.10 +0.00    +0.029 A  
DOCKED: ATOM     23  F   UNL     1     -33.092  -6.164  10.558 -0.00 -0.00    -0.204 F  
DOCKED: ATOM     24  C   UNL     1     -35.956  -7.448  12.398 -0.14 +0.00    +0.001 A  
DOCKED: ENDBRANCH   2  18
DOCKED: TORSDOF 5
DOCKED: TER
DOCKED: ENDMDL
________________________________________________________________________________


    FINAL DOCKED STATE:
    ________________________


Run:   465 / 512
Time taken for this run:   0.002s

DOCKED: MODEL        465
DOCKED: USER    Run = 465
DOCKED: USER
DOCKED: USER    Estimated Free Energy of Binding    =  -4.12 kcal/mol  [=(1)+(2)+(3)-(4)]
DOCKED: USER
DOCKED: USER    (1) Final Intermolecular Energy     =  -5.61 kcal/mol
DOCKED: USER        vdW + Hbond + desolv Energy     =  -5.61 kcal/mol
DOCKED: USER        Electrostatic Energy            =  +0.00 kcal/mol
DOCKED: USER        Moving Ligand-Fixed Receptor    =  -5.61 kcal/mol
DOCKED: USER        Moving Ligand-Moving Receptor   =  +0.00 kcal/mol
DOCKED: USER    (2) Final Total Internal Energy     =  -0.84 kcal/mol
DOCKED: USER    (3) Torsional Free Energy           =  +1.49 kcal/mol
DOCKED: USER    (4) Unbound System's Energy         =  -0.84 kcal/mol
DOCKED: USER
DOCKED: USER
DOCKED: REMARK  5 active torsions:
DOCKED: REMARK  status: ('A' for Active; 'I' for Inactive)
DOCKED: REMARK    1  A    between atoms: C_2  and  C_19 
DOCKED: REMARK    2  A    between atoms: C_2  and  C_11 
DOCKED: REMARK    3  A    between atoms: C_19  and  C_20 
DOCKED: REMARK    4  A    between atoms: C_20  and  C_21 
DOCKED: REMARK    5  A    between atoms: C_21  and  N_22 
DOCKED: USER                              x       y       z     vdW  Elec       q    Type
DOCKED: USER                           _______ _______ _______ _____ _____    ______ ____
DOCKED: ROOT
DOCKED: ATOM      1  O   UNL     1     -42.191  -8.766  13.572 -0.06 -0.00    -0.346 OA 
DOCKED: ATOM      2  C   UNL     1     -40.742  -8.559  13.569 -0.17 +0.00    +0.130 C  
DOCKED: ATOM      3  C   UNL     1     -40.192  -9.880  13.113 -0.21 +0.00    +0.004 A  
DOCKED: ATOM      4  C   UNL     1     -41.236 -10.730  12.778 -0.22 +0.00    +0.006 A  
DOCKED: ATOM      5  C   UNL     1     -42.530 -10.039  12.973 -0.23 +0.00    +0.169 C  
DOCKED: ATOM      6  C   UNL     1     -38.872 -10.291  12.993 -0.23 -0.00    -0.001 A  
DOCKED: ATOM      7  C   UNL     1     -40.999 -12.015  12.319 -0.26 +0.00    +0.008 A  
DOCKED: ATOM      8  C   UNL     1     -38.618 -11.585  12.536 -0.28 +0.00    +0.010 A  
DOCKED: ATOM      9  C   UNL     1     -39.676 -12.442  12.200 -0.24 +0.00    +0.068 A  
DOCKED: ATOM     10  N   UNL     1     -39.168 -14.836  11.349 -2.59 -0.00    -0.191 NA 
DOCKED: ATOM     11  C   UNL     1     -39.396 -13.762  11.731 -0.35 +0.00    +0.101 C  
DOCKED: ENDROOT
DOCKED: BRANCH   2  12
DOCKED: ATOM     12  C   UNL     1     -40.419  -7.419  12.611 -0.24 +0.00    +0.038 C  
DOCKED: BRANCH  12  13
DOCKED: ATOM     13  C   UNL     1     -39.197  -6.630  13.077 -0.16 +0.00    +0.038 C  
DOCKED: BRANCH  13  14
DOCKED: ATOM     14  C   UNL     1     -39.319  -5.155  12.701 -0.07 +0.00    +0.251 C  
DOCKED: BRANCH  14  15
DOCKED: ATOM     15  N   UNL     1     -38.325  -4.804  11.694 -0.09 +0.00    +0.141 N  
DOCKED: ATOM     16  C   UNL     1     -37.543  -5.980  11.308 +0.01 +0.00    +0.285 C  
DOCKED: ATOM     17  C   UNL     1     -38.968  -4.213  10.519 -0.10 +0.00    +0.285 C  
DOCKED: ENDBRANCH  14  15
DOCKED: ENDBRANCH  13  14
DOCKED: ENDBRANCH  12  13
DOCKED: ENDBRANCH   2  12
DOCKED: BRANCH   2  18
DOCKED: ATOM     18  C   UNL     1     -40.348  -8.217  14.967 -0.05 +0.00    +0.006 A  
DOCKED: ATOM     19  C   UNL     1     -40.854  -7.066  15.571 -0.03 +0.00    +0.001 A  
DOCKED: ATOM     20  C   UNL     1     -40.484  -6.747  16.878 -0.01 +0.00    +0.029 A  
DOCKED: ATOM     21  C   UNL     1     -39.611  -7.578  17.579 -0.00 +0.00    +0.140 A  
DOCKED: ATOM     22  C   UNL     1     -39.106  -8.728  16.974 -0.00 +0.00    +0.029 A  
DOCKED: ATOM     23  F   UNL     1     -39.258  -7.272  18.834 +0.00 -0.00    -0.204 F  
DOCKED: ATOM     24  C   UNL     1     -39.475  -9.048  15.666 -0.03 +0.00    +0.001 A  
DOCKED: ENDBRANCH   2  18
DOCKED: TORSDOF 5
DOCKED: TER
DOCKED: ENDMDL
________________________________________________________________________________


    FINAL DOCKED STATE:
    ________________________


Run:   466 / 512
Time taken for this run:   0.002s

DOCKED: MODEL        466
DOCKED: USER    Run = 466
DOCKED: USER
DOCKED: USER    Estimated Free Energy of Binding    =  -3.89 kcal/mol  [=(1)+(2)+(3)-(4)]
DOCKED: USER
DOCKED: USER    (1) Final Intermolecular Energy     =  -5.38 kcal/mol
DOCKED: USER        vdW + Hbond + desolv Energy     =  -5.38 kcal/mol
DOCKED: USER        Electrostatic Energy            =  +0.00 kcal/mol
DOCKED: USER        Moving Ligand-Fixed Receptor    =  -5.38 kcal/mol
DOCKED: USER        Moving Ligand-Moving Receptor   =  +0.00 kcal/mol
DOCKED: USER    (2) Final Total Internal Energy     =  -1.37 kcal/mol
DOCKED: USER    (3) Torsional Free Energy           =  +1.49 kcal/mol
DOCKED: USER    (4) Unbound System's Energy         =  -1.37 kcal/mol
DOCKED: USER
DOCKED: USER
DOCKED: REMARK  5 active torsions:
DOCKED: REMARK  status: ('A' for Active; 'I' for Inactive)
DOCKED: REMARK    1  A    between atoms: C_2  and  C_19 
DOCKED: REMARK    2  A    between atoms: C_2  and  C_11 
DOCKED: REMARK    3  A    between atoms: C_19  and  C_20 
DOCKED: REMARK    4  A    between atoms: C_20  and  C_21 
DOCKED: REMARK    5  A    between atoms: C_21  and  N_22 
DOCKED: USER                              x       y       z     vdW  Elec       q    Type
DOCKED: USER                           _______ _______ _______ _____ _____    ______ ____
DOCKED: ROOT
DOCKED: ATOM      1  O   UNL     1     -40.156 -10.908  14.182 -0.01 -0.00    -0.346 OA 
DOCKED: ATOM      2  C   UNL     1     -39.179 -11.990  14.317 -0.11 +0.00    +0.130 C  
DOCKED: ATOM      3  C   UNL     1     -39.150 -12.620  12.954 -0.24 +0.00    +0.004 A  
DOCKED: ATOM      4  C   UNL     1     -39.954 -11.894  12.087 -0.26 +0.00    +0.006 A  
DOCKED: ATOM      5  C   UNL     1     -40.553 -10.744  12.800 -0.17 +0.00    +0.169 C  
DOCKED: ATOM      6  C   UNL     1     -38.457 -13.738  12.514 -0.21 -0.00    -0.001 A  
DOCKED: ATOM      7  C   UNL     1     -40.097 -12.261  10.760 -0.02 +0.00    +0.008 A  
DOCKED: ATOM      8  C   UNL     1     -38.595 -14.124  11.180 -0.45 +0.00    +0.010 A  
DOCKED: ATOM      9  C   UNL     1     -39.410 -13.388  10.307 -0.41 +0.00    +0.068 A  
DOCKED: ATOM     10  N   UNL     1     -39.640 -14.129   7.835 -2.00 -0.00    -0.191 NA 
DOCKED: ATOM     11  C   UNL     1     -39.538 -13.797   8.944 -0.40 +0.00    +0.101 C  
DOCKED: ENDROOT
DOCKED: BRANCH   2  12
DOCKED: ATOM     12  C   UNL     1     -37.840 -11.384  14.719 -0.13 +0.00    +0.038 C  
DOCKED: BRANCH  12  13
DOCKED: ATOM     13  C   UNL     1     -37.638 -10.009  14.085 -0.14 +0.00    +0.038 C  
DOCKED: BRANCH  13  14
DOCKED: ATOM     14  C   UNL     1     -38.325  -8.919  14.905 -0.03 +0.00    +0.251 C  
DOCKED: BRANCH  14  15
DOCKED: ATOM     15  N   UNL     1     -38.404  -9.313  16.307 -0.01 +0.00    +0.141 N  
DOCKED: ATOM     16  C   UNL     1     -37.568  -8.443  17.136 -0.00 +0.00    +0.285 C  
DOCKED: ATOM     17  C   UNL     1     -39.791  -9.280  16.774 -0.00 +0.00    +0.285 C  
DOCKED: ENDBRANCH  14  15
DOCKED: ENDBRANCH  13  14
DOCKED: ENDBRANCH  12  13
DOCKED: ENDBRANCH   2  12
DOCKED: BRANCH   2  18
DOCKED: ATOM     18  C   UNL     1     -39.692 -12.911  15.372 -0.14 +0.00    +0.006 A  
DOCKED: ATOM     19  C   UNL     1     -38.983 -13.071  16.562 -0.14 +0.00    +0.001 A  
DOCKED: ATOM     20  C   UNL     1     -39.464 -13.934  17.548 -0.13 +0.00    +0.029 A  
DOCKED: ATOM     21  C   UNL     1     -40.652 -14.634  17.344 +0.03 +0.00    +0.140 A  
DOCKED: ATOM     22  C   UNL     1     -41.361 -14.473  16.153 -0.14 +0.00    +0.029 A  
DOCKED: ATOM     23  F   UNL     1     -41.114 -15.460  18.291 -0.06 -0.00    -0.204 F  
DOCKED: ATOM     24  C   UNL     1     -40.881 -13.611  15.166 -0.18 +0.00    +0.001 A  
DOCKED: ENDBRANCH   2  18
DOCKED: TORSDOF 5
DOCKED: TER
DOCKED: ENDMDL
________________________________________________________________________________


    FINAL DOCKED STATE:
    ________________________


Run:   467 / 512
Time taken for this run:   0.002s

DOCKED: MODEL        467
DOCKED: USER    Run = 467
DOCKED: USER
DOCKED: USER    Estimated Free Energy of Binding    =  -3.80 kcal/mol  [=(1)+(2)+(3)-(4)]
DOCKED: USER
DOCKED: USER    (1) Final Intermolecular Energy     =  -5.29 kcal/mol
DOCKED: USER        vdW + Hbond + desolv Energy     =  -5.29 kcal/mol
DOCKED: USER        Electrostatic Energy            =  +0.00 kcal/mol
DOCKED: USER        Moving Ligand-Fixed Receptor    =  -5.29 kcal/mol
DOCKED: USER        Moving Ligand-Moving Receptor   =  +0.00 kcal/mol
DOCKED: USER    (2) Final Total Internal Energy     =  -1.48 kcal/mol
DOCKED: USER    (3) Torsional Free Energy           =  +1.49 kcal/mol
DOCKED: USER    (4) Unbound System's Energy         =  -1.48 kcal/mol
DOCKED: USER
DOCKED: USER
DOCKED: REMARK  5 active torsions:
DOCKED: REMARK  status: ('A' for Active; 'I' for Inactive)
DOCKED: REMARK    1  A    between atoms: C_2  and  C_19 
DOCKED: REMARK    2  A    between atoms: C_2  and  C_11 
DOCKED: REMARK    3  A    between atoms: C_19  and  C_20 
DOCKED: REMARK    4  A    between atoms: C_20  and  C_21 
DOCKED: REMARK    5  A    between atoms: C_21  and  N_22 
DOCKED: USER                              x       y       z     vdW  Elec       q    Type
DOCKED: USER                           _______ _______ _______ _____ _____    ______ ____
DOCKED: ROOT
DOCKED: ATOM      1  O   UNL     1     -38.534  -8.073  13.373 -0.06 -0.00    -0.346 OA 
DOCKED: ATOM      2  C   UNL     1     -37.386  -8.803  13.911 -0.10 +0.00    +0.130 C  
DOCKED: ATOM      3  C   UNL     1     -37.614 -10.216  13.458 -0.20 +0.00    +0.004 A  
DOCKED: ATOM      4  C   UNL     1     -38.733 -10.269  12.639 -0.25 +0.00    +0.006 A  
DOCKED: ATOM      5  C   UNL     1     -39.308  -8.914  12.486 -0.16 +0.00    +0.169 C  
DOCKED: ATOM      6  C   UNL     1     -36.882 -11.361  13.738 -0.22 -0.00    -0.001 A  
DOCKED: ATOM      7  C   UNL     1     -39.161 -11.461  12.079 -0.28 +0.00    +0.008 A  
DOCKED: ATOM      8  C   UNL     1     -37.303 -12.571  13.184 -0.32 +0.00    +0.010 A  
DOCKED: ATOM      9  C   UNL     1     -38.436 -12.620  12.359 -0.29 +0.00    +0.068 A  
DOCKED: ATOM     10  N   UNL     1     -39.187 -14.883  11.343 -2.61 -0.00    -0.191 NA 
DOCKED: ATOM     11  C   UNL     1     -38.851 -13.868  11.799 -0.28 +0.00    +0.101 C  
DOCKED: ENDROOT
DOCKED: BRANCH   2  12
DOCKED: ATOM     12  C   UNL     1     -36.113  -8.193  13.336 -0.14 +0.00    +0.038 C  
DOCKED: BRANCH  12  13
DOCKED: ATOM     13  C   UNL     1     -36.415  -6.929  12.533 -0.12 +0.00    +0.038 C  
DOCKED: BRANCH  13  14
DOCKED: ATOM     14  C   UNL     1     -36.768  -5.764  13.455 -0.03 +0.00    +0.251 C  
DOCKED: BRANCH  14  15
DOCKED: ATOM     15  N   UNL     1     -37.931  -5.047  12.944 -0.04 +0.00    +0.141 N  
DOCKED: ATOM     16  C   UNL     1     -38.417  -5.666  11.711 -0.11 +0.00    +0.285 C  
DOCKED: ATOM     17  C   UNL     1     -38.996  -5.010  13.948 -0.01 +0.00    +0.285 C  
DOCKED: ENDBRANCH  14  15
DOCKED: ENDBRANCH  13  14
DOCKED: ENDBRANCH  12  13
DOCKED: ENDBRANCH   2  12
DOCKED: BRANCH   2  18
DOCKED: ATOM     18  C   UNL     1     -37.432  -8.654  15.395 -0.03 +0.00    +0.006 A  
DOCKED: ATOM     19  C   UNL     1     -36.292  -8.250  16.090 -0.02 +0.00    +0.001 A  
DOCKED: ATOM     20  C   UNL     1     -36.336  -8.112  17.478 -0.00 +0.00    +0.029 A  
DOCKED: ATOM     21  C   UNL     1     -37.518  -8.376  18.168 +0.00 +0.00    +0.140 A  
DOCKED: ATOM     22  C   UNL     1     -38.657  -8.780  17.473 -0.00 +0.00    +0.029 A  
DOCKED: ATOM     23  F   UNL     1     -37.560  -8.242  19.500 +0.00 -0.00    -0.204 F  
DOCKED: ATOM     24  C   UNL     1     -38.614  -8.919  16.084 -0.02 +0.00    +0.001 A  
DOCKED: ENDBRANCH   2  18
DOCKED: TORSDOF 5
DOCKED: TER
DOCKED: ENDMDL
________________________________________________________________________________


    FINAL DOCKED STATE:
    ________________________


Run:   468 / 512
Time taken for this run:   0.002s

DOCKED: MODEL        468
DOCKED: USER    Run = 468
DOCKED: USER
DOCKED: USER    Estimated Free Energy of Binding    =  -4.50 kcal/mol  [=(1)+(2)+(3)-(4)]
DOCKED: USER
DOCKED: USER    (1) Final Intermolecular Energy     =  -5.99 kcal/mol
DOCKED: USER        vdW + Hbond + desolv Energy     =  -5.99 kcal/mol
DOCKED: USER        Electrostatic Energy            =  +0.00 kcal/mol
DOCKED: USER        Moving Ligand-Fixed Receptor    =  -5.99 kcal/mol
DOCKED: USER        Moving Ligand-Moving Receptor   =  +0.00 kcal/mol
DOCKED: USER    (2) Final Total Internal Energy     =  -1.29 kcal/mol
DOCKED: USER    (3) Torsional Free Energy           =  +1.49 kcal/mol
DOCKED: USER    (4) Unbound System's Energy         =  -1.29 kcal/mol
DOCKED: USER
DOCKED: USER
DOCKED: REMARK  5 active torsions:
DOCKED: REMARK  status: ('A' for Active; 'I' for Inactive)
DOCKED: REMARK    1  A    between atoms: C_2  and  C_19 
DOCKED: REMARK    2  A    between atoms: C_2  and  C_11 
DOCKED: REMARK    3  A    between atoms: C_19  and  C_20 
DOCKED: REMARK    4  A    between atoms: C_20  and  C_21 
DOCKED: REMARK    5  A    between atoms: C_21  and  N_22 
DOCKED: USER                              x       y       z     vdW  Elec       q    Type
DOCKED: USER                           _______ _______ _______ _____ _____    ______ ____
DOCKED: ROOT
DOCKED: ATOM      1  O   UNL     1     -36.988  -8.037  12.936 -0.06 -0.00    -0.346 OA 
DOCKED: ATOM      2  C   UNL     1     -38.397  -8.064  13.333 -0.15 +0.00    +0.130 C  
DOCKED: ATOM      3  C   UNL     1     -38.852  -9.442  12.947 -0.22 +0.00    +0.004 A  
DOCKED: ATOM      4  C   UNL     1     -37.773 -10.175  12.474 -0.27 +0.00    +0.006 A  
DOCKED: ATOM      5  C   UNL     1     -36.545  -9.351  12.525 -0.18 +0.00    +0.169 C  
DOCKED: ATOM      6  C   UNL     1     -40.118 -10.005  13.019 -0.22 -0.00    -0.001 A  
DOCKED: ATOM      7  C   UNL     1     -37.921 -11.486  12.055 -0.33 +0.00    +0.008 A  
DOCKED: ATOM      8  C   UNL     1     -40.284 -11.325  12.597 -0.22 +0.00    +0.010 A  
DOCKED: ATOM      9  C   UNL     1     -39.191 -12.062  12.117 -0.26 +0.00    +0.068 A  
DOCKED: ATOM     10  N   UNL     1     -39.534 -14.511  11.346 -2.57 -0.00    -0.191 NA 
DOCKED: ATOM     11  C   UNL     1     -39.380 -13.412  11.691 -0.36 +0.00    +0.101 C  
DOCKED: ENDROOT
DOCKED: BRANCH   2  12
DOCKED: ATOM     12  C   UNL     1     -38.481  -7.810  14.833 -0.05 +0.00    +0.038 C  
DOCKED: BRANCH  12  13
DOCKED: ATOM     13  C   UNL     1     -37.724  -8.878  15.622 -0.03 +0.00    +0.038 C  
DOCKED: BRANCH  13  14
DOCKED: ATOM     14  C   UNL     1     -38.682  -9.922  16.191 -0.01 +0.00    +0.251 C  
DOCKED: BRANCH  14  15
DOCKED: ATOM     15  N   UNL     1     -37.976 -11.174  16.443 -0.03 +0.00    +0.141 N  
DOCKED: ATOM     16  C   UNL     1     -37.987 -11.494  17.871 -0.01 +0.00    +0.285 C  
DOCKED: ATOM     17  C   UNL     1     -38.574 -12.266  15.673 -0.05 +0.00    +0.285 C  
DOCKED: ENDBRANCH  14  15
DOCKED: ENDBRANCH  13  14
DOCKED: ENDBRANCH  12  13
DOCKED: ENDBRANCH   2  12
DOCKED: BRANCH   2  18
DOCKED: ATOM     18  C   UNL     1     -39.087  -6.987  12.565 -0.19 +0.00    +0.006 A  
DOCKED: ATOM     19  C   UNL     1     -38.346  -6.114  11.770 -0.15 +0.00    +0.001 A  
DOCKED: ATOM     20  C   UNL     1     -38.992  -5.107  11.052 -0.16 +0.00    +0.029 A  
DOCKED: ATOM     21  C   UNL     1     -40.378  -4.974  11.131 -0.09 +0.00    +0.140 A  
DOCKED: ATOM     22  C   UNL     1     -41.119  -5.848  11.927 -0.13 +0.00    +0.029 A  
DOCKED: ATOM     23  F   UNL     1     -40.999  -4.009  10.441 -0.02 -0.00    -0.204 F  
DOCKED: ATOM     24  C   UNL     1     -40.473  -6.855  12.645 -0.21 +0.00    +0.001 A  
DOCKED: ENDBRANCH   2  18
DOCKED: TORSDOF 5
DOCKED: TER
DOCKED: ENDMDL
________________________________________________________________________________


    FINAL DOCKED STATE:
    ________________________


Run:   469 / 512
Time taken for this run:   0.002s

DOCKED: MODEL        469
DOCKED: USER    Run = 469
DOCKED: USER
DOCKED: USER    Estimated Free Energy of Binding    =  -4.39 kcal/mol  [=(1)+(2)+(3)-(4)]
DOCKED: USER
DOCKED: USER    (1) Final Intermolecular Energy     =  -5.89 kcal/mol
DOCKED: USER        vdW + Hbond + desolv Energy     =  -5.89 kcal/mol
DOCKED: USER        Electrostatic Energy            =  +0.00 kcal/mol
DOCKED: USER        Moving Ligand-Fixed Receptor    =  -5.89 kcal/mol
DOCKED: USER        Moving Ligand-Moving Receptor   =  +0.00 kcal/mol
DOCKED: USER    (2) Final Total Internal Energy     =  -1.37 kcal/mol
DOCKED: USER    (3) Torsional Free Energy           =  +1.49 kcal/mol
DOCKED: USER    (4) Unbound System's Energy         =  -1.37 kcal/mol
DOCKED: USER
DOCKED: USER
DOCKED: REMARK  5 active torsions:
DOCKED: REMARK  status: ('A' for Active; 'I' for Inactive)
DOCKED: REMARK    1  A    between atoms: C_2  and  C_19 
DOCKED: REMARK    2  A    between atoms: C_2  and  C_11 
DOCKED: REMARK    3  A    between atoms: C_19  and  C_20 
DOCKED: REMARK    4  A    between atoms: C_20  and  C_21 
DOCKED: REMARK    5  A    between atoms: C_21  and  N_22 
DOCKED: USER                              x       y       z     vdW  Elec       q    Type
DOCKED: USER                           _______ _______ _______ _____ _____    ______ ____
DOCKED: ROOT
DOCKED: ATOM      1  O   UNL     1     -40.242 -10.965  14.066 -0.01 -0.00    -0.346 OA 
DOCKED: ATOM      2  C   UNL     1     -38.849 -11.377  13.888 -0.13 +0.00    +0.130 C  
DOCKED: ATOM      3  C   UNL     1     -38.832 -12.011  12.528 -0.28 +0.00    +0.004 A  
DOCKED: ATOM      4  C   UNL     1     -40.079 -11.875  11.934 -0.24 +0.00    +0.006 A  
DOCKED: ATOM      5  C   UNL     1     -40.990 -11.141  12.841 -0.18 +0.00    +0.169 C  
DOCKED: ATOM      6  C   UNL     1     -37.793 -12.647  11.864 -0.37 -0.00    -0.001 A  
DOCKED: ATOM      7  C   UNL     1     -40.331 -12.370  10.666 -0.01 +0.00    +0.008 A  
DOCKED: ATOM      8  C   UNL     1     -38.033 -13.156  10.586 -0.31 +0.00    +0.010 A  
DOCKED: ATOM      9  C   UNL     1     -39.296 -13.017   9.990 -0.41 +0.00    +0.068 A  
DOCKED: ATOM     10  N   UNL     1     -39.706 -13.969   7.616 -2.42 -0.00    -0.191 NA 
DOCKED: ATOM     11  C   UNL     1     -39.522 -13.543   8.681 -0.32 +0.00    +0.101 C  
DOCKED: ENDROOT
DOCKED: BRANCH   2  12
DOCKED: ATOM     12  C   UNL     1     -37.964 -10.139  13.977 -0.15 +0.00    +0.038 C  
DOCKED: BRANCH  12  13
DOCKED: ATOM     13  C   UNL     1     -38.754  -8.923  14.457 -0.09 +0.00    +0.038 C  
DOCKED: BRANCH  13  14
DOCKED: ATOM     14  C   UNL     1     -37.967  -8.134  15.502 -0.01 +0.00    +0.251 C  
DOCKED: BRANCH  14  15
DOCKED: ATOM     15  N   UNL     1     -38.075  -8.774  16.807 -0.00 +0.00    +0.141 N  
DOCKED: ATOM     16  C   UNL     1     -39.334  -9.512  16.919 -0.00 +0.00    +0.285 C  
DOCKED: ATOM     17  C   UNL     1     -36.940  -9.669  17.038 -0.00 +0.00    +0.285 C  
DOCKED: ENDBRANCH  14  15
DOCKED: ENDBRANCH  13  14
DOCKED: ENDBRANCH  12  13
DOCKED: ENDBRANCH   2  12
DOCKED: BRANCH   2  18
DOCKED: ATOM     18  C   UNL     1     -38.536 -12.342  14.983 -0.13 +0.00    +0.006 A  
DOCKED: ATOM     19  C   UNL     1     -37.216 -12.724  15.219 -0.19 +0.00    +0.001 A  
DOCKED: ATOM     20  C   UNL     1     -36.925 -13.626  16.243 -0.12 +0.00    +0.029 A  
DOCKED: ATOM     21  C   UNL     1     -37.953 -14.144  17.029 -0.14 +0.00    +0.140 A  
DOCKED: ATOM     22  C   UNL     1     -39.273 -13.761  16.793 -0.15 +0.00    +0.029 A  
DOCKED: ATOM     23  F   UNL     1     -37.674 -15.009  18.013 -0.07 -0.00    -0.204 F  
DOCKED: ATOM     24  C   UNL     1     -39.565 -12.859  15.768 -0.13 +0.00    +0.001 A  
DOCKED: ENDBRANCH   2  18
DOCKED: TORSDOF 5
DOCKED: TER
DOCKED: ENDMDL
________________________________________________________________________________


    FINAL DOCKED STATE:
    ________________________


Run:   470 / 512
Time taken for this run:   0.002s

DOCKED: MODEL        470
DOCKED: USER    Run = 470
DOCKED: USER
DOCKED: USER    Estimated Free Energy of Binding    =  -4.33 kcal/mol  [=(1)+(2)+(3)-(4)]
DOCKED: USER
DOCKED: USER    (1) Final Intermolecular Energy     =  -5.83 kcal/mol
DOCKED: USER        vdW + Hbond + desolv Energy     =  -5.83 kcal/mol
DOCKED: USER        Electrostatic Energy            =  +0.00 kcal/mol
DOCKED: USER        Moving Ligand-Fixed Receptor    =  -5.83 kcal/mol
DOCKED: USER        Moving Ligand-Moving Receptor   =  +0.00 kcal/mol
DOCKED: USER    (2) Final Total Internal Energy     =  -1.16 kcal/mol
DOCKED: USER    (3) Torsional Free Energy           =  +1.49 kcal/mol
DOCKED: USER    (4) Unbound System's Energy         =  -1.16 kcal/mol
DOCKED: USER
DOCKED: USER
DOCKED: REMARK  5 active torsions:
DOCKED: REMARK  status: ('A' for Active; 'I' for Inactive)
DOCKED: REMARK    1  A    between atoms: C_2  and  C_19 
DOCKED: REMARK    2  A    between atoms: C_2  and  C_11 
DOCKED: REMARK    3  A    between atoms: C_19  and  C_20 
DOCKED: REMARK    4  A    between atoms: C_20  and  C_21 
DOCKED: REMARK    5  A    between atoms: C_21  and  N_22 
DOCKED: USER                              x       y       z     vdW  Elec       q    Type
DOCKED: USER                           _______ _______ _______ _____ _____    ______ ____
DOCKED: ROOT
DOCKED: ATOM      1  O   UNL     1     -34.618 -10.542  14.573 -0.08 -0.00    -0.346 OA 
DOCKED: ATOM      2  C   UNL     1     -35.547  -9.648  13.881 -0.13 +0.00    +0.130 C  
DOCKED: ATOM      3  C   UNL     1     -36.520 -10.581  13.221 -0.22 +0.00    +0.004 A  
DOCKED: ATOM      4  C   UNL     1     -36.239 -11.888  13.592 -0.24 +0.00    +0.006 A  
DOCKED: ATOM      5  C   UNL     1     -35.086 -11.910  14.520 -0.17 +0.00    +0.169 C  
DOCKED: ATOM      6  C   UNL     1     -37.577 -10.295  12.369 -0.27 -0.00    -0.001 A  
DOCKED: ATOM      7  C   UNL     1     -36.996 -12.949  13.124 -0.34 +0.00    +0.008 A  
DOCKED: ATOM      8  C   UNL     1     -38.347 -11.354  11.885 -0.32 +0.00    +0.010 A  
DOCKED: ATOM      9  C   UNL     1     -38.058 -12.674  12.261 -0.31 +0.00    +0.068 A  
DOCKED: ATOM     10  N   UNL     1     -39.510 -14.616  11.349 -2.55 -0.00    -0.191 NA 
DOCKED: ATOM     11  C   UNL     1     -38.858 -13.745  11.758 -0.37 +0.00    +0.101 C  
DOCKED: ENDROOT
DOCKED: BRANCH   2  12
DOCKED: ATOM     12  C   UNL     1     -36.203  -8.741  14.916 -0.06 +0.00    +0.038 C  
DOCKED: BRANCH  12  13
DOCKED: ATOM     13  C   UNL     1     -35.384  -7.472  15.144 -0.03 +0.00    +0.038 C  
DOCKED: BRANCH  13  14
DOCKED: ATOM     14  C   UNL     1     -36.211  -6.405  15.859 -0.00 +0.00    +0.251 C  
DOCKED: BRANCH  14  15
DOCKED: ATOM     15  N   UNL     1     -36.624  -5.369  14.920 -0.01 +0.00    +0.141 N  
DOCKED: ATOM     16  C   UNL     1     -35.496  -4.945  14.090 -0.00 +0.00    +0.285 C  
DOCKED: ATOM     17  C   UNL     1     -37.723  -5.846  14.078 -0.02 +0.00    +0.285 C  
DOCKED: ENDBRANCH  14  15
DOCKED: ENDBRANCH  13  14
DOCKED: ENDBRANCH  12  13
DOCKED: ENDBRANCH   2  12
DOCKED: BRANCH   2  18
DOCKED: ATOM     18  C   UNL     1     -34.745  -8.856  12.903 -0.13 +0.00    +0.006 A  
DOCKED: ATOM     19  C   UNL     1     -33.353  -8.851  12.986 -0.11 +0.00    +0.001 A  
DOCKED: ATOM     20  C   UNL     1     -32.604  -8.110  12.071 -0.09 +0.00    +0.029 A  
DOCKED: ATOM     21  C   UNL     1     -33.247  -7.377  11.075 -0.08 +0.00    +0.140 A  
DOCKED: ATOM     22  C   UNL     1     -34.639  -7.383  10.992 -0.14 +0.00    +0.029 A  
DOCKED: ATOM     23  F   UNL     1     -32.528  -6.668  10.196 -0.00 -0.00    -0.204 F  
DOCKED: ATOM     24  C   UNL     1     -35.389  -8.123  11.908 -0.16 +0.00    +0.001 A  
DOCKED: ENDBRANCH   2  18
DOCKED: TORSDOF 5
DOCKED: TER
DOCKED: ENDMDL
________________________________________________________________________________


    FINAL DOCKED STATE:
    ________________________


Run:   471 / 512
Time taken for this run:   0.002s

DOCKED: MODEL        471
DOCKED: USER    Run = 471
DOCKED: USER
DOCKED: USER    Estimated Free Energy of Binding    =  -4.57 kcal/mol  [=(1)+(2)+(3)-(4)]
DOCKED: USER
DOCKED: USER    (1) Final Intermolecular Energy     =  -6.06 kcal/mol
DOCKED: USER        vdW + Hbond + desolv Energy     =  -6.06 kcal/mol
DOCKED: USER        Electrostatic Energy            =  +0.00 kcal/mol
DOCKED: USER        Moving Ligand-Fixed Receptor    =  -6.06 kcal/mol
DOCKED: USER        Moving Ligand-Moving Receptor   =  +0.00 kcal/mol
DOCKED: USER    (2) Final Total Internal Energy     =  -1.39 kcal/mol
DOCKED: USER    (3) Torsional Free Energy           =  +1.49 kcal/mol
DOCKED: USER    (4) Unbound System's Energy         =  -1.39 kcal/mol
DOCKED: USER
DOCKED: USER
DOCKED: REMARK  5 active torsions:
DOCKED: REMARK  status: ('A' for Active; 'I' for Inactive)
DOCKED: REMARK    1  A    between atoms: C_2  and  C_19 
DOCKED: REMARK    2  A    between atoms: C_2  and  C_11 
DOCKED: REMARK    3  A    between atoms: C_19  and  C_20 
DOCKED: REMARK    4  A    between atoms: C_20  and  C_21 
DOCKED: REMARK    5  A    between atoms: C_21  and  N_22 
DOCKED: USER                              x       y       z     vdW  Elec       q    Type
DOCKED: USER                           _______ _______ _______ _____ _____    ______ ____
DOCKED: ROOT
DOCKED: ATOM      1  O   UNL     1     -32.739  -5.069   5.268 -0.01 -0.00    -0.346 OA 
DOCKED: ATOM      2  C   UNL     1     -34.076  -4.910   5.841 -0.17 +0.00    +0.130 C  
DOCKED: ATOM      3  C   UNL     1     -34.792  -4.042   4.847 -0.28 +0.00    +0.004 A  
DOCKED: ATOM      4  C   UNL     1     -33.974  -3.816   3.749 -0.23 +0.00    +0.006 A  
DOCKED: ATOM      5  C   UNL     1     -32.683  -4.518   3.932 -0.10 +0.00    +0.169 C  
DOCKED: ATOM      6  C   UNL     1     -36.070  -3.505   4.904 -0.21 -0.00    -0.001 A  
DOCKED: ATOM      7  C   UNL     1     -34.399  -3.047   2.679 -0.22 +0.00    +0.008 A  
DOCKED: ATOM      8  C   UNL     1     -36.512  -2.724   3.835 -0.36 +0.00    +0.010 A  
DOCKED: ATOM      9  C   UNL     1     -35.680  -2.497   2.728 -0.25 +0.00    +0.068 A  
DOCKED: ATOM     10  N   UNL     1     -36.533  -1.046   0.758 -2.42 -0.00    -0.191 NA 
DOCKED: ATOM     11  C   UNL     1     -36.150  -1.696   1.642 -0.36 +0.00    +0.101 C  
DOCKED: ENDROOT
DOCKED: BRANCH   2  12
DOCKED: ATOM     12  C   UNL     1     -34.706  -6.290   5.986 -0.23 +0.00    +0.038 C  
DOCKED: BRANCH  12  13
DOCKED: ATOM     13  C   UNL     1     -33.652  -7.355   6.281 -0.19 +0.00    +0.038 C  
DOCKED: BRANCH  13  14
DOCKED: ATOM     14  C   UNL     1     -33.660  -7.742   7.759 -0.12 +0.00    +0.251 C  
DOCKED: BRANCH  14  15
DOCKED: ATOM     15  N   UNL     1     -32.325  -8.146   8.185 -0.06 +0.00    +0.141 N  
DOCKED: ATOM     16  C   UNL     1     -31.335  -7.822   7.157 -0.02 +0.00    +0.285 C  
DOCKED: ATOM     17  C   UNL     1     -31.972  -7.501   9.451 -0.03 +0.00    +0.285 C  
DOCKED: ENDBRANCH  14  15
DOCKED: ENDBRANCH  13  14
DOCKED: ENDBRANCH  12  13
DOCKED: ENDBRANCH   2  12
DOCKED: BRANCH   2  18
DOCKED: ATOM     18  C   UNL     1     -33.906  -4.253   7.170 -0.16 +0.00    +0.006 A  
DOCKED: ATOM     19  C   UNL     1     -32.672  -3.712   7.528 -0.13 +0.00    +0.001 A  
DOCKED: ATOM     20  C   UNL     1     -32.514  -3.099   8.771 -0.04 +0.00    +0.029 A  
DOCKED: ATOM     21  C   UNL     1     -33.591  -3.026   9.654 -0.08 +0.00    +0.140 A  
DOCKED: ATOM     22  C   UNL     1     -34.825  -3.567   9.296 -0.16 +0.00    +0.029 A  
DOCKED: ATOM     23  F   UNL     1     -33.440  -2.435  10.847 -0.04 -0.00    -0.204 F  
DOCKED: ATOM     24  C   UNL     1     -34.984  -4.181   8.052 -0.20 +0.00    +0.001 A  
DOCKED: ENDBRANCH   2  18
DOCKED: TORSDOF 5
DOCKED: TER
DOCKED: ENDMDL
________________________________________________________________________________


    FINAL DOCKED STATE:
    ________________________


Run:   472 / 512
Time taken for this run:   0.002s

DOCKED: MODEL        472
DOCKED: USER    Run = 472
DOCKED: USER
DOCKED: USER    Estimated Free Energy of Binding    =  -4.28 kcal/mol  [=(1)+(2)+(3)-(4)]
DOCKED: USER
DOCKED: USER    (1) Final Intermolecular Energy     =  -5.77 kcal/mol
DOCKED: USER        vdW + Hbond + desolv Energy     =  -5.77 kcal/mol
DOCKED: USER        Electrostatic Energy            =  +0.00 kcal/mol
DOCKED: USER        Moving Ligand-Fixed Receptor    =  -5.77 kcal/mol
DOCKED: USER        Moving Ligand-Moving Receptor   =  +0.00 kcal/mol
DOCKED: USER    (2) Final Total Internal Energy     =  -1.47 kcal/mol
DOCKED: USER    (3) Torsional Free Energy           =  +1.49 kcal/mol
DOCKED: USER    (4) Unbound System's Energy         =  -1.47 kcal/mol
DOCKED: USER
DOCKED: USER
DOCKED: REMARK  5 active torsions:
DOCKED: REMARK  status: ('A' for Active; 'I' for Inactive)
DOCKED: REMARK    1  A    between atoms: C_2  and  C_19 
DOCKED: REMARK    2  A    between atoms: C_2  and  C_11 
DOCKED: REMARK    3  A    between atoms: C_19  and  C_20 
DOCKED: REMARK    4  A    between atoms: C_20  and  C_21 
DOCKED: REMARK    5  A    between atoms: C_21  and  N_22 
DOCKED: USER                              x       y       z     vdW  Elec       q    Type
DOCKED: USER                           _______ _______ _______ _____ _____    ______ ____
DOCKED: ROOT
DOCKED: ATOM      1  O   UNL     1     -34.795 -10.488  14.698 -0.07 -0.00    -0.346 OA 
DOCKED: ATOM      2  C   UNL     1     -35.620  -9.621  13.856 -0.13 +0.00    +0.130 C  
DOCKED: ATOM      3  C   UNL     1     -36.565 -10.572  13.179 -0.22 +0.00    +0.004 A  
DOCKED: ATOM      4  C   UNL     1     -36.371 -11.854  13.673 -0.25 +0.00    +0.006 A  
DOCKED: ATOM      5  C   UNL     1     -35.310 -11.840  14.704 -0.17 +0.00    +0.169 C  
DOCKED: ATOM      6  C   UNL     1     -37.527 -10.319  12.212 -0.26 -0.00    -0.001 A  
DOCKED: ATOM      7  C   UNL     1     -37.123 -12.923  13.217 -0.34 +0.00    +0.008 A  
DOCKED: ATOM      8  C   UNL     1     -38.291 -11.388  11.739 -0.33 +0.00    +0.010 A  
DOCKED: ATOM      9  C   UNL     1     -38.090 -12.683  12.240 -0.31 +0.00    +0.068 A  
DOCKED: ATOM     10  N   UNL     1     -39.529 -14.643  11.344 -2.56 -0.00    -0.191 NA 
DOCKED: ATOM     11  C   UNL     1     -38.883 -13.764  11.745 -0.37 +0.00    +0.101 C  
DOCKED: ENDROOT
DOCKED: BRANCH   2  12
DOCKED: ATOM     12  C   UNL     1     -36.332  -8.615  14.753 -0.06 +0.00    +0.038 C  
DOCKED: BRANCH  12  13
DOCKED: ATOM     13  C   UNL     1     -35.399  -7.478  15.165 -0.02 +0.00    +0.038 C  
DOCKED: BRANCH  13  14
DOCKED: ATOM     14  C   UNL     1     -34.784  -7.743  16.537 -0.00 +0.00    +0.251 C  
DOCKED: BRANCH  14  15
DOCKED: ATOM     15  N   UNL     1     -33.638  -8.636  16.416 -0.01 +0.00    +0.141 N  
DOCKED: ATOM     16  C   UNL     1     -32.385  -7.883  16.500 -0.00 +0.00    +0.285 C  
DOCKED: ATOM     17  C   UNL     1     -33.679  -9.671  17.451 -0.01 +0.00    +0.285 C  
DOCKED: ENDBRANCH  14  15
DOCKED: ENDBRANCH  13  14
DOCKED: ENDBRANCH  12  13
DOCKED: ENDBRANCH   2  12
DOCKED: BRANCH   2  18
DOCKED: ATOM     18  C   UNL     1     -34.701  -8.936  12.902 -0.11 +0.00    +0.006 A  
DOCKED: ATOM     19  C   UNL     1     -35.222  -8.135  11.886 -0.16 +0.00    +0.001 A  
DOCKED: ATOM     20  C   UNL     1     -34.361  -7.495  10.994 -0.13 +0.00    +0.029 A  
DOCKED: ATOM     21  C   UNL     1     -32.982  -7.656  11.118 -0.08 +0.00    +0.140 A  
DOCKED: ATOM     22  C   UNL     1     -32.462  -8.458  12.134 -0.09 +0.00    +0.029 A  
DOCKED: ATOM     23  F   UNL     1     -32.156  -7.040  10.262 -0.00 -0.00    -0.204 F  
DOCKED: ATOM     24  C   UNL     1     -33.322  -9.099  13.027 -0.08 +0.00    +0.001 A  
DOCKED: ENDBRANCH   2  18
DOCKED: TORSDOF 5
DOCKED: TER
DOCKED: ENDMDL
________________________________________________________________________________


    FINAL DOCKED STATE:
    ________________________


Run:   473 / 512
Time taken for this run:   0.002s

DOCKED: MODEL        473
DOCKED: USER    Run = 473
DOCKED: USER
DOCKED: USER    Estimated Free Energy of Binding    =  -4.48 kcal/mol  [=(1)+(2)+(3)-(4)]
DOCKED: USER
DOCKED: USER    (1) Final Intermolecular Energy     =  -5.97 kcal/mol
DOCKED: USER        vdW + Hbond + desolv Energy     =  -5.97 kcal/mol
DOCKED: USER        Electrostatic Energy            =  +0.00 kcal/mol
DOCKED: USER        Moving Ligand-Fixed Receptor    =  -5.97 kcal/mol
DOCKED: USER        Moving Ligand-Moving Receptor   =  +0.00 kcal/mol
DOCKED: USER    (2) Final Total Internal Energy     =  -1.04 kcal/mol
DOCKED: USER    (3) Torsional Free Energy           =  +1.49 kcal/mol
DOCKED: USER    (4) Unbound System's Energy         =  -1.04 kcal/mol
DOCKED: USER
DOCKED: USER
DOCKED: REMARK  5 active torsions:
DOCKED: REMARK  status: ('A' for Active; 'I' for Inactive)
DOCKED: REMARK    1  A    between atoms: C_2  and  C_19 
DOCKED: REMARK    2  A    between atoms: C_2  and  C_11 
DOCKED: REMARK    3  A    between atoms: C_19  and  C_20 
DOCKED: REMARK    4  A    between atoms: C_20  and  C_21 
DOCKED: REMARK    5  A    between atoms: C_21  and  N_22 
DOCKED: USER                              x       y       z     vdW  Elec       q    Type
DOCKED: USER                           _______ _______ _______ _____ _____    ______ ____
DOCKED: ROOT
DOCKED: ATOM      1  O   UNL     1     -37.976 -10.672  15.017 -0.01 -0.00    -0.346 OA 
DOCKED: ATOM      2  C   UNL     1     -37.162 -11.888  15.064 -0.13 +0.00    +0.130 C  
DOCKED: ATOM      3  C   UNL     1     -37.407 -12.535  13.732 -0.27 +0.00    +0.004 A  
DOCKED: ATOM      4  C   UNL     1     -38.201 -11.708  12.949 -0.26 +0.00    +0.006 A  
DOCKED: ATOM      5  C   UNL     1     -38.522 -10.469  13.693 -0.13 +0.00    +0.169 C  
DOCKED: ATOM      6  C   UNL     1     -36.953 -13.753  13.246 -0.40 -0.00    -0.001 A  
DOCKED: ATOM      7  C   UNL     1     -38.571 -12.069  11.665 -0.36 +0.00    +0.008 A  
DOCKED: ATOM      8  C   UNL     1     -37.321 -14.133  11.954 -0.38 +0.00    +0.010 A  
DOCKED: ATOM      9  C   UNL     1     -38.126 -13.295  11.168 -0.38 +0.00    +0.068 A  
DOCKED: ATOM     10  N   UNL     1     -38.787 -14.028   8.772 -1.59 -0.00    -0.191 NA 
DOCKED: ATOM     11  C   UNL     1     -38.491 -13.699   9.847 -0.51 +0.00    +0.101 C  
DOCKED: ENDROOT
DOCKED: BRANCH   2  12
DOCKED: ATOM     12  C   UNL     1     -35.706 -11.487  15.271 -0.16 +0.00    +0.038 C  
DOCKED: BRANCH  12  13
DOCKED: ATOM     13  C   UNL     1     -35.071 -11.005  13.968 -0.14 +0.00    +0.038 C  
DOCKED: BRANCH  13  14
DOCKED: ATOM     14  C   UNL     1     -33.612 -10.608  14.183 -0.07 +0.00    +0.251 C  
DOCKED: BRANCH  14  15
DOCKED: ATOM     15  N   UNL     1     -32.727 -11.704  13.806 -0.11 +0.00    +0.141 N  
DOCKED: ATOM     16  C   UNL     1     -31.585 -11.204  13.039 -0.06 +0.00    +0.285 C  
DOCKED: ATOM     17  C   UNL     1     -32.265 -12.424  14.993 -0.10 +0.00    +0.285 C  
DOCKED: ENDBRANCH  14  15
DOCKED: ENDBRANCH  13  14
DOCKED: ENDBRANCH  12  13
DOCKED: ENDBRANCH   2  12
DOCKED: BRANCH   2  18
DOCKED: ATOM     18  C   UNL     1     -37.664 -12.704  16.208 -0.14 +0.00    +0.006 A  
DOCKED: ATOM     19  C   UNL     1     -38.856 -12.357  16.842 -0.09 +0.00    +0.001 A  
DOCKED: ATOM     20  C   UNL     1     -39.324 -13.122  17.912 -0.10 +0.00    +0.029 A  
DOCKED: ATOM     21  C   UNL     1     -38.599 -14.231  18.345 -0.12 +0.00    +0.140 A  
DOCKED: ATOM     22  C   UNL     1     -37.407 -14.577  17.711 -0.24 +0.00    +0.029 A  
DOCKED: ATOM     23  F   UNL     1     -39.049 -14.965  19.371 -0.04 -0.00    -0.204 F  
DOCKED: ATOM     24  C   UNL     1     -36.938 -13.813  16.641 -0.18 +0.00    +0.001 A  
DOCKED: ENDBRANCH   2  18
DOCKED: TORSDOF 5
DOCKED: TER
DOCKED: ENDMDL
________________________________________________________________________________


    FINAL DOCKED STATE:
    ________________________


Run:   474 / 512
Time taken for this run:   0.002s

DOCKED: MODEL        474
DOCKED: USER    Run = 474
DOCKED: USER
DOCKED: USER    Estimated Free Energy of Binding    =  -4.87 kcal/mol  [=(1)+(2)+(3)-(4)]
DOCKED: USER
DOCKED: USER    (1) Final Intermolecular Energy     =  -6.37 kcal/mol
DOCKED: USER        vdW + Hbond + desolv Energy     =  -6.37 kcal/mol
DOCKED: USER        Electrostatic Energy            =  +0.00 kcal/mol
DOCKED: USER        Moving Ligand-Fixed Receptor    =  -6.37 kcal/mol
DOCKED: USER        Moving Ligand-Moving Receptor   =  +0.00 kcal/mol
DOCKED: USER    (2) Final Total Internal Energy     =  -1.08 kcal/mol
DOCKED: USER    (3) Torsional Free Energy           =  +1.49 kcal/mol
DOCKED: USER    (4) Unbound System's Energy         =  -1.08 kcal/mol
DOCKED: USER
DOCKED: USER
DOCKED: REMARK  5 active torsions:
DOCKED: REMARK  status: ('A' for Active; 'I' for Inactive)
DOCKED: REMARK    1  A    between atoms: C_2  and  C_19 
DOCKED: REMARK    2  A    between atoms: C_2  and  C_11 
DOCKED: REMARK    3  A    between atoms: C_19  and  C_20 
DOCKED: REMARK    4  A    between atoms: C_20  and  C_21 
DOCKED: REMARK    5  A    between atoms: C_21  and  N_22 
DOCKED: USER                              x       y       z     vdW  Elec       q    Type
DOCKED: USER                           _______ _______ _______ _____ _____    ______ ____
DOCKED: ROOT
DOCKED: ATOM      1  O   UNL     1     -38.991 -10.664  14.706 -0.00 -0.00    -0.346 OA 
DOCKED: ATOM      2  C   UNL     1     -37.892 -11.624  14.600 -0.12 +0.00    +0.130 C  
DOCKED: ATOM      3  C   UNL     1     -38.077 -12.235  13.242 -0.26 +0.00    +0.004 A  
DOCKED: ATOM      4  C   UNL     1     -39.123 -11.603  12.584 -0.26 +0.00    +0.006 A  
DOCKED: ATOM      5  C   UNL     1     -39.686 -10.537  13.443 -0.15 +0.00    +0.169 C  
DOCKED: ATOM      6  C   UNL     1     -37.370 -13.261  12.632 -0.39 -0.00    -0.001 A  
DOCKED: ATOM      7  C   UNL     1     -39.499 -11.975  11.305 -0.18 +0.00    +0.008 A  
DOCKED: ATOM      8  C   UNL     1     -37.740 -13.650  11.344 -0.41 +0.00    +0.010 A  
DOCKED: ATOM      9  C   UNL     1     -38.799 -13.010  10.683 -0.41 +0.00    +0.068 A  
DOCKED: ATOM     10  N   UNL     1     -39.457 -13.753   8.290 -2.02 -0.00    -0.191 NA 
DOCKED: ATOM     11  C   UNL     1     -39.162 -13.420   9.364 -0.52 +0.00    +0.101 C  
DOCKED: ENDROOT
DOCKED: BRANCH   2  12
DOCKED: ATOM     12  C   UNL     1     -36.576 -10.867  14.735 -0.14 +0.00    +0.038 C  
DOCKED: BRANCH  12  13
DOCKED: ATOM     13  C   UNL     1     -36.117 -10.304  13.392 -0.19 +0.00    +0.038 C  
DOCKED: BRANCH  13  14
DOCKED: ATOM     14  C   UNL     1     -35.993  -8.782  13.447 -0.11 +0.00    +0.251 C  
DOCKED: BRANCH  14  15
DOCKED: ATOM     15  N   UNL     1     -35.653  -8.253  12.132 -0.15 +0.00    +0.141 N  
DOCKED: ATOM     16  C   UNL     1     -36.011  -6.837  12.037 -0.08 +0.00    +0.285 C  
DOCKED: ATOM     17  C   UNL     1     -34.227  -8.435  11.856 -0.07 +0.00    +0.285 C  
DOCKED: ENDBRANCH  14  15
DOCKED: ENDBRANCH  13  14
DOCKED: ENDBRANCH  12  13
DOCKED: ENDBRANCH   2  12
DOCKED: BRANCH   2  18
DOCKED: ATOM     18  C   UNL     1     -38.063 -12.607  15.709 -0.14 +0.00    +0.006 A  
DOCKED: ATOM     19  C   UNL     1     -39.339 -12.901  16.189 -0.13 +0.00    +0.001 A  
DOCKED: ATOM     20  C   UNL     1     -39.498 -13.821  17.226 -0.13 +0.00    +0.029 A  
DOCKED: ATOM     21  C   UNL     1     -38.382 -14.445  17.782 -0.05 +0.00    +0.140 A  
DOCKED: ATOM     22  C   UNL     1     -37.106 -14.151  17.302 -0.23 +0.00    +0.029 A  
DOCKED: ATOM     23  F   UNL     1     -38.535 -15.329  18.776 -0.05 -0.00    -0.204 F  
DOCKED: ATOM     24  C   UNL     1     -36.946 -13.230  16.264 -0.17 +0.00    +0.001 A  
DOCKED: ENDBRANCH   2  18
DOCKED: TORSDOF 5
DOCKED: TER
DOCKED: ENDMDL
________________________________________________________________________________


    FINAL DOCKED STATE:
    ________________________


Run:   475 / 512
Time taken for this run:   0.002s

DOCKED: MODEL        475
DOCKED: USER    Run = 475
DOCKED: USER
DOCKED: USER    Estimated Free Energy of Binding    =  -4.79 kcal/mol  [=(1)+(2)+(3)-(4)]
DOCKED: USER
DOCKED: USER    (1) Final Intermolecular Energy     =  -6.28 kcal/mol
DOCKED: USER        vdW + Hbond + desolv Energy     =  -6.28 kcal/mol
DOCKED: USER        Electrostatic Energy            =  +0.00 kcal/mol
DOCKED: USER        Moving Ligand-Fixed Receptor    =  -6.28 kcal/mol
DOCKED: USER        Moving Ligand-Moving Receptor   =  +0.00 kcal/mol
DOCKED: USER    (2) Final Total Internal Energy     =  -1.08 kcal/mol
DOCKED: USER    (3) Torsional Free Energy           =  +1.49 kcal/mol
DOCKED: USER    (4) Unbound System's Energy         =  -1.08 kcal/mol
DOCKED: USER
DOCKED: USER
DOCKED: REMARK  5 active torsions:
DOCKED: REMARK  status: ('A' for Active; 'I' for Inactive)
DOCKED: REMARK    1  A    between atoms: C_2  and  C_19 
DOCKED: REMARK    2  A    between atoms: C_2  and  C_11 
DOCKED: REMARK    3  A    between atoms: C_19  and  C_20 
DOCKED: REMARK    4  A    between atoms: C_20  and  C_21 
DOCKED: REMARK    5  A    between atoms: C_21  and  N_22 
DOCKED: USER                              x       y       z     vdW  Elec       q    Type
DOCKED: USER                           _______ _______ _______ _____ _____    ______ ____
DOCKED: ROOT
DOCKED: ATOM      1  O   UNL     1     -37.530 -10.660  13.694 -0.06 -0.00    -0.346 OA 
DOCKED: ATOM      2  C   UNL     1     -38.749 -11.430  13.941 -0.12 +0.00    +0.130 C  
DOCKED: ATOM      3  C   UNL     1     -39.133 -11.940  12.582 -0.26 +0.00    +0.004 A  
DOCKED: ATOM      4  C   UNL     1     -38.160 -11.586  11.658 -0.35 +0.00    +0.006 A  
DOCKED: ATOM      5  C   UNL     1     -37.074 -10.840  12.333 -0.11 +0.00    +0.169 C  
DOCKED: ATOM      6  C   UNL     1     -40.249 -12.669  12.196 -0.28 -0.00    -0.001 A  
DOCKED: ATOM      7  C   UNL     1     -38.268 -11.942  10.325 -0.09 +0.00    +0.008 A  
DOCKED: ATOM      8  C   UNL     1     -40.375 -13.031  10.853 -0.35 +0.00    +0.010 A  
DOCKED: ATOM      9  C   UNL     1     -39.389 -12.670   9.923 -0.34 +0.00    +0.068 A  
DOCKED: ATOM     10  N   UNL     1     -39.652 -13.363   7.440 -3.06 -0.00    -0.191 NA 
DOCKED: ATOM     11  C   UNL     1     -39.534 -13.052   8.554 -0.26 +0.00    +0.101 C  
DOCKED: ENDROOT
DOCKED: BRANCH   2  12
DOCKED: ATOM     12  C   UNL     1     -38.424 -12.548  14.924 -0.17 +0.00    +0.038 C  
DOCKED: BRANCH  12  13
DOCKED: ATOM     13  C   UNL     1     -37.359 -12.113  15.929 -0.13 +0.00    +0.038 C  
DOCKED: BRANCH  13  14
DOCKED: ATOM     14  C   UNL     1     -35.955 -12.327  15.368 -0.06 +0.00    +0.251 C  
DOCKED: BRANCH  14  15
DOCKED: ATOM     15  N   UNL     1     -35.015 -11.401  15.990 -0.08 +0.00    +0.141 N  
DOCKED: ATOM     16  C   UNL     1     -33.804 -12.105  16.417 -0.05 +0.00    +0.285 C  
DOCKED: ATOM     17  C   UNL     1     -34.673 -10.317  15.067 -0.07 +0.00    +0.285 C  
DOCKED: ENDBRANCH  14  15
DOCKED: ENDBRANCH  13  14
DOCKED: ENDBRANCH  12  13
DOCKED: ENDBRANCH   2  12
DOCKED: BRANCH   2  18
DOCKED: ATOM     18  C   UNL     1     -39.754 -10.486  14.512 -0.09 +0.00    +0.006 A  
DOCKED: ATOM     19  C   UNL     1     -40.777  -9.986  13.708 -0.17 +0.00    +0.001 A  
DOCKED: ATOM     20  C   UNL     1     -41.715  -9.103  14.243 -0.11 +0.00    +0.029 A  
DOCKED: ATOM     21  C   UNL     1     -41.629  -8.722  15.582 -0.01 +0.00    +0.140 A  
DOCKED: ATOM     22  C   UNL     1     -40.606  -9.223  16.386 -0.02 +0.00    +0.029 A  
DOCKED: ATOM     23  F   UNL     1     -42.531  -7.876  16.096 +0.01 -0.00    -0.204 F  
DOCKED: ATOM     24  C   UNL     1     -39.667 -10.106  15.851 -0.04 +0.00    +0.001 A  
DOCKED: ENDBRANCH   2  18
DOCKED: TORSDOF 5
DOCKED: TER
DOCKED: ENDMDL
________________________________________________________________________________


    FINAL DOCKED STATE:
    ________________________


Run:   476 / 512
Time taken for this run:   0.002s

DOCKED: MODEL        476
DOCKED: USER    Run = 476
DOCKED: USER
DOCKED: USER    Estimated Free Energy of Binding    =  -4.21 kcal/mol  [=(1)+(2)+(3)-(4)]
DOCKED: USER
DOCKED: USER    (1) Final Intermolecular Energy     =  -5.70 kcal/mol
DOCKED: USER        vdW + Hbond + desolv Energy     =  -5.70 kcal/mol
DOCKED: USER        Electrostatic Energy            =  +0.00 kcal/mol
DOCKED: USER        Moving Ligand-Fixed Receptor    =  -5.70 kcal/mol
DOCKED: USER        Moving Ligand-Moving Receptor   =  +0.00 kcal/mol
DOCKED: USER    (2) Final Total Internal Energy     =  -1.09 kcal/mol
DOCKED: USER    (3) Torsional Free Energy           =  +1.49 kcal/mol
DOCKED: USER    (4) Unbound System's Energy         =  -1.09 kcal/mol
DOCKED: USER
DOCKED: USER
DOCKED: REMARK  5 active torsions:
DOCKED: REMARK  status: ('A' for Active; 'I' for Inactive)
DOCKED: REMARK    1  A    between atoms: C_2  and  C_19 
DOCKED: REMARK    2  A    between atoms: C_2  and  C_11 
DOCKED: REMARK    3  A    between atoms: C_19  and  C_20 
DOCKED: REMARK    4  A    between atoms: C_20  and  C_21 
DOCKED: REMARK    5  A    between atoms: C_21  and  N_22 
DOCKED: USER                              x       y       z     vdW  Elec       q    Type
DOCKED: USER                           _______ _______ _______ _____ _____    ______ ____
DOCKED: ROOT
DOCKED: ATOM      1  O   UNL     1     -34.735 -10.557  14.752 -0.07 -0.00    -0.346 OA 
DOCKED: ATOM      2  C   UNL     1     -35.700  -9.657  14.120 -0.12 +0.00    +0.130 C  
DOCKED: ATOM      3  C   UNL     1     -36.651 -10.584  13.419 -0.21 +0.00    +0.004 A  
DOCKED: ATOM      4  C   UNL     1     -36.323 -11.899  13.715 -0.25 +0.00    +0.006 A  
DOCKED: ATOM      5  C   UNL     1     -35.160 -11.934  14.629 -0.16 +0.00    +0.169 C  
DOCKED: ATOM      6  C   UNL     1     -37.726 -10.286  12.595 -0.27 -0.00    -0.001 A  
DOCKED: ATOM      7  C   UNL     1     -37.052 -12.957  13.198 -0.34 +0.00    +0.008 A  
DOCKED: ATOM      8  C   UNL     1     -38.467 -11.342  12.062 -0.32 +0.00    +0.010 A  
DOCKED: ATOM      9  C   UNL     1     -38.132 -12.670  12.362 -0.30 +0.00    +0.068 A  
DOCKED: ATOM     10  N   UNL     1     -39.532 -14.606  11.360 -2.56 -0.00    -0.191 NA 
DOCKED: ATOM     11  C   UNL     1     -38.904 -13.738  11.809 -0.36 +0.00    +0.101 C  
DOCKED: ENDROOT
DOCKED: BRANCH   2  12
DOCKED: ATOM     12  C   UNL     1     -36.373  -8.829  15.209 -0.05 +0.00    +0.038 C  
DOCKED: BRANCH  12  13
DOCKED: ATOM     13  C   UNL     1     -37.290  -7.764  14.612 -0.05 +0.00    +0.038 C  
DOCKED: BRANCH  13  14
DOCKED: ATOM     14  C   UNL     1     -37.578  -6.657  15.624 -0.00 +0.00    +0.251 C  
DOCKED: BRANCH  14  15
DOCKED: ATOM     15  N   UNL     1     -36.521  -5.653  15.592 -0.00 +0.00    +0.141 N  
DOCKED: ATOM     16  C   UNL     1     -35.471  -5.978  16.559 -0.00 +0.00    +0.285 C  
DOCKED: ATOM     17  C   UNL     1     -35.955  -5.543  14.247 -0.01 +0.00    +0.285 C  
DOCKED: ENDBRANCH  14  15
DOCKED: ENDBRANCH  13  14
DOCKED: ENDBRANCH  12  13
DOCKED: ENDBRANCH   2  12
DOCKED: BRANCH   2  18
DOCKED: ATOM     18  C   UNL     1     -34.935  -8.788  13.179 -0.13 +0.00    +0.006 A  
DOCKED: ATOM     19  C   UNL     1     -35.471  -8.470  11.932 -0.15 +0.00    +0.001 A  
DOCKED: ATOM     20  C   UNL     1     -34.754  -7.658  11.052 -0.14 +0.00    +0.029 A  
DOCKED: ATOM     21  C   UNL     1     -33.504  -7.164  11.421 -0.07 +0.00    +0.140 A  
DOCKED: ATOM     22  C   UNL     1     -32.968  -7.482  12.669 -0.06 +0.00    +0.029 A  
DOCKED: ATOM     23  F   UNL     1     -32.817  -6.383  10.578 -0.00 -0.00    -0.204 F  
DOCKED: ATOM     24  C   UNL     1     -33.684  -8.295  13.550 -0.08 +0.00    +0.001 A  
DOCKED: ENDBRANCH   2  18
DOCKED: TORSDOF 5
DOCKED: TER
DOCKED: ENDMDL
________________________________________________________________________________


    FINAL DOCKED STATE:
    ________________________


Run:   477 / 512
Time taken for this run:   0.002s

DOCKED: MODEL        477
DOCKED: USER    Run = 477
DOCKED: USER
DOCKED: USER    Estimated Free Energy of Binding    =  -4.28 kcal/mol  [=(1)+(2)+(3)-(4)]
DOCKED: USER
DOCKED: USER    (1) Final Intermolecular Energy     =  -5.77 kcal/mol
DOCKED: USER        vdW + Hbond + desolv Energy     =  -5.77 kcal/mol
DOCKED: USER        Electrostatic Energy            =  +0.00 kcal/mol
DOCKED: USER        Moving Ligand-Fixed Receptor    =  -5.77 kcal/mol
DOCKED: USER        Moving Ligand-Moving Receptor   =  +0.00 kcal/mol
DOCKED: USER    (2) Final Total Internal Energy     =  -1.38 kcal/mol
DOCKED: USER    (3) Torsional Free Energy           =  +1.49 kcal/mol
DOCKED: USER    (4) Unbound System's Energy         =  -1.38 kcal/mol
DOCKED: USER
DOCKED: USER
DOCKED: REMARK  5 active torsions:
DOCKED: REMARK  status: ('A' for Active; 'I' for Inactive)
DOCKED: REMARK    1  A    between atoms: C_2  and  C_19 
DOCKED: REMARK    2  A    between atoms: C_2  and  C_11 
DOCKED: REMARK    3  A    between atoms: C_19  and  C_20 
DOCKED: REMARK    4  A    between atoms: C_20  and  C_21 
DOCKED: REMARK    5  A    between atoms: C_21  and  N_22 
DOCKED: USER                              x       y       z     vdW  Elec       q    Type
DOCKED: USER                           _______ _______ _______ _____ _____    ______ ____
DOCKED: ROOT
DOCKED: ATOM      1  O   UNL     1     -35.169 -10.524  14.855 -0.06 -0.00    -0.346 OA 
DOCKED: ATOM      2  C   UNL     1     -36.026  -9.687  14.014 -0.13 +0.00    +0.130 C  
DOCKED: ATOM      3  C   UNL     1     -36.831 -10.677  13.223 -0.23 +0.00    +0.004 A  
DOCKED: ATOM      4  C   UNL     1     -36.541 -11.964  13.653 -0.26 +0.00    +0.006 A  
DOCKED: ATOM      5  C   UNL     1     -35.549 -11.916  14.749 -0.16 +0.00    +0.169 C  
DOCKED: ATOM      6  C   UNL     1     -37.756 -10.455  12.212 -0.28 -0.00    -0.001 A  
DOCKED: ATOM      7  C   UNL     1     -37.157 -13.068  13.088 -0.35 +0.00    +0.008 A  
DOCKED: ATOM      8  C   UNL     1     -38.382 -11.559  11.630 -0.34 +0.00    +0.010 A  
DOCKED: ATOM      9  C   UNL     1     -38.084 -12.858  12.067 -0.33 +0.00    +0.068 A  
DOCKED: ATOM     10  N   UNL     1     -39.269 -14.884  10.968 -2.37 -0.00    -0.191 NA 
DOCKED: ATOM     11  C   UNL     1     -38.737 -13.976  11.460 -0.37 +0.00    +0.101 C  
DOCKED: ENDROOT
DOCKED: BRANCH   2  12
DOCKED: ATOM     12  C   UNL     1     -36.884  -8.811  14.919 -0.06 +0.00    +0.038 C  
DOCKED: BRANCH  12  13
DOCKED: ATOM     13  C   UNL     1     -38.236  -9.463  15.206 -0.05 +0.00    +0.038 C  
DOCKED: BRANCH  13  14
DOCKED: ATOM     14  C   UNL     1     -38.407  -9.738  16.698 -0.00 +0.00    +0.251 C  
DOCKED: BRANCH  14  15
DOCKED: ATOM     15  N   UNL     1     -38.853 -11.110  16.914 -0.02 +0.00    +0.141 N  
DOCKED: ATOM     16  C   UNL     1     -39.510 -11.633  15.715 -0.02 +0.00    +0.285 C  
DOCKED: ATOM     17  C   UNL     1     -37.726 -11.965  17.289 -0.03 +0.00    +0.285 C  
DOCKED: ENDBRANCH  14  15
DOCKED: ENDBRANCH  13  14
DOCKED: ENDBRANCH  12  13
DOCKED: ENDBRANCH   2  12
DOCKED: BRANCH   2  18
DOCKED: ATOM     18  C   UNL     1     -35.124  -8.858  13.161 -0.14 +0.00    +0.006 A  
DOCKED: ATOM     19  C   UNL     1     -33.741  -8.977  13.289 -0.11 +0.00    +0.001 A  
DOCKED: ATOM     20  C   UNL     1     -32.899  -8.201  12.491 -0.09 +0.00    +0.029 A  
DOCKED: ATOM     21  C   UNL     1     -33.440  -7.309  11.567 -0.07 +0.00    +0.140 A  
DOCKED: ATOM     22  C   UNL     1     -34.824  -7.191  11.440 -0.12 +0.00    +0.029 A  
DOCKED: ATOM     23  F   UNL     1     -32.632  -6.566  10.801 -0.00 -0.00    -0.204 F  
DOCKED: ATOM     24  C   UNL     1     -35.667  -7.966  12.238 -0.16 +0.00    +0.001 A  
DOCKED: ENDBRANCH   2  18
DOCKED: TORSDOF 5
DOCKED: TER
DOCKED: ENDMDL
________________________________________________________________________________


    FINAL DOCKED STATE:
    ________________________


Run:   478 / 512
Time taken for this run:   0.002s

DOCKED: MODEL        478
DOCKED: USER    Run = 478
DOCKED: USER
DOCKED: USER    Estimated Free Energy of Binding    =  -4.38 kcal/mol  [=(1)+(2)+(3)-(4)]
DOCKED: USER
DOCKED: USER    (1) Final Intermolecular Energy     =  -5.87 kcal/mol
DOCKED: USER        vdW + Hbond + desolv Energy     =  -5.87 kcal/mol
DOCKED: USER        Electrostatic Energy            =  +0.00 kcal/mol
DOCKED: USER        Moving Ligand-Fixed Receptor    =  -5.87 kcal/mol
DOCKED: USER        Moving Ligand-Moving Receptor   =  +0.00 kcal/mol
DOCKED: USER    (2) Final Total Internal Energy     =  -1.19 kcal/mol
DOCKED: USER    (3) Torsional Free Energy           =  +1.49 kcal/mol
DOCKED: USER    (4) Unbound System's Energy         =  -1.19 kcal/mol
DOCKED: USER
DOCKED: USER
DOCKED: REMARK  5 active torsions:
DOCKED: REMARK  status: ('A' for Active; 'I' for Inactive)
DOCKED: REMARK    1  A    between atoms: C_2  and  C_19 
DOCKED: REMARK    2  A    between atoms: C_2  and  C_11 
DOCKED: REMARK    3  A    between atoms: C_19  and  C_20 
DOCKED: REMARK    4  A    between atoms: C_20  and  C_21 
DOCKED: REMARK    5  A    between atoms: C_21  and  N_22 
DOCKED: USER                              x       y       z     vdW  Elec       q    Type
DOCKED: USER                           _______ _______ _______ _____ _____    ______ ____
DOCKED: ROOT
DOCKED: ATOM      1  O   UNL     1     -33.404  -4.471   5.862 -0.04 -0.00    -0.346 OA 
DOCKED: ATOM      2  C   UNL     1     -32.483  -4.500   4.724 -0.08 +0.00    +0.130 C  
DOCKED: ATOM      3  C   UNL     1     -33.229  -3.777   3.640 -0.17 +0.00    +0.004 A  
DOCKED: ATOM      4  C   UNL     1     -34.422  -3.281   4.144 -0.27 +0.00    +0.006 A  
DOCKED: ATOM      5  C   UNL     1     -34.543  -3.625   5.579 -0.15 +0.00    +0.169 C  
DOCKED: ATOM      6  C   UNL     1     -32.873  -3.566   2.316 -0.15 -0.00    -0.001 A  
DOCKED: ATOM      7  C   UNL     1     -35.299  -2.564   3.348 -0.36 +0.00    +0.008 A  
DOCKED: ATOM      8  C   UNL     1     -33.748  -2.849   1.498 -0.23 +0.00    +0.010 A  
DOCKED: ATOM      9  C   UNL     1     -34.955  -2.350   2.012 -0.25 +0.00    +0.068 A  
DOCKED: ATOM     10  N   UNL     1     -36.555  -1.019   0.469 -2.55 -0.00    -0.191 NA 
DOCKED: ATOM     11  C   UNL     1     -35.838  -1.617   1.161 -0.35 +0.00    +0.101 C  
DOCKED: ENDROOT
DOCKED: BRANCH   2  12
DOCKED: ATOM     12  C   UNL     1     -31.193  -3.797   5.129 -0.05 +0.00    +0.038 C  
DOCKED: BRANCH  12  13
DOCKED: ATOM     13  C   UNL     1     -31.448  -2.738   6.200 -0.13 +0.00    +0.038 C  
DOCKED: BRANCH  13  14
DOCKED: ATOM     14  C   UNL     1     -30.327  -1.702   6.226 -0.08 +0.00    +0.251 C  
DOCKED: BRANCH  14  15
DOCKED: ATOM     15  N   UNL     1     -30.599  -0.636   5.268 -0.09 +0.00    +0.141 N  
DOCKED: ATOM     16  C   UNL     1     -32.032  -0.548   4.987 -0.10 +0.00    +0.285 C  
DOCKED: ATOM     17  C   UNL     1     -30.100   0.646   5.769 -0.06 +0.00    +0.285 C  
DOCKED: ENDBRANCH  14  15
DOCKED: ENDBRANCH  13  14
DOCKED: ENDBRANCH  12  13
DOCKED: ENDBRANCH   2  12
DOCKED: BRANCH   2  18
DOCKED: ATOM     18  C   UNL     1     -32.235  -5.936   4.401 -0.08 +0.00    +0.006 A  
DOCKED: ATOM     19  C   UNL     1     -33.308  -6.784   4.129 -0.21 +0.00    +0.001 A  
DOCKED: ATOM     20  C   UNL     1     -33.074  -8.127   3.827 -0.20 +0.00    +0.029 A  
DOCKED: ATOM     21  C   UNL     1     -31.770  -8.618   3.798 -0.14 +0.00    +0.140 A  
DOCKED: ATOM     22  C   UNL     1     -30.698  -7.769   4.071 -0.03 +0.00    +0.029 A  
DOCKED: ATOM     23  F   UNL     1     -31.546  -9.906   3.507 -0.08 -0.00    -0.204 F  
DOCKED: ATOM     24  C   UNL     1     -30.930  -6.426   4.373 -0.02 +0.00    +0.001 A  
DOCKED: ENDBRANCH   2  18
DOCKED: TORSDOF 5
DOCKED: TER
DOCKED: ENDMDL
________________________________________________________________________________


    FINAL DOCKED STATE:
    ________________________


Run:   479 / 512
Time taken for this run:   0.002s

DOCKED: MODEL        479
DOCKED: USER    Run = 479
DOCKED: USER
DOCKED: USER    Estimated Free Energy of Binding    =  -3.66 kcal/mol  [=(1)+(2)+(3)-(4)]
DOCKED: USER
DOCKED: USER    (1) Final Intermolecular Energy     =  -5.15 kcal/mol
DOCKED: USER        vdW + Hbond + desolv Energy     =  -5.15 kcal/mol
DOCKED: USER        Electrostatic Energy            =  +0.00 kcal/mol
DOCKED: USER        Moving Ligand-Fixed Receptor    =  -5.15 kcal/mol
DOCKED: USER        Moving Ligand-Moving Receptor   =  +0.00 kcal/mol
DOCKED: USER    (2) Final Total Internal Energy     =  -0.97 kcal/mol
DOCKED: USER    (3) Torsional Free Energy           =  +1.49 kcal/mol
DOCKED: USER    (4) Unbound System's Energy         =  -0.97 kcal/mol
DOCKED: USER
DOCKED: USER
DOCKED: REMARK  5 active torsions:
DOCKED: REMARK  status: ('A' for Active; 'I' for Inactive)
DOCKED: REMARK    1  A    between atoms: C_2  and  C_19 
DOCKED: REMARK    2  A    between atoms: C_2  and  C_11 
DOCKED: REMARK    3  A    between atoms: C_19  and  C_20 
DOCKED: REMARK    4  A    between atoms: C_20  and  C_21 
DOCKED: REMARK    5  A    between atoms: C_21  and  N_22 
DOCKED: USER                              x       y       z     vdW  Elec       q    Type
DOCKED: USER                           _______ _______ _______ _____ _____    ______ ____
DOCKED: ROOT
DOCKED: ATOM      1  O   UNL     1     -38.893  -8.136  14.433 -0.01 -0.00    -0.346 OA 
DOCKED: ATOM      2  C   UNL     1     -37.542  -8.619  14.143 -0.08 +0.00    +0.130 C  
DOCKED: ATOM      3  C   UNL     1     -37.769  -9.967  13.521 -0.18 +0.00    +0.004 A  
DOCKED: ATOM      4  C   UNL     1     -39.130 -10.188  13.367 -0.19 +0.00    +0.006 A  
DOCKED: ATOM      5  C   UNL     1     -39.888  -9.014  13.857 -0.12 +0.00    +0.169 C  
DOCKED: ATOM      6  C   UNL     1     -36.843 -10.917  13.114 -0.24 -0.00    -0.001 A  
DOCKED: ATOM      7  C   UNL     1     -39.611 -11.359  12.809 -0.23 +0.00    +0.008 A  
DOCKED: ATOM      8  C   UNL     1     -37.313 -12.106  12.553 -0.31 +0.00    +0.010 A  
DOCKED: ATOM      9  C   UNL     1     -38.690 -12.325  12.401 -0.26 +0.00    +0.068 A  
DOCKED: ATOM     10  N   UNL     1     -39.529 -14.541  11.351 -2.56 -0.00    -0.191 NA 
DOCKED: ATOM     11  C   UNL     1     -39.153 -13.547  11.823 -0.36 +0.00    +0.101 C  
DOCKED: ENDROOT
DOCKED: BRANCH   2  12
DOCKED: ATOM     12  C   UNL     1     -36.870  -7.634  13.194 -0.13 +0.00    +0.038 C  
DOCKED: BRANCH  12  13
DOCKED: ATOM     13  C   UNL     1     -36.168  -8.356  12.046 -0.15 +0.00    +0.038 C  
DOCKED: BRANCH  13  14
DOCKED: ATOM     14  C   UNL     1     -35.169  -7.436  11.347 -0.10 +0.00    +0.251 C  
DOCKED: BRANCH  14  15
DOCKED: ATOM     15  N   UNL     1     -33.845  -7.583  11.938 -0.08 +0.00    +0.141 N  
DOCKED: ATOM     16  C   UNL     1     -33.586  -6.507  12.897 -0.02 +0.00    +0.285 C  
DOCKED: ATOM     17  C   UNL     1     -33.713  -8.887  12.590 -0.03 +0.00    +0.285 C  
DOCKED: ENDBRANCH  14  15
DOCKED: ENDBRANCH  13  14
DOCKED: ENDBRANCH  12  13
DOCKED: ENDBRANCH   2  12
DOCKED: BRANCH   2  18
DOCKED: ATOM     18  C   UNL     1     -36.817  -8.694  15.444 -0.03 +0.00    +0.006 A  
DOCKED: ATOM     19  C   UNL     1     -37.533  -8.725  16.640 -0.01 +0.00    +0.001 A  
DOCKED: ATOM     20  C   UNL     1     -36.853  -8.794  17.857 -0.00 +0.00    +0.029 A  
DOCKED: ATOM     21  C   UNL     1     -35.459  -8.832  17.876 -0.00 +0.00    +0.140 A  
DOCKED: ATOM     22  C   UNL     1     -34.744  -8.801  16.679 -0.01 +0.00    +0.029 A  
DOCKED: ATOM     23  F   UNL     1     -34.807  -8.901  19.044 +0.00 -0.00    -0.204 F  
DOCKED: ATOM     24  C   UNL     1     -35.423  -8.731  15.462 -0.03 +0.00    +0.001 A  
DOCKED: ENDBRANCH   2  18
DOCKED: TORSDOF 5
DOCKED: TER
DOCKED: ENDMDL
________________________________________________________________________________


    FINAL DOCKED STATE:
    ________________________


Run:   480 / 512
Time taken for this run:   0.002s

DOCKED: MODEL        480
DOCKED: USER    Run = 480
DOCKED: USER
DOCKED: USER    Estimated Free Energy of Binding    =  -3.91 kcal/mol  [=(1)+(2)+(3)-(4)]
DOCKED: USER
DOCKED: USER    (1) Final Intermolecular Energy     =  -5.40 kcal/mol
DOCKED: USER        vdW + Hbond + desolv Energy     =  -5.40 kcal/mol
DOCKED: USER        Electrostatic Energy            =  +0.00 kcal/mol
DOCKED: USER        Moving Ligand-Fixed Receptor    =  -5.40 kcal/mol
DOCKED: USER        Moving Ligand-Moving Receptor   =  +0.00 kcal/mol
DOCKED: USER    (2) Final Total Internal Energy     =  -1.53 kcal/mol
DOCKED: USER    (3) Torsional Free Energy           =  +1.49 kcal/mol
DOCKED: USER    (4) Unbound System's Energy         =  -1.53 kcal/mol
DOCKED: USER
DOCKED: USER
DOCKED: REMARK  5 active torsions:
DOCKED: REMARK  status: ('A' for Active; 'I' for Inactive)
DOCKED: REMARK    1  A    between atoms: C_2  and  C_19 
DOCKED: REMARK    2  A    between atoms: C_2  and  C_11 
DOCKED: REMARK    3  A    between atoms: C_19  and  C_20 
DOCKED: REMARK    4  A    between atoms: C_20  and  C_21 
DOCKED: REMARK    5  A    between atoms: C_21  and  N_22 
DOCKED: USER                              x       y       z     vdW  Elec       q    Type
DOCKED: USER                           _______ _______ _______ _____ _____    ______ ____
DOCKED: ROOT
DOCKED: ATOM      1  O   UNL     1     -34.539  -4.752   7.211 -0.06 -0.00    -0.346 OA 
DOCKED: ATOM      2  C   UNL     1     -33.375  -4.232   6.492 -0.13 +0.00    +0.130 C  
DOCKED: ATOM      3  C   UNL     1     -33.961  -3.632   5.247 -0.20 +0.00    +0.004 A  
DOCKED: ATOM      4  C   UNL     1     -35.346  -3.702   5.301 -0.29 +0.00    +0.006 A  
DOCKED: ATOM      5  C   UNL     1     -35.767  -4.333   6.572 -0.25 +0.00    +0.169 C  
DOCKED: ATOM      6  C   UNL     1     -33.320  -3.058   4.159 -0.19 -0.00    -0.001 A  
DOCKED: ATOM      7  C   UNL     1     -36.133  -3.209   4.275 -0.28 +0.00    +0.008 A  
DOCKED: ATOM      8  C   UNL     1     -34.100  -2.560   3.114 -0.27 +0.00    +0.010 A  
DOCKED: ATOM      9  C   UNL     1     -35.499  -2.635   3.172 -0.30 +0.00    +0.068 A  
DOCKED: ATOM     10  N   UNL     1     -36.917  -1.697   1.217 -2.49 -0.00    -0.191 NA 
DOCKED: ATOM     11  C   UNL     1     -36.281  -2.118   2.094 -0.31 +0.00    +0.101 C  
DOCKED: ENDROOT
DOCKED: BRANCH   2  12
DOCKED: ATOM     12  C   UNL     1     -32.680  -3.205   7.377 -0.12 +0.00    +0.038 C  
DOCKED: BRANCH  12  13
DOCKED: ATOM     13  C   UNL     1     -33.185  -3.277   8.817 -0.12 +0.00    +0.038 C  
DOCKED: BRANCH  13  14
DOCKED: ATOM     14  C   UNL     1     -32.102  -3.807   9.753 -0.06 +0.00    +0.251 C  
DOCKED: BRANCH  14  15
DOCKED: ATOM     15  N   UNL     1     -31.769  -5.186   9.414 -0.02 +0.00    +0.141 N  
DOCKED: ATOM     16  C   UNL     1     -30.526  -5.593  10.071 -0.00 +0.00    +0.285 C  
DOCKED: ATOM     17  C   UNL     1     -32.860  -6.087   9.789 -0.02 +0.00    +0.285 C  
DOCKED: ENDBRANCH  14  15
DOCKED: ENDBRANCH  13  14
DOCKED: ENDBRANCH  12  13
DOCKED: ENDBRANCH   2  12
DOCKED: BRANCH   2  18
DOCKED: ATOM     18  C   UNL     1     -32.481  -5.394   6.212 -0.06 +0.00    +0.006 A  
DOCKED: ATOM     19  C   UNL     1     -31.106  -5.200   6.084 -0.02 +0.00    +0.001 A  
DOCKED: ATOM     20  C   UNL     1     -30.271  -6.287   5.822 -0.01 +0.00    +0.029 A  
DOCKED: ATOM     21  C   UNL     1     -30.812  -7.565   5.689 -0.02 +0.00    +0.140 A  
DOCKED: ATOM     22  C   UNL     1     -32.187  -7.758   5.817 -0.10 +0.00    +0.029 A  
DOCKED: ATOM     23  F   UNL     1     -30.010  -8.608   5.439 +0.00 -0.00    -0.204 F  
DOCKED: ATOM     24  C   UNL     1     -33.023  -6.672   6.079 -0.10 +0.00    +0.001 A  
DOCKED: ENDBRANCH   2  18
DOCKED: TORSDOF 5
DOCKED: TER
DOCKED: ENDMDL
________________________________________________________________________________


    FINAL DOCKED STATE:
    ________________________


Run:   481 / 512
Time taken for this run:   0.002s

DOCKED: MODEL        481
DOCKED: USER    Run = 481
DOCKED: USER
DOCKED: USER    Estimated Free Energy of Binding    =  -4.16 kcal/mol  [=(1)+(2)+(3)-(4)]
DOCKED: USER
DOCKED: USER    (1) Final Intermolecular Energy     =  -5.65 kcal/mol
DOCKED: USER        vdW + Hbond + desolv Energy     =  -5.65 kcal/mol
DOCKED: USER        Electrostatic Energy            =  +0.00 kcal/mol
DOCKED: USER        Moving Ligand-Fixed Receptor    =  -5.65 kcal/mol
DOCKED: USER        Moving Ligand-Moving Receptor   =  +0.00 kcal/mol
DOCKED: USER    (2) Final Total Internal Energy     =  -1.09 kcal/mol
DOCKED: USER    (3) Torsional Free Energy           =  +1.49 kcal/mol
DOCKED: USER    (4) Unbound System's Energy         =  -1.09 kcal/mol
DOCKED: USER
DOCKED: USER
DOCKED: REMARK  5 active torsions:
DOCKED: REMARK  status: ('A' for Active; 'I' for Inactive)
DOCKED: REMARK    1  A    between atoms: C_2  and  C_19 
DOCKED: REMARK    2  A    between atoms: C_2  and  C_11 
DOCKED: REMARK    3  A    between atoms: C_19  and  C_20 
DOCKED: REMARK    4  A    between atoms: C_20  and  C_21 
DOCKED: REMARK    5  A    between atoms: C_21  and  N_22 
DOCKED: USER                              x       y       z     vdW  Elec       q    Type
DOCKED: USER                           _______ _______ _______ _____ _____    ______ ____
DOCKED: ROOT
DOCKED: ATOM      1  O   UNL     1     -30.892  -8.158   6.758 +0.01 -0.00    -0.346 OA 
DOCKED: ATOM      2  C   UNL     1     -32.091  -8.899   6.366 -0.14 +0.00    +0.130 C  
DOCKED: ATOM      3  C   UNL     1     -32.041 -10.138   7.213 -0.20 +0.00    +0.004 A  
DOCKED: ATOM      4  C   UNL     1     -30.968 -10.060   8.090 -0.10 +0.00    +0.006 A  
DOCKED: ATOM      5  C   UNL     1     -30.253  -8.779   7.897 -0.02 +0.00    +0.169 C  
DOCKED: ATOM      6  C   UNL     1     -32.883 -11.240   7.215 -0.26 -0.00    -0.001 A  
DOCKED: ATOM      7  C   UNL     1     -30.699 -11.076   8.991 -0.14 +0.00    +0.008 A  
DOCKED: ATOM      8  C   UNL     1     -32.622 -12.275   8.114 -0.30 +0.00    +0.010 A  
DOCKED: ATOM      9  C   UNL     1     -31.536 -12.193   8.998 -0.23 +0.00    +0.068 A  
DOCKED: ATOM     10  N   UNL     1     -31.084 -14.130  10.659 -2.03 -0.00    -0.191 NA 
DOCKED: ATOM     11  C   UNL     1     -31.286 -13.261   9.914 -0.28 +0.00    +0.101 C  
DOCKED: ENDROOT
DOCKED: BRANCH   2  12
DOCKED: ATOM     12  C   UNL     1     -33.311  -8.032   6.655 -0.20 +0.00    +0.038 C  
DOCKED: BRANCH  12  13
DOCKED: ATOM     13  C   UNL     1     -32.913  -6.581   6.916 -0.08 +0.00    +0.038 C  
DOCKED: BRANCH  13  14
DOCKED: ATOM     14  C   UNL     1     -33.046  -5.738   5.649 -0.07 +0.00    +0.251 C  
DOCKED: BRANCH  14  15
DOCKED: ATOM     15  N   UNL     1     -34.126  -4.770   5.794 -0.14 +0.00    +0.141 N  
DOCKED: ATOM     16  C   UNL     1     -34.373  -4.079   4.528 -0.18 +0.00    +0.285 C  
DOCKED: ATOM     17  C   UNL     1     -35.348  -5.427   6.261 -0.16 +0.00    +0.285 C  
DOCKED: ENDBRANCH  14  15
DOCKED: ENDBRANCH  13  14
DOCKED: ENDBRANCH  12  13
DOCKED: ENDBRANCH   2  12
DOCKED: BRANCH   2  18
DOCKED: ATOM     18  C   UNL     1     -31.969  -9.187   4.907 -0.17 +0.00    +0.006 A  
DOCKED: ATOM     19  C   UNL     1     -32.797  -8.533   3.996 -0.20 +0.00    +0.001 A  
DOCKED: ATOM     20  C   UNL     1     -32.682  -8.804   2.632 -0.24 +0.00    +0.029 A  
DOCKED: ATOM     21  C   UNL     1     -31.739  -9.726   2.181 -0.19 +0.00    +0.140 A  
DOCKED: ATOM     22  C   UNL     1     -30.910 -10.379   3.093 -0.15 +0.00    +0.029 A  
DOCKED: ATOM     23  F   UNL     1     -31.627  -9.984   0.871 -0.06 -0.00    -0.204 F  
DOCKED: ATOM     24  C   UNL     1     -31.025 -10.110   4.458 -0.12 +0.00    +0.001 A  
DOCKED: ENDBRANCH   2  18
DOCKED: TORSDOF 5
DOCKED: TER
DOCKED: ENDMDL
________________________________________________________________________________


    FINAL DOCKED STATE:
    ________________________


Run:   482 / 512
Time taken for this run:   0.002s

DOCKED: MODEL        482
DOCKED: USER    Run = 482
DOCKED: USER
DOCKED: USER    Estimated Free Energy of Binding    =  -3.44 kcal/mol  [=(1)+(2)+(3)-(4)]
DOCKED: USER
DOCKED: USER    (1) Final Intermolecular Energy     =  -4.93 kcal/mol
DOCKED: USER        vdW + Hbond + desolv Energy     =  -4.93 kcal/mol
DOCKED: USER        Electrostatic Energy            =  +0.00 kcal/mol
DOCKED: USER        Moving Ligand-Fixed Receptor    =  -4.93 kcal/mol
DOCKED: USER        Moving Ligand-Moving Receptor   =  +0.00 kcal/mol
DOCKED: USER    (2) Final Total Internal Energy     =  -1.45 kcal/mol
DOCKED: USER    (3) Torsional Free Energy           =  +1.49 kcal/mol
DOCKED: USER    (4) Unbound System's Energy         =  -1.45 kcal/mol
DOCKED: USER
DOCKED: USER
DOCKED: REMARK  5 active torsions:
DOCKED: REMARK  status: ('A' for Active; 'I' for Inactive)
DOCKED: REMARK    1  A    between atoms: C_2  and  C_19 
DOCKED: REMARK    2  A    between atoms: C_2  and  C_11 
DOCKED: REMARK    3  A    between atoms: C_19  and  C_20 
DOCKED: REMARK    4  A    between atoms: C_20  and  C_21 
DOCKED: REMARK    5  A    between atoms: C_21  and  N_22 
DOCKED: USER                              x       y       z     vdW  Elec       q    Type
DOCKED: USER                           _______ _______ _______ _____ _____    ______ ____
DOCKED: ROOT
DOCKED: ATOM      1  O   UNL     1     -31.144   0.317   4.133 -0.04 -0.00    -0.346 OA 
DOCKED: ATOM      2  C   UNL     1     -30.931  -1.070   3.718 -0.07 +0.00    +0.130 C  
DOCKED: ATOM      3  C   UNL     1     -32.278  -1.508   3.222 -0.14 +0.00    +0.004 A  
DOCKED: ATOM      4  C   UNL     1     -33.157  -0.435   3.247 -0.22 +0.00    +0.006 A  
DOCKED: ATOM      5  C   UNL     1     -32.460   0.774   3.742 -0.10 +0.00    +0.169 C  
DOCKED: ATOM      6  C   UNL     1     -32.690  -2.754   2.773 -0.13 -0.00    -0.001 A  
DOCKED: ATOM      7  C   UNL     1     -34.471  -0.569   2.833 -0.24 +0.00    +0.008 A  
DOCKED: ATOM      8  C   UNL     1     -34.014  -2.907   2.355 -0.24 +0.00    +0.010 A  
DOCKED: ATOM      9  C   UNL     1     -34.899  -1.819   2.385 -0.36 +0.00    +0.068 A  
DOCKED: ATOM     10  N   UNL     1     -37.347  -2.135   1.597 -2.37 -0.00    -0.191 NA 
DOCKED: ATOM     11  C   UNL     1     -36.249  -1.994   1.951 -0.30 +0.00    +0.101 C  
DOCKED: ENDROOT
DOCKED: BRANCH   2  12
DOCKED: ATOM     12  C   UNL     1     -29.863  -1.089   2.630 -0.04 +0.00    +0.038 C  
DOCKED: BRANCH  12  13
DOCKED: ATOM     13  C   UNL     1     -30.284  -0.255   1.421 -0.09 +0.00    +0.038 C  
DOCKED: BRANCH  13  14
DOCKED: ATOM     14  C   UNL     1     -30.443  -1.130   0.179 -0.03 +0.00    +0.251 C  
DOCKED: BRANCH  14  15
DOCKED: ATOM     15  N   UNL     1     -31.799  -1.660   0.102 -0.08 +0.00    +0.141 N  
DOCKED: ATOM     16  C   UNL     1     -32.716  -0.655  -0.437 -0.07 +0.00    +0.285 C  
DOCKED: ATOM     17  C   UNL     1     -31.833  -2.871  -0.720 -0.05 +0.00    +0.285 C  
DOCKED: ENDBRANCH  14  15
DOCKED: ENDBRANCH  13  14
DOCKED: ENDBRANCH  12  13
DOCKED: ENDBRANCH   2  12
DOCKED: BRANCH   2  18
DOCKED: ATOM     18  C   UNL     1     -30.482  -1.823   4.925 -0.07 +0.00    +0.006 A  
DOCKED: ATOM     19  C   UNL     1     -29.198  -2.364   4.972 -0.02 +0.00    +0.001 A  
DOCKED: ATOM     20  C   UNL     1     -28.780  -3.069   6.102 -0.01 +0.00    +0.029 A  
DOCKED: ATOM     21  C   UNL     1     -29.646  -3.231   7.182 -0.03 +0.00    +0.140 A  
DOCKED: ATOM     22  C   UNL     1     -30.930  -2.689   7.135 -0.10 +0.00    +0.029 A  
DOCKED: ATOM     23  F   UNL     1     -29.244  -3.905   8.267 -0.00 -0.00    -0.204 F  
DOCKED: ATOM     24  C   UNL     1     -31.349  -1.985   6.005 -0.12 +0.00    +0.001 A  
DOCKED: ENDBRANCH   2  18
DOCKED: TORSDOF 5
DOCKED: TER
DOCKED: ENDMDL
________________________________________________________________________________


    FINAL DOCKED STATE:
    ________________________


Run:   483 / 512
Time taken for this run:   0.002s

DOCKED: MODEL        483
DOCKED: USER    Run = 483
DOCKED: USER
DOCKED: USER    Estimated Free Energy of Binding    =  -4.18 kcal/mol  [=(1)+(2)+(3)-(4)]
DOCKED: USER
DOCKED: USER    (1) Final Intermolecular Energy     =  -5.67 kcal/mol
DOCKED: USER        vdW + Hbond + desolv Energy     =  -5.67 kcal/mol
DOCKED: USER        Electrostatic Energy            =  +0.00 kcal/mol
DOCKED: USER        Moving Ligand-Fixed Receptor    =  -5.67 kcal/mol
DOCKED: USER        Moving Ligand-Moving Receptor   =  +0.00 kcal/mol
DOCKED: USER    (2) Final Total Internal Energy     =  -1.26 kcal/mol
DOCKED: USER    (3) Torsional Free Energy           =  +1.49 kcal/mol
DOCKED: USER    (4) Unbound System's Energy         =  -1.26 kcal/mol
DOCKED: USER
DOCKED: USER
DOCKED: REMARK  5 active torsions:
DOCKED: REMARK  status: ('A' for Active; 'I' for Inactive)
DOCKED: REMARK    1  A    between atoms: C_2  and  C_19 
DOCKED: REMARK    2  A    between atoms: C_2  and  C_11 
DOCKED: REMARK    3  A    between atoms: C_19  and  C_20 
DOCKED: REMARK    4  A    between atoms: C_20  and  C_21 
DOCKED: REMARK    5  A    between atoms: C_21  and  N_22 
DOCKED: USER                              x       y       z     vdW  Elec       q    Type
DOCKED: USER                           _______ _______ _______ _____ _____    ______ ____
DOCKED: ROOT
DOCKED: ATOM      1  O   UNL     1     -35.437  -9.550  14.163 -0.05 -0.00    -0.346 OA 
DOCKED: ATOM      2  C   UNL     1     -36.757  -9.019  13.818 -0.12 +0.00    +0.130 C  
DOCKED: ATOM      3  C   UNL     1     -37.467 -10.192  13.206 -0.22 +0.00    +0.004 A  
DOCKED: ATOM      4  C   UNL     1     -36.666 -11.321  13.294 -0.24 +0.00    +0.006 A  
DOCKED: ATOM      5  C   UNL     1     -35.394 -10.983  13.970 -0.13 +0.00    +0.169 C  
DOCKED: ATOM      6  C   UNL     1     -38.727 -10.257  12.629 -0.25 -0.00    -0.001 A  
DOCKED: ATOM      7  C   UNL     1     -37.090 -12.546  12.806 -0.32 +0.00    +0.008 A  
DOCKED: ATOM      8  C   UNL     1     -39.167 -11.483  12.129 -0.28 +0.00    +0.010 A  
DOCKED: ATOM      9  C   UNL     1     -38.353 -12.622  12.217 -0.30 +0.00    +0.068 A  
DOCKED: ATOM     10  N   UNL     1     -39.202 -14.885  11.284 -2.57 -0.00    -0.191 NA 
DOCKED: ATOM     11  C   UNL     1     -38.821 -13.870  11.702 -0.33 +0.00    +0.101 C  
DOCKED: ENDROOT
DOCKED: BRANCH   2  12
DOCKED: ATOM     12  C   UNL     1     -37.425  -8.521  15.094 -0.05 +0.00    +0.038 C  
DOCKED: BRANCH  12  13
DOCKED: ATOM     13  C   UNL     1     -37.544  -9.636  16.132 -0.03 +0.00    +0.038 C  
DOCKED: BRANCH  13  14
DOCKED: ATOM     14  C   UNL     1     -38.631  -9.318  17.157 -0.00 +0.00    +0.251 C  
DOCKED: BRANCH  14  15
DOCKED: ATOM     15  N   UNL     1     -39.936  -9.735  16.659 -0.01 +0.00    +0.141 N  
DOCKED: ATOM     16  C   UNL     1     -40.588  -8.640  15.938 -0.00 +0.00    +0.285 C  
DOCKED: ATOM     17  C   UNL     1     -39.806 -10.907  15.792 -0.01 +0.00    +0.285 C  
DOCKED: ENDBRANCH  14  15
DOCKED: ENDBRANCH  13  14
DOCKED: ENDBRANCH  12  13
DOCKED: ENDBRANCH   2  12
DOCKED: BRANCH   2  18
DOCKED: ATOM     18  C   UNL     1     -36.540  -7.902  12.853 -0.15 +0.00    +0.006 A  
DOCKED: ATOM     19  C   UNL     1     -35.299  -7.744  12.238 -0.15 +0.00    +0.001 A  
DOCKED: ATOM     20  C   UNL     1     -35.098  -6.699  11.335 -0.11 +0.00    +0.029 A  
DOCKED: ATOM     21  C   UNL     1     -36.136  -5.815  11.049 -0.07 +0.00    +0.140 A  
DOCKED: ATOM     22  C   UNL     1     -37.378  -5.973  11.665 -0.11 +0.00    +0.029 A  
DOCKED: ATOM     23  F   UNL     1     -35.943  -4.813  10.182 -0.02 -0.00    -0.204 F  
DOCKED: ATOM     24  C   UNL     1     -37.580  -7.018  12.568 -0.15 +0.00    +0.001 A  
DOCKED: ENDBRANCH   2  18
DOCKED: TORSDOF 5
DOCKED: TER
DOCKED: ENDMDL
________________________________________________________________________________


    FINAL DOCKED STATE:
    ________________________


Run:   484 / 512
Time taken for this run:   0.002s

DOCKED: MODEL        484
DOCKED: USER    Run = 484
DOCKED: USER
DOCKED: USER    Estimated Free Energy of Binding    =  -3.83 kcal/mol  [=(1)+(2)+(3)-(4)]
DOCKED: USER
DOCKED: USER    (1) Final Intermolecular Energy     =  -5.32 kcal/mol
DOCKED: USER        vdW + Hbond + desolv Energy     =  -5.32 kcal/mol
DOCKED: USER        Electrostatic Energy            =  +0.00 kcal/mol
DOCKED: USER        Moving Ligand-Fixed Receptor    =  -5.32 kcal/mol
DOCKED: USER        Moving Ligand-Moving Receptor   =  +0.00 kcal/mol
DOCKED: USER    (2) Final Total Internal Energy     =  -1.16 kcal/mol
DOCKED: USER    (3) Torsional Free Energy           =  +1.49 kcal/mol
DOCKED: USER    (4) Unbound System's Energy         =  -1.16 kcal/mol
DOCKED: USER
DOCKED: USER
DOCKED: REMARK  5 active torsions:
DOCKED: REMARK  status: ('A' for Active; 'I' for Inactive)
DOCKED: REMARK    1  A    between atoms: C_2  and  C_19 
DOCKED: REMARK    2  A    between atoms: C_2  and  C_11 
DOCKED: REMARK    3  A    between atoms: C_19  and  C_20 
DOCKED: REMARK    4  A    between atoms: C_20  and  C_21 
DOCKED: REMARK    5  A    between atoms: C_21  and  N_22 
DOCKED: USER                              x       y       z     vdW  Elec       q    Type
DOCKED: USER                           _______ _______ _______ _____ _____    ______ ____
DOCKED: ROOT
DOCKED: ATOM      1  O   UNL     1     -35.608  -9.113  13.856 -0.05 -0.00    -0.346 OA 
DOCKED: ATOM      2  C   UNL     1     -35.317 -10.289  14.678 -0.12 +0.00    +0.130 C  
DOCKED: ATOM      3  C   UNL     1     -36.193 -11.360  14.095 -0.21 +0.00    +0.004 A  
DOCKED: ATOM      4  C   UNL     1     -36.844 -10.872  12.971 -0.23 +0.00    +0.006 A  
DOCKED: ATOM      5  C   UNL     1     -36.440  -9.469  12.728 -0.17 +0.00    +0.169 C  
DOCKED: ATOM      6  C   UNL     1     -36.389 -12.666  14.519 -0.21 -0.00    -0.001 A  
DOCKED: ATOM      7  C   UNL     1     -37.711 -11.664  12.239 -0.33 +0.00    +0.008 A  
DOCKED: ATOM      8  C   UNL     1     -37.264 -13.477  13.794 -0.33 +0.00    +0.010 A  
DOCKED: ATOM      9  C   UNL     1     -37.921 -12.978  12.659 -0.30 +0.00    +0.068 A  
DOCKED: ATOM     10  N   UNL     1     -39.534 -14.511  11.333 -2.55 -0.00    -0.191 NA 
DOCKED: ATOM     11  C   UNL     1     -38.811 -13.824  11.928 -0.25 +0.00    +0.101 C  
DOCKED: ENDROOT
DOCKED: BRANCH   2  12
DOCKED: ATOM     12  C   UNL     1     -33.832 -10.606  14.558 -0.15 +0.00    +0.038 C  
DOCKED: BRANCH  12  13
DOCKED: ATOM     13  C   UNL     1     -33.056  -9.427  13.974 -0.11 +0.00    +0.038 C  
DOCKED: BRANCH  13  14
DOCKED: ATOM     14  C   UNL     1     -32.051  -9.897  12.924 -0.06 +0.00    +0.251 C  
DOCKED: BRANCH  14  15
DOCKED: ATOM     15  N   UNL     1     -31.750  -8.818  11.991 -0.07 +0.00    +0.141 N  
DOCKED: ATOM     16  C   UNL     1     -32.478  -9.003  10.735 -0.03 +0.00    +0.285 C  
DOCKED: ATOM     17  C   UNL     1     -32.078  -7.519  12.582 -0.03 +0.00    +0.285 C  
DOCKED: ENDBRANCH  14  15
DOCKED: ENDBRANCH  13  14
DOCKED: ENDBRANCH  12  13
DOCKED: ENDBRANCH   2  12
DOCKED: BRANCH   2  18
DOCKED: ATOM     18  C   UNL     1     -35.682  -9.940  16.083 -0.04 +0.00    +0.006 A  
DOCKED: ATOM     19  C   UNL     1     -36.647  -8.965  16.330 -0.02 +0.00    +0.001 A  
DOCKED: ATOM     20  C   UNL     1     -36.986  -8.640  17.644 -0.00 +0.00    +0.029 A  
DOCKED: ATOM     21  C   UNL     1     -36.361  -9.290  18.707 -0.00 +0.00    +0.140 A  
DOCKED: ATOM     22  C   UNL     1     -35.396 -10.265  18.459 -0.01 +0.00    +0.029 A  
DOCKED: ATOM     23  F   UNL     1     -36.688  -8.979  19.968 +0.00 -0.00    -0.204 F  
DOCKED: ATOM     24  C   UNL     1     -35.055 -10.591  17.145 -0.04 +0.00    +0.001 A  
DOCKED: ENDBRANCH   2  18
DOCKED: TORSDOF 5
DOCKED: TER
DOCKED: ENDMDL
________________________________________________________________________________


    FINAL DOCKED STATE:
    ________________________


Run:   485 / 512
Time taken for this run:   0.002s

DOCKED: MODEL        485
DOCKED: USER    Run = 485
DOCKED: USER
DOCKED: USER    Estimated Free Energy of Binding    =  -4.91 kcal/mol  [=(1)+(2)+(3)-(4)]
DOCKED: USER
DOCKED: USER    (1) Final Intermolecular Energy     =  -6.41 kcal/mol
DOCKED: USER        vdW + Hbond + desolv Energy     =  -6.41 kcal/mol
DOCKED: USER        Electrostatic Energy            =  +0.00 kcal/mol
DOCKED: USER        Moving Ligand-Fixed Receptor    =  -6.41 kcal/mol
DOCKED: USER        Moving Ligand-Moving Receptor   =  +0.00 kcal/mol
DOCKED: USER    (2) Final Total Internal Energy     =  -1.18 kcal/mol
DOCKED: USER    (3) Torsional Free Energy           =  +1.49 kcal/mol
DOCKED: USER    (4) Unbound System's Energy         =  -1.18 kcal/mol
DOCKED: USER
DOCKED: USER
DOCKED: REMARK  5 active torsions:
DOCKED: REMARK  status: ('A' for Active; 'I' for Inactive)
DOCKED: REMARK    1  A    between atoms: C_2  and  C_19 
DOCKED: REMARK    2  A    between atoms: C_2  and  C_11 
DOCKED: REMARK    3  A    between atoms: C_19  and  C_20 
DOCKED: REMARK    4  A    between atoms: C_20  and  C_21 
DOCKED: REMARK    5  A    between atoms: C_21  and  N_22 
DOCKED: USER                              x       y       z     vdW  Elec       q    Type
DOCKED: USER                           _______ _______ _______ _____ _____    ______ ____
DOCKED: ROOT
DOCKED: ATOM      1  O   UNL     1     -33.548  -5.019   6.091 -0.03 -0.00    -0.346 OA 
DOCKED: ATOM      2  C   UNL     1     -34.916  -4.704   6.502 -0.21 +0.00    +0.130 C  
DOCKED: ATOM      3  C   UNL     1     -35.457  -3.892   5.361 -0.30 +0.00    +0.004 A  
DOCKED: ATOM      4  C   UNL     1     -34.520  -3.842   4.338 -0.27 +0.00    +0.006 A  
DOCKED: ATOM      5  C   UNL     1     -33.317  -4.615   4.721 -0.13 +0.00    +0.169 C  
DOCKED: ATOM      6  C   UNL     1     -36.684  -3.259   5.232 +0.14 -0.00    -0.001 A  
DOCKED: ATOM      7  C   UNL     1     -34.773  -3.158   3.162 -0.24 +0.00    +0.008 A  
DOCKED: ATOM      8  C   UNL     1     -36.953  -2.561   4.053 -0.24 +0.00    +0.010 A  
DOCKED: ATOM      9  C   UNL     1     -36.002  -2.512   3.023 -0.32 +0.00    +0.068 A  
DOCKED: ATOM     10  N   UNL     1     -36.534  -1.212   0.846 -2.46 -0.00    -0.191 NA 
DOCKED: ATOM     11  C   UNL     1     -36.295  -1.795   1.823 -0.32 +0.00    +0.101 C  
DOCKED: ENDROOT
DOCKED: BRANCH   2  12
DOCKED: ATOM     12  C   UNL     1     -35.671  -6.011   6.711 -0.27 +0.00    +0.038 C  
DOCKED: BRANCH  12  13
DOCKED: ATOM     13  C   UNL     1     -34.755  -7.101   7.263 -0.22 +0.00    +0.038 C  
DOCKED: BRANCH  13  14
DOCKED: ATOM     14  C   UNL     1     -33.984  -7.792   6.140 -0.11 +0.00    +0.251 C  
DOCKED: BRANCH  14  15
DOCKED: ATOM     15  N   UNL     1     -32.914  -8.615   6.691 -0.15 +0.00    +0.141 N  
DOCKED: ATOM     16  C   UNL     1     -31.620  -7.947   6.544 -0.03 +0.00    +0.285 C  
DOCKED: ATOM     17  C   UNL     1     -33.171  -8.919   8.100 -0.14 +0.00    +0.285 C  
DOCKED: ENDBRANCH  14  15
DOCKED: ENDBRANCH  13  14
DOCKED: ENDBRANCH  12  13
DOCKED: ENDBRANCH   2  12
DOCKED: BRANCH   2  18
DOCKED: ATOM     18  C   UNL     1     -34.821  -3.928   7.773 -0.20 +0.00    +0.006 A  
DOCKED: ATOM     19  C   UNL     1     -33.617  -3.884   8.475 -0.15 +0.00    +0.001 A  
DOCKED: ATOM     20  C   UNL     1     -33.530  -3.158   9.663 -0.11 +0.00    +0.029 A  
DOCKED: ATOM     21  C   UNL     1     -34.646  -2.478  10.149 -0.12 +0.00    +0.140 A  
DOCKED: ATOM     22  C   UNL     1     -35.850  -2.522   9.446 -0.21 +0.00    +0.029 A  
DOCKED: ATOM     23  F   UNL     1     -34.562  -1.780  11.289 -0.05 -0.00    -0.204 F  
DOCKED: ATOM     24  C   UNL     1     -35.939  -3.248   8.258 -0.25 +0.00    +0.001 A  
DOCKED: ENDBRANCH   2  18
DOCKED: TORSDOF 5
DOCKED: TER
DOCKED: ENDMDL
________________________________________________________________________________


    FINAL DOCKED STATE:
    ________________________


Run:   486 / 512
Time taken for this run:   0.002s

DOCKED: MODEL        486
DOCKED: USER    Run = 486
DOCKED: USER
DOCKED: USER    Estimated Free Energy of Binding    =  -4.23 kcal/mol  [=(1)+(2)+(3)-(4)]
DOCKED: USER
DOCKED: USER    (1) Final Intermolecular Energy     =  -5.72 kcal/mol
DOCKED: USER        vdW + Hbond + desolv Energy     =  -5.72 kcal/mol
DOCKED: USER        Electrostatic Energy            =  +0.00 kcal/mol
DOCKED: USER        Moving Ligand-Fixed Receptor    =  -5.72 kcal/mol
DOCKED: USER        Moving Ligand-Moving Receptor   =  +0.00 kcal/mol
DOCKED: USER    (2) Final Total Internal Energy     =  -1.35 kcal/mol
DOCKED: USER    (3) Torsional Free Energy           =  +1.49 kcal/mol
DOCKED: USER    (4) Unbound System's Energy         =  -1.35 kcal/mol
DOCKED: USER
DOCKED: USER
DOCKED: REMARK  5 active torsions:
DOCKED: REMARK  status: ('A' for Active; 'I' for Inactive)
DOCKED: REMARK    1  A    between atoms: C_2  and  C_19 
DOCKED: REMARK    2  A    between atoms: C_2  and  C_11 
DOCKED: REMARK    3  A    between atoms: C_19  and  C_20 
DOCKED: REMARK    4  A    between atoms: C_20  and  C_21 
DOCKED: REMARK    5  A    between atoms: C_21  and  N_22 
DOCKED: USER                              x       y       z     vdW  Elec       q    Type
DOCKED: USER                           _______ _______ _______ _____ _____    ______ ____
DOCKED: ROOT
DOCKED: ATOM      1  O   UNL     1     -36.337 -10.202  15.555 -0.01 -0.00    -0.346 OA 
DOCKED: ATOM      2  C   UNL     1     -36.591  -9.499  14.297 -0.10 +0.00    +0.130 C  
DOCKED: ATOM      3  C   UNL     1     -37.190 -10.554  13.412 -0.21 +0.00    +0.004 A  
DOCKED: ATOM      4  C   UNL     1     -37.365 -11.726  14.134 -0.19 +0.00    +0.006 A  
DOCKED: ATOM      5  C   UNL     1     -36.914 -11.528  15.529 -0.09 +0.00    +0.169 C  
DOCKED: ATOM      6  C   UNL     1     -37.561 -10.478  12.077 -0.26 -0.00    -0.001 A  
DOCKED: ATOM      7  C   UNL     1     -37.909 -12.857  13.550 -0.27 +0.00    +0.008 A  
DOCKED: ATOM      8  C   UNL     1     -38.106 -11.612  11.473 -0.34 +0.00    +0.010 A  
DOCKED: ATOM      9  C   UNL     1     -38.280 -12.795  12.206 -0.31 +0.00    +0.068 A  
DOCKED: ATOM     10  N   UNL     1     -39.301 -14.880  11.056 -2.42 -0.00    -0.191 NA 
DOCKED: ATOM     11  C   UNL     1     -38.842 -13.945  11.572 -0.34 +0.00    +0.101 C  
DOCKED: ENDROOT
DOCKED: BRANCH   2  12
DOCKED: ATOM     12  C   UNL     1     -37.547  -8.344  14.574 -0.07 +0.00    +0.038 C  
DOCKED: BRANCH  12  13
DOCKED: ATOM     13  C   UNL     1     -38.818  -8.827  15.269 -0.04 +0.00    +0.038 C  
DOCKED: BRANCH  13  14
DOCKED: ATOM     14  C   UNL     1     -40.059  -8.179  14.659 -0.04 +0.00    +0.251 C  
DOCKED: BRANCH  14  15
DOCKED: ATOM     15  N   UNL     1     -40.181  -8.542  13.252 -0.17 +0.00    +0.141 N  
DOCKED: ATOM     16  C   UNL     1     -41.127  -9.646  13.084 -0.13 +0.00    +0.285 C  
DOCKED: ATOM     17  C   UNL     1     -40.601  -7.388  12.456 -0.15 +0.00    +0.285 C  
DOCKED: ENDBRANCH  14  15
DOCKED: ENDBRANCH  13  14
DOCKED: ENDBRANCH  12  13
DOCKED: ENDBRANCH   2  12
DOCKED: BRANCH   2  18
DOCKED: ATOM     18  C   UNL     1     -35.275  -9.002  13.801 -0.12 +0.00    +0.006 A  
DOCKED: ATOM     19  C   UNL     1     -34.093  -9.585  14.256 -0.11 +0.00    +0.001 A  
DOCKED: ATOM     20  C   UNL     1     -32.863  -9.119  13.792 -0.09 +0.00    +0.029 A  
DOCKED: ATOM     21  C   UNL     1     -32.816  -8.072  12.873 -0.06 +0.00    +0.140 A  
DOCKED: ATOM     22  C   UNL     1     -33.998  -7.489  12.418 -0.09 +0.00    +0.029 A  
DOCKED: ATOM     23  F   UNL     1     -31.634  -7.626  12.426 -0.00 -0.00    -0.204 F  
DOCKED: ATOM     24  C   UNL     1     -35.229  -7.954  12.882 -0.13 +0.00    +0.001 A  
DOCKED: ENDBRANCH   2  18
DOCKED: TORSDOF 5
DOCKED: TER
DOCKED: ENDMDL
________________________________________________________________________________


    FINAL DOCKED STATE:
    ________________________


Run:   487 / 512
Time taken for this run:   0.002s

DOCKED: MODEL        487
DOCKED: USER    Run = 487
DOCKED: USER
DOCKED: USER    Estimated Free Energy of Binding    =  -3.99 kcal/mol  [=(1)+(2)+(3)-(4)]
DOCKED: USER
DOCKED: USER    (1) Final Intermolecular Energy     =  -5.48 kcal/mol
DOCKED: USER        vdW + Hbond + desolv Energy     =  -5.48 kcal/mol
DOCKED: USER        Electrostatic Energy            =  +0.00 kcal/mol
DOCKED: USER        Moving Ligand-Fixed Receptor    =  -5.48 kcal/mol
DOCKED: USER        Moving Ligand-Moving Receptor   =  +0.00 kcal/mol
DOCKED: USER    (2) Final Total Internal Energy     =  -1.42 kcal/mol
DOCKED: USER    (3) Torsional Free Energy           =  +1.49 kcal/mol
DOCKED: USER    (4) Unbound System's Energy         =  -1.42 kcal/mol
DOCKED: USER
DOCKED: USER
DOCKED: REMARK  5 active torsions:
DOCKED: REMARK  status: ('A' for Active; 'I' for Inactive)
DOCKED: REMARK    1  A    between atoms: C_2  and  C_19 
DOCKED: REMARK    2  A    between atoms: C_2  and  C_11 
DOCKED: REMARK    3  A    between atoms: C_19  and  C_20 
DOCKED: REMARK    4  A    between atoms: C_20  and  C_21 
DOCKED: REMARK    5  A    between atoms: C_21  and  N_22 
DOCKED: USER                              x       y       z     vdW  Elec       q    Type
DOCKED: USER                           _______ _______ _______ _____ _____    ______ ____
DOCKED: ROOT
DOCKED: ATOM      1  O   UNL     1     -35.654 -10.224  15.104 -0.03 -0.00    -0.346 OA 
DOCKED: ATOM      2  C   UNL     1     -36.549  -9.455  14.238 -0.10 +0.00    +0.130 C  
DOCKED: ATOM      3  C   UNL     1     -37.224 -10.501  13.399 -0.21 +0.00    +0.004 A  
DOCKED: ATOM      4  C   UNL     1     -36.833 -11.764  13.822 -0.24 +0.00    +0.006 A  
DOCKED: ATOM      5  C   UNL     1     -35.896 -11.643  14.962 -0.14 +0.00    +0.169 C  
DOCKED: ATOM      6  C   UNL     1     -38.121 -10.348  12.352 -0.27 -0.00    -0.001 A  
DOCKED: ATOM      7  C   UNL     1     -37.318 -12.910  13.216 -0.33 +0.00    +0.008 A  
DOCKED: ATOM      8  C   UNL     1     -38.616 -11.494  11.727 -0.32 +0.00    +0.010 A  
DOCKED: ATOM      9  C   UNL     1     -38.217 -12.768  12.158 -0.32 +0.00    +0.068 A  
DOCKED: ATOM     10  N   UNL     1     -39.158 -14.875  10.979 -2.38 -0.00    -0.191 NA 
DOCKED: ATOM     11  C   UNL     1     -38.736 -13.930  11.507 -0.37 +0.00    +0.101 C  
DOCKED: ENDROOT
DOCKED: BRANCH   2  12
DOCKED: ATOM     12  C   UNL     1     -37.523  -8.681  15.118 -0.05 +0.00    +0.038 C  
DOCKED: BRANCH  12  13
DOCKED: ATOM     13  C   UNL     1     -38.266  -9.608  16.077 -0.03 +0.00    +0.038 C  
DOCKED: BRANCH  13  14
DOCKED: ATOM     14  C   UNL     1     -39.763  -9.627  15.774 -0.01 +0.00    +0.251 C  
DOCKED: BRANCH  14  15
DOCKED: ATOM     15  N   UNL     1     -40.280 -10.988  15.855 -0.03 +0.00    +0.141 N  
DOCKED: ATOM     16  C   UNL     1     -40.676 -11.470  14.531 -0.03 +0.00    +0.285 C  
DOCKED: ATOM     17  C   UNL     1     -39.283 -11.884  16.444 -0.02 +0.00    +0.285 C  
DOCKED: ENDBRANCH  14  15
DOCKED: ENDBRANCH  13  14
DOCKED: ENDBRANCH  12  13
DOCKED: ENDBRANCH   2  12
DOCKED: BRANCH   2  18
DOCKED: ATOM     18  C   UNL     1     -35.694  -8.531  13.438 -0.13 +0.00    +0.006 A  
DOCKED: ATOM     19  C   UNL     1     -36.244  -7.821  12.371 -0.15 +0.00    +0.001 A  
DOCKED: ATOM     20  C   UNL     1     -35.443  -6.957  11.624 -0.11 +0.00    +0.029 A  
DOCKED: ATOM     21  C   UNL     1     -34.095  -6.803  11.943 -0.06 +0.00    +0.140 A  
DOCKED: ATOM     22  C   UNL     1     -33.546  -7.513  13.011 -0.06 +0.00    +0.029 A  
DOCKED: ATOM     23  F   UNL     1     -33.327  -5.972  11.227 -0.00 -0.00    -0.204 F  
DOCKED: ATOM     24  C   UNL     1     -34.346  -8.378  13.759 -0.09 +0.00    +0.001 A  
DOCKED: ENDBRANCH   2  18
DOCKED: TORSDOF 5
DOCKED: TER
DOCKED: ENDMDL
________________________________________________________________________________


    FINAL DOCKED STATE:
    ________________________


Run:   488 / 512
Time taken for this run:   0.002s

DOCKED: MODEL        488
DOCKED: USER    Run = 488
DOCKED: USER
DOCKED: USER    Estimated Free Energy of Binding    =  -3.98 kcal/mol  [=(1)+(2)+(3)-(4)]
DOCKED: USER
DOCKED: USER    (1) Final Intermolecular Energy     =  -5.47 kcal/mol
DOCKED: USER        vdW + Hbond + desolv Energy     =  -5.47 kcal/mol
DOCKED: USER        Electrostatic Energy            =  +0.00 kcal/mol
DOCKED: USER        Moving Ligand-Fixed Receptor    =  -5.47 kcal/mol
DOCKED: USER        Moving Ligand-Moving Receptor   =  +0.00 kcal/mol
DOCKED: USER    (2) Final Total Internal Energy     =  -1.38 kcal/mol
DOCKED: USER    (3) Torsional Free Energy           =  +1.49 kcal/mol
DOCKED: USER    (4) Unbound System's Energy         =  -1.38 kcal/mol
DOCKED: USER
DOCKED: USER
DOCKED: REMARK  5 active torsions:
DOCKED: REMARK  status: ('A' for Active; 'I' for Inactive)
DOCKED: REMARK    1  A    between atoms: C_2  and  C_19 
DOCKED: REMARK    2  A    between atoms: C_2  and  C_11 
DOCKED: REMARK    3  A    between atoms: C_19  and  C_20 
DOCKED: REMARK    4  A    between atoms: C_20  and  C_21 
DOCKED: REMARK    5  A    between atoms: C_21  and  N_22 
DOCKED: USER                              x       y       z     vdW  Elec       q    Type
DOCKED: USER                           _______ _______ _______ _____ _____    ______ ____
DOCKED: ROOT
DOCKED: ATOM      1  O   UNL     1     -34.246 -10.805  14.486 -0.09 -0.00    -0.346 OA 
DOCKED: ATOM      2  C   UNL     1     -35.251  -9.849  14.021 -0.13 +0.00    +0.130 C  
DOCKED: ATOM      3  C   UNL     1     -36.309 -10.713  13.399 -0.18 +0.00    +0.004 A  
DOCKED: ATOM      4  C   UNL     1     -35.991 -12.050  13.589 -0.20 +0.00    +0.006 A  
DOCKED: ATOM      5  C   UNL     1     -34.727 -12.163  14.350 -0.10 +0.00    +0.169 C  
DOCKED: ATOM      6  C   UNL     1     -37.467 -10.346  12.728 -0.27 -0.00    -0.001 A  
DOCKED: ATOM      7  C   UNL     1     -36.811 -13.061  13.115 -0.35 +0.00    +0.008 A  
DOCKED: ATOM      8  C   UNL     1     -38.301 -11.353  12.240 -0.31 +0.00    +0.010 A  
DOCKED: ATOM      9  C   UNL     1     -37.975 -12.703  12.434 -0.31 +0.00    +0.068 A  
DOCKED: ATOM     10  N   UNL     1     -39.549 -14.548  11.520 -2.49 -0.00    -0.191 NA 
DOCKED: ATOM     11  C   UNL     1     -38.843 -13.720  11.929 -0.34 +0.00    +0.101 C  
DOCKED: ENDROOT
DOCKED: BRANCH   2  12
DOCKED: ATOM     12  C   UNL     1     -35.760  -9.061  15.222 -0.05 +0.00    +0.038 C  
DOCKED: BRANCH  12  13
DOCKED: ATOM     13  C   UNL     1     -35.108  -9.539  16.518 -0.03 +0.00    +0.038 C  
DOCKED: BRANCH  13  14
DOCKED: ATOM     14  C   UNL     1     -33.714  -8.938  16.688 -0.01 +0.00    +0.251 C  
DOCKED: BRANCH  14  15
DOCKED: ATOM     15  N   UNL     1     -33.680  -7.581  16.156 -0.01 +0.00    +0.141 N  
DOCKED: ATOM     16  C   UNL     1     -33.969  -6.606  17.209 -0.00 +0.00    +0.285 C  
DOCKED: ATOM     17  C   UNL     1     -32.379  -7.299  15.547 -0.00 +0.00    +0.285 C  
DOCKED: ENDBRANCH  14  15
DOCKED: ENDBRANCH  13  14
DOCKED: ENDBRANCH  12  13
DOCKED: ENDBRANCH   2  12
DOCKED: BRANCH   2  18
DOCKED: ATOM     18  C   UNL     1     -34.579  -8.953  13.035 -0.11 +0.00    +0.006 A  
DOCKED: ATOM     19  C   UNL     1     -33.215  -9.096  12.781 -0.06 +0.00    +0.001 A  
DOCKED: ATOM     20  C   UNL     1     -32.587  -8.258  11.859 -0.09 +0.00    +0.029 A  
DOCKED: ATOM     21  C   UNL     1     -33.323  -7.278  11.193 -0.07 +0.00    +0.140 A  
DOCKED: ATOM     22  C   UNL     1     -34.686  -7.136  11.448 -0.12 +0.00    +0.029 A  
DOCKED: ATOM     23  F   UNL     1     -32.720  -6.475  10.307 -0.00 -0.00    -0.204 F  
DOCKED: ATOM     24  C   UNL     1     -35.316  -7.974  12.370 -0.15 +0.00    +0.001 A  
DOCKED: ENDBRANCH   2  18
DOCKED: TORSDOF 5
DOCKED: TER
DOCKED: ENDMDL
________________________________________________________________________________


    FINAL DOCKED STATE:
    ________________________


Run:   489 / 512
Time taken for this run:   0.002s

DOCKED: MODEL        489
DOCKED: USER    Run = 489
DOCKED: USER
DOCKED: USER    Estimated Free Energy of Binding    =  -4.12 kcal/mol  [=(1)+(2)+(3)-(4)]
DOCKED: USER
DOCKED: USER    (1) Final Intermolecular Energy     =  -5.62 kcal/mol
DOCKED: USER        vdW + Hbond + desolv Energy     =  -5.62 kcal/mol
DOCKED: USER        Electrostatic Energy            =  +0.00 kcal/mol
DOCKED: USER        Moving Ligand-Fixed Receptor    =  -5.62 kcal/mol
DOCKED: USER        Moving Ligand-Moving Receptor   =  +0.00 kcal/mol
DOCKED: USER    (2) Final Total Internal Energy     =  -1.35 kcal/mol
DOCKED: USER    (3) Torsional Free Energy           =  +1.49 kcal/mol
DOCKED: USER    (4) Unbound System's Energy         =  -1.35 kcal/mol
DOCKED: USER
DOCKED: USER
DOCKED: REMARK  5 active torsions:
DOCKED: REMARK  status: ('A' for Active; 'I' for Inactive)
DOCKED: REMARK    1  A    between atoms: C_2  and  C_19 
DOCKED: REMARK    2  A    between atoms: C_2  and  C_11 
DOCKED: REMARK    3  A    between atoms: C_19  and  C_20 
DOCKED: REMARK    4  A    between atoms: C_20  and  C_21 
DOCKED: REMARK    5  A    between atoms: C_21  and  N_22 
DOCKED: USER                              x       y       z     vdW  Elec       q    Type
DOCKED: USER                           _______ _______ _______ _____ _____    ______ ____
DOCKED: ROOT
DOCKED: ATOM      1  O   UNL     1     -39.709  -8.235  13.956 -0.04 -0.00    -0.346 OA 
DOCKED: ATOM      2  C   UNL     1     -38.330  -8.482  13.531 -0.14 +0.00    +0.130 C  
DOCKED: ATOM      3  C   UNL     1     -38.359  -9.893  13.019 -0.22 +0.00    +0.004 A  
DOCKED: ATOM      4  C   UNL     1     -39.661 -10.373  13.046 -0.21 +0.00    +0.006 A  
DOCKED: ATOM      5  C   UNL     1     -40.572  -9.324  13.556 -0.15 +0.00    +0.169 C  
DOCKED: ATOM      6  C   UNL     1     -37.318 -10.685  12.557 -0.28 -0.00    -0.001 A  
DOCKED: ATOM      7  C   UNL     1     -39.966 -11.654  12.618 -0.23 +0.00    +0.008 A  
DOCKED: ATOM      8  C   UNL     1     -37.609 -11.981  12.126 -0.33 +0.00    +0.010 A  
DOCKED: ATOM      9  C   UNL     1     -38.926 -12.462  12.156 -0.27 +0.00    +0.068 A  
DOCKED: ATOM     10  N   UNL     1     -39.432 -14.870  11.344 -2.56 -0.00    -0.191 NA 
DOCKED: ATOM     11  C   UNL     1     -39.205 -13.790  11.709 -0.36 +0.00    +0.101 C  
DOCKED: ENDROOT
DOCKED: BRANCH   2  12
DOCKED: ATOM     12  C   UNL     1     -37.967  -7.468  12.453 -0.17 +0.00    +0.038 C  
DOCKED: BRANCH  12  13
DOCKED: ATOM     13  C   UNL     1     -38.630  -6.116  12.715 -0.15 +0.00    +0.038 C  
DOCKED: BRANCH  13  14
DOCKED: ATOM     14  C   UNL     1     -39.943  -5.990  11.944 -0.11 +0.00    +0.251 C  
DOCKED: BRANCH  14  15
DOCKED: ATOM     15  N   UNL     1     -41.078  -6.167  12.842 -0.13 +0.00    +0.141 N  
DOCKED: ATOM     16  C   UNL     1     -41.084  -5.131  13.876 -0.02 +0.00    +0.285 C  
DOCKED: ATOM     17  C   UNL     1     -42.336  -6.145  12.093 -0.11 +0.00    +0.285 C  
DOCKED: ENDBRANCH  14  15
DOCKED: ENDBRANCH  13  14
DOCKED: ENDBRANCH  12  13
DOCKED: ENDBRANCH   2  12
DOCKED: BRANCH   2  18
DOCKED: ATOM     18  C   UNL     1     -37.466  -8.319  14.737 -0.05 +0.00    +0.006 A  
DOCKED: ATOM     19  C   UNL     1     -36.356  -7.477  14.689 -0.04 +0.00    +0.001 A  
DOCKED: ATOM     20  C   UNL     1     -35.549  -7.325  15.818 -0.01 +0.00    +0.029 A  
DOCKED: ATOM     21  C   UNL     1     -35.853  -8.014  16.991 -0.00 +0.00    +0.140 A  
DOCKED: ATOM     22  C   UNL     1     -36.964  -8.856  17.037 -0.01 +0.00    +0.029 A  
DOCKED: ATOM     23  F   UNL     1     -35.079  -7.867  18.074 -0.00 -0.00    -0.204 F  
DOCKED: ATOM     24  C   UNL     1     -37.772  -9.009  15.909 -0.02 +0.00    +0.001 A  
DOCKED: ENDBRANCH   2  18
DOCKED: TORSDOF 5
DOCKED: TER
DOCKED: ENDMDL
________________________________________________________________________________


    FINAL DOCKED STATE:
    ________________________


Run:   490 / 512
Time taken for this run:   0.002s

DOCKED: MODEL        490
DOCKED: USER    Run = 490
DOCKED: USER
DOCKED: USER    Estimated Free Energy of Binding    =  -5.44 kcal/mol  [=(1)+(2)+(3)-(4)]
DOCKED: USER
DOCKED: USER    (1) Final Intermolecular Energy     =  -6.94 kcal/mol
DOCKED: USER        vdW + Hbond + desolv Energy     =  -6.94 kcal/mol
DOCKED: USER        Electrostatic Energy            =  +0.00 kcal/mol
DOCKED: USER        Moving Ligand-Fixed Receptor    =  -6.94 kcal/mol
DOCKED: USER        Moving Ligand-Moving Receptor   =  +0.00 kcal/mol
DOCKED: USER    (2) Final Total Internal Energy     =  -1.05 kcal/mol
DOCKED: USER    (3) Torsional Free Energy           =  +1.49 kcal/mol
DOCKED: USER    (4) Unbound System's Energy         =  -1.05 kcal/mol
DOCKED: USER
DOCKED: USER
DOCKED: REMARK  5 active torsions:
DOCKED: REMARK  status: ('A' for Active; 'I' for Inactive)
DOCKED: REMARK    1  A    between atoms: C_2  and  C_19 
DOCKED: REMARK    2  A    between atoms: C_2  and  C_11 
DOCKED: REMARK    3  A    between atoms: C_19  and  C_20 
DOCKED: REMARK    4  A    between atoms: C_20  and  C_21 
DOCKED: REMARK    5  A    between atoms: C_21  and  N_22 
DOCKED: USER                              x       y       z     vdW  Elec       q    Type
DOCKED: USER                           _______ _______ _______ _____ _____    ______ ____
DOCKED: ROOT
DOCKED: ATOM      1  O   UNL     1     -41.629 -13.040  14.398 -0.04 -0.00    -0.346 OA 
DOCKED: ATOM      2  C   UNL     1     -40.386 -12.268  14.347 -0.11 +0.00    +0.130 C  
DOCKED: ATOM      3  C   UNL     1     -39.981 -12.335  12.903 -0.22 +0.00    +0.004 A  
DOCKED: ATOM      4  C   UNL     1     -40.961 -12.992  12.172 -0.29 +0.00    +0.006 A  
DOCKED: ATOM      5  C   UNL     1     -42.072 -13.388  13.066 -0.12 +0.00    +0.169 C  
DOCKED: ATOM      6  C   UNL     1     -38.841 -11.844  12.284 -0.30 -0.00    -0.001 A  
DOCKED: ATOM      7  C   UNL     1     -40.835 -13.183  10.807 -0.30 +0.00    +0.008 A  
DOCKED: ATOM      8  C   UNL     1     -38.697 -12.033  10.908 -0.34 +0.00    +0.010 A  
DOCKED: ATOM      9  C   UNL     1     -39.690 -12.699  10.174 -0.28 +0.00    +0.068 A  
DOCKED: ATOM     10  N   UNL     1     -39.394 -13.028   7.621 -2.84 -0.00    -0.191 NA 
DOCKED: ATOM     11  C   UNL     1     -39.526 -12.881   8.766 -0.27 +0.00    +0.101 C  
DOCKED: ENDROOT
DOCKED: BRANCH   2  12
DOCKED: ATOM     12  C   UNL     1     -40.680 -10.848  14.815 -0.10 +0.00    +0.038 C  
DOCKED: BRANCH  12  13
DOCKED: ATOM     13  C   UNL     1     -41.740 -10.181  13.941 -0.17 +0.00    +0.038 C  
DOCKED: BRANCH  13  14
DOCKED: ATOM     14  C   UNL     1     -41.103  -9.207  12.952 -0.15 +0.00    +0.251 C  
DOCKED: BRANCH  14  15
DOCKED: ATOM     15  N   UNL     1     -40.116  -8.373  13.626 -0.12 +0.00    +0.141 N  
DOCKED: ATOM     16  C   UNL     1     -38.762  -8.726  13.195 -0.14 +0.00    +0.285 C  
DOCKED: ATOM     17  C   UNL     1     -40.377  -6.956  13.370 -0.11 +0.00    +0.285 C  
DOCKED: ENDBRANCH  14  15
DOCKED: ENDBRANCH  13  14
DOCKED: ENDBRANCH  12  13
DOCKED: ENDBRANCH   2  12
DOCKED: BRANCH   2  18
DOCKED: ATOM     18  C   UNL     1     -39.415 -12.945  15.256 -0.15 +0.00    +0.006 A  
DOCKED: ATOM     19  C   UNL     1     -38.090 -13.116  14.857 -0.21 +0.00    +0.001 A  
DOCKED: ATOM     20  C   UNL     1     -37.183 -13.749  15.707 -0.14 +0.00    +0.029 A  
DOCKED: ATOM     21  C   UNL     1     -37.602 -14.209  16.955 -0.16 +0.00    +0.140 A  
DOCKED: ATOM     22  C   UNL     1     -38.927 -14.038  17.353 -0.12 +0.00    +0.029 A  
DOCKED: ATOM     23  F   UNL     1     -36.731 -14.815  17.772 -0.10 -0.00    -0.204 F  
DOCKED: ATOM     24  C   UNL     1     -39.835 -13.405  16.503 -0.14 +0.00    +0.001 A  
DOCKED: ENDBRANCH   2  18
DOCKED: TORSDOF 5
DOCKED: TER
DOCKED: ENDMDL
________________________________________________________________________________


    FINAL DOCKED STATE:
    ________________________


Run:   491 / 512
Time taken for this run:   0.002s

DOCKED: MODEL        491
DOCKED: USER    Run = 491
DOCKED: USER
DOCKED: USER    Estimated Free Energy of Binding    =  -4.08 kcal/mol  [=(1)+(2)+(3)-(4)]
DOCKED: USER
DOCKED: USER    (1) Final Intermolecular Energy     =  -5.57 kcal/mol
DOCKED: USER        vdW + Hbond + desolv Energy     =  -5.57 kcal/mol
DOCKED: USER        Electrostatic Energy            =  +0.00 kcal/mol
DOCKED: USER        Moving Ligand-Fixed Receptor    =  -5.57 kcal/mol
DOCKED: USER        Moving Ligand-Moving Receptor   =  +0.00 kcal/mol
DOCKED: USER    (2) Final Total Internal Energy     =  -1.42 kcal/mol
DOCKED: USER    (3) Torsional Free Energy           =  +1.49 kcal/mol
DOCKED: USER    (4) Unbound System's Energy         =  -1.42 kcal/mol
DOCKED: USER
DOCKED: USER
DOCKED: REMARK  5 active torsions:
DOCKED: REMARK  status: ('A' for Active; 'I' for Inactive)
DOCKED: REMARK    1  A    between atoms: C_2  and  C_19 
DOCKED: REMARK    2  A    between atoms: C_2  and  C_11 
DOCKED: REMARK    3  A    between atoms: C_19  and  C_20 
DOCKED: REMARK    4  A    between atoms: C_20  and  C_21 
DOCKED: REMARK    5  A    between atoms: C_21  and  N_22 
DOCKED: USER                              x       y       z     vdW  Elec       q    Type
DOCKED: USER                           _______ _______ _______ _____ _____    ______ ____
DOCKED: ROOT
DOCKED: ATOM      1  O   UNL     1     -36.063  -9.848  15.094 -0.02 -0.00    -0.346 OA 
DOCKED: ATOM      2  C   UNL     1     -36.445  -9.251  13.814 -0.13 +0.00    +0.130 C  
DOCKED: ATOM      3  C   UNL     1     -37.116 -10.375  13.079 -0.24 +0.00    +0.004 A  
DOCKED: ATOM      4  C   UNL     1     -37.208 -11.485  13.907 -0.20 +0.00    +0.006 A  
DOCKED: ATOM      5  C   UNL     1     -36.625 -11.173  15.231 -0.09 +0.00    +0.169 C  
DOCKED: ATOM      6  C   UNL     1     -37.615 -10.410  11.785 -0.12 -0.00    -0.001 A  
DOCKED: ATOM      7  C   UNL     1     -37.794 -12.662  13.472 -0.27 +0.00    +0.008 A  
DOCKED: ATOM      8  C   UNL     1     -38.205 -11.590  11.330 -0.33 +0.00    +0.010 A  
DOCKED: ATOM      9  C   UNL     1     -38.294 -12.710  12.170 -0.31 +0.00    +0.068 A  
DOCKED: ATOM     10  N   UNL     1     -39.400 -14.885  11.297 -2.55 -0.00    -0.191 NA 
DOCKED: ATOM     11  C   UNL     1     -38.903 -13.910  11.689 -0.31 +0.00    +0.101 C  
DOCKED: ENDROOT
DOCKED: BRANCH   2  12
DOCKED: ATOM     12  C   UNL     1     -37.381  -8.080  14.088 -0.09 +0.00    +0.038 C  
DOCKED: BRANCH  12  13
DOCKED: ATOM     13  C   UNL     1     -38.513  -8.480  15.032 -0.05 +0.00    +0.038 C  
DOCKED: BRANCH  13  14
DOCKED: ATOM     14  C   UNL     1     -39.713  -9.018  14.254 -0.06 +0.00    +0.251 C  
DOCKED: BRANCH  14  15
DOCKED: ATOM     15  N   UNL     1     -40.045 -10.365  14.701 -0.05 +0.00    +0.141 N  
DOCKED: ATOM     16  C   UNL     1     -40.042 -10.439  16.163 -0.00 +0.00    +0.285 C  
DOCKED: ATOM     17  C   UNL     1     -41.348 -10.777  14.175 -0.05 +0.00    +0.285 C  
DOCKED: ENDBRANCH  14  15
DOCKED: ENDBRANCH  13  14
DOCKED: ENDBRANCH  12  13
DOCKED: ENDBRANCH   2  12
DOCKED: BRANCH   2  18
DOCKED: ATOM     18  C   UNL     1     -35.188  -8.792  13.153 -0.14 +0.00    +0.006 A  
DOCKED: ATOM     19  C   UNL     1     -33.962  -8.964  13.794 -0.10 +0.00    +0.001 A  
DOCKED: ATOM     20  C   UNL     1     -32.787  -8.534  13.175 -0.08 +0.00    +0.029 A  
DOCKED: ATOM     21  C   UNL     1     -32.840  -7.935  11.918 -0.07 +0.00    +0.140 A  
DOCKED: ATOM     22  C   UNL     1     -34.067  -7.764  11.277 -0.13 +0.00    +0.029 A  
DOCKED: ATOM     23  F   UNL     1     -31.713  -7.524  11.323 -0.01 -0.00    -0.204 F  
DOCKED: ATOM     24  C   UNL     1     -35.243  -8.193  11.895 -0.16 +0.00    +0.001 A  
DOCKED: ENDBRANCH   2  18
DOCKED: TORSDOF 5
DOCKED: TER
DOCKED: ENDMDL
________________________________________________________________________________


    FINAL DOCKED STATE:
    ________________________


Run:   492 / 512
Time taken for this run:   0.002s

DOCKED: MODEL        492
DOCKED: USER    Run = 492
DOCKED: USER
DOCKED: USER    Estimated Free Energy of Binding    =  -4.29 kcal/mol  [=(1)+(2)+(3)-(4)]
DOCKED: USER
DOCKED: USER    (1) Final Intermolecular Energy     =  -5.78 kcal/mol
DOCKED: USER        vdW + Hbond + desolv Energy     =  -5.78 kcal/mol
DOCKED: USER        Electrostatic Energy            =  +0.00 kcal/mol
DOCKED: USER        Moving Ligand-Fixed Receptor    =  -5.78 kcal/mol
DOCKED: USER        Moving Ligand-Moving Receptor   =  +0.00 kcal/mol
DOCKED: USER    (2) Final Total Internal Energy     =  -0.98 kcal/mol
DOCKED: USER    (3) Torsional Free Energy           =  +1.49 kcal/mol
DOCKED: USER    (4) Unbound System's Energy         =  -0.98 kcal/mol
DOCKED: USER
DOCKED: USER
DOCKED: REMARK  5 active torsions:
DOCKED: REMARK  status: ('A' for Active; 'I' for Inactive)
DOCKED: REMARK    1  A    between atoms: C_2  and  C_19 
DOCKED: REMARK    2  A    between atoms: C_2  and  C_11 
DOCKED: REMARK    3  A    between atoms: C_19  and  C_20 
DOCKED: REMARK    4  A    between atoms: C_20  and  C_21 
DOCKED: REMARK    5  A    between atoms: C_21  and  N_22 
DOCKED: USER                              x       y       z     vdW  Elec       q    Type
DOCKED: USER                           _______ _______ _______ _____ _____    ______ ____
DOCKED: ROOT
DOCKED: ATOM      1  O   UNL     1     -36.428  -8.545  13.405 -0.05 -0.00    -0.346 OA 
DOCKED: ATOM      2  C   UNL     1     -37.873  -8.380  13.570 -0.13 +0.00    +0.130 C  
DOCKED: ATOM      3  C   UNL     1     -38.441  -9.687  13.098 -0.21 +0.00    +0.004 A  
DOCKED: ATOM      4  C   UNL     1     -37.408 -10.562  12.795 -0.27 +0.00    +0.006 A  
DOCKED: ATOM      5  C   UNL     1     -36.104  -9.910  13.053 -0.13 +0.00    +0.169 C  
DOCKED: ATOM      6  C   UNL     1     -39.766 -10.074  12.959 -0.22 -0.00    -0.001 A  
DOCKED: ATOM      7  C   UNL     1     -37.661 -11.846  12.341 -0.33 +0.00    +0.008 A  
DOCKED: ATOM      8  C   UNL     1     -40.037 -11.363  12.498 -0.23 +0.00    +0.010 A  
DOCKED: ATOM      9  C   UNL     1     -38.990 -12.245  12.191 -0.26 +0.00    +0.068 A  
DOCKED: ATOM     10  N   UNL     1     -39.529 -14.633  11.343 -2.56 -0.00    -0.191 NA 
DOCKED: ATOM     11  C   UNL     1     -39.287 -13.561  11.723 -0.36 +0.00    +0.101 C  
DOCKED: ENDROOT
DOCKED: BRANCH   2  12
DOCKED: ATOM     12  C   UNL     1     -38.162  -8.104  15.041 -0.04 +0.00    +0.038 C  
DOCKED: BRANCH  12  13
DOCKED: ATOM     13  C   UNL     1     -39.663  -8.096  15.321 -0.04 +0.00    +0.038 C  
DOCKED: BRANCH  13  14
DOCKED: ATOM     14  C   UNL     1     -40.031  -9.137  16.377 -0.00 +0.00    +0.251 C  
DOCKED: BRANCH  14  15
DOCKED: ATOM     15  N   UNL     1     -41.480  -9.244  16.501 -0.01 +0.00    +0.141 N  
DOCKED: ATOM     16  C   UNL     1     -42.075  -7.929  16.741 +0.00 +0.00    +0.285 C  
DOCKED: ATOM     17  C   UNL     1     -42.057  -9.852  15.301 -0.01 +0.00    +0.285 C  
DOCKED: ENDBRANCH  14  15
DOCKED: ENDBRANCH  13  14
DOCKED: ENDBRANCH  12  13
DOCKED: ENDBRANCH   2  12
DOCKED: BRANCH   2  18
DOCKED: ATOM     18  C   UNL     1     -38.280  -7.226  12.716 -0.17 +0.00    +0.006 A  
DOCKED: ATOM     19  C   UNL     1     -37.309  -6.418  12.126 -0.13 +0.00    +0.001 A  
DOCKED: ATOM     20  C   UNL     1     -37.691  -5.340  11.328 -0.13 +0.00    +0.029 A  
DOCKED: ATOM     21  C   UNL     1     -39.043  -5.071  11.119 -0.13 +0.00    +0.140 A  
DOCKED: ATOM     22  C   UNL     1     -40.014  -5.880  11.709 -0.13 +0.00    +0.029 A  
DOCKED: ATOM     23  F   UNL     1     -39.410  -4.037  10.351 -0.02 -0.00    -0.204 F  
DOCKED: ATOM     24  C   UNL     1     -39.633  -6.959  12.508 -0.21 +0.00    +0.001 A  
DOCKED: ENDBRANCH   2  18
DOCKED: TORSDOF 5
DOCKED: TER
DOCKED: ENDMDL
________________________________________________________________________________


    FINAL DOCKED STATE:
    ________________________


Run:   493 / 512
Time taken for this run:   0.002s

DOCKED: MODEL        493
DOCKED: USER    Run = 493
DOCKED: USER
DOCKED: USER    Estimated Free Energy of Binding    =  -5.16 kcal/mol  [=(1)+(2)+(3)-(4)]
DOCKED: USER
DOCKED: USER    (1) Final Intermolecular Energy     =  -6.65 kcal/mol
DOCKED: USER        vdW + Hbond + desolv Energy     =  -6.65 kcal/mol
DOCKED: USER        Electrostatic Energy            =  +0.00 kcal/mol
DOCKED: USER        Moving Ligand-Fixed Receptor    =  -6.65 kcal/mol
DOCKED: USER        Moving Ligand-Moving Receptor   =  +0.00 kcal/mol
DOCKED: USER    (2) Final Total Internal Energy     =  -1.06 kcal/mol
DOCKED: USER    (3) Torsional Free Energy           =  +1.49 kcal/mol
DOCKED: USER    (4) Unbound System's Energy         =  -1.06 kcal/mol
DOCKED: USER
DOCKED: USER
DOCKED: REMARK  5 active torsions:
DOCKED: REMARK  status: ('A' for Active; 'I' for Inactive)
DOCKED: REMARK    1  A    between atoms: C_2  and  C_19 
DOCKED: REMARK    2  A    between atoms: C_2  and  C_11 
DOCKED: REMARK    3  A    between atoms: C_19  and  C_20 
DOCKED: REMARK    4  A    between atoms: C_20  and  C_21 
DOCKED: REMARK    5  A    between atoms: C_21  and  N_22 
DOCKED: USER                              x       y       z     vdW  Elec       q    Type
DOCKED: USER                           _______ _______ _______ _____ _____    ______ ____
DOCKED: ROOT
DOCKED: ATOM      1  O   UNL     1     -36.561 -13.730  14.499 -0.08 -0.00    -0.346 OA 
DOCKED: ATOM      2  C   UNL     1     -37.155 -12.400  14.359 -0.20 +0.00    +0.130 C  
DOCKED: ATOM      3  C   UNL     1     -37.730 -12.407  12.972 -0.31 +0.00    +0.004 A  
DOCKED: ATOM      4  C   UNL     1     -37.575 -13.666  12.409 -0.39 +0.00    +0.006 A  
DOCKED: ATOM      5  C   UNL     1     -36.910 -14.570  13.374 -0.14 +0.00    +0.169 C  
DOCKED: ATOM      6  C   UNL     1     -38.350 -11.385  12.268 -0.32 -0.00    -0.001 A  
DOCKED: ATOM      7  C   UNL     1     -38.028 -13.945  11.131 -0.46 +0.00    +0.008 A  
DOCKED: ATOM      8  C   UNL     1     -38.808 -11.648  10.976 -0.10 +0.00    +0.010 A  
DOCKED: ATOM      9  C   UNL     1     -38.648 -12.922  10.411 -0.41 +0.00    +0.068 A  
DOCKED: ATOM     10  N   UNL     1     -39.514 -13.380   8.012 -2.49 -0.00    -0.191 NA 
DOCKED: ATOM     11  C   UNL     1     -39.125 -13.175   9.088 -0.51 +0.00    +0.101 C  
DOCKED: ENDROOT
DOCKED: BRANCH   2  12
DOCKED: ATOM     12  C   UNL     1     -38.216 -12.229  15.440 -0.13 +0.00    +0.038 C  
DOCKED: BRANCH  12  13
DOCKED: ATOM     13  C   UNL     1     -39.432 -13.113  15.171 -0.19 +0.00    +0.038 C  
DOCKED: BRANCH  13  14
DOCKED: ATOM     14  C   UNL     1     -40.489 -12.940  16.260 -0.06 +0.00    +0.251 C  
DOCKED: BRANCH  14  15
DOCKED: ATOM     15  N   UNL     1     -39.864 -12.930  17.577 -0.06 +0.00    +0.141 N  
DOCKED: ATOM     16  C   UNL     1     -40.691 -12.197  18.536 -0.01 +0.00    +0.285 C  
DOCKED: ATOM     17  C   UNL     1     -39.632 -14.297  18.048 -0.06 +0.00    +0.285 C  
DOCKED: ENDBRANCH  14  15
DOCKED: ENDBRANCH  13  14
DOCKED: ENDBRANCH  12  13
DOCKED: ENDBRANCH   2  12
DOCKED: BRANCH   2  18
DOCKED: ATOM     18  C   UNL     1     -36.052 -11.409  14.526 -0.19 +0.00    +0.006 A  
DOCKED: ATOM     19  C   UNL     1     -34.728 -11.803  14.340 -0.20 +0.00    +0.001 A  
DOCKED: ATOM     20  C   UNL     1     -33.697 -10.875  14.497 -0.14 +0.00    +0.029 A  
DOCKED: ATOM     21  C   UNL     1     -33.992  -9.556  14.839 -0.06 +0.00    +0.140 A  
DOCKED: ATOM     22  C   UNL     1     -35.317  -9.163  15.025 -0.06 +0.00    +0.029 A  
DOCKED: ATOM     23  F   UNL     1     -33.003  -8.666  14.988 -0.00 -0.00    -0.204 F  
DOCKED: ATOM     24  C   UNL     1     -36.349 -10.090  14.869 -0.09 +0.00    +0.001 A  
DOCKED: ENDBRANCH   2  18
DOCKED: TORSDOF 5
DOCKED: TER
DOCKED: ENDMDL
________________________________________________________________________________


    FINAL DOCKED STATE:
    ________________________


Run:   494 / 512
Time taken for this run:   0.002s

DOCKED: MODEL        494
DOCKED: USER    Run = 494
DOCKED: USER
DOCKED: USER    Estimated Free Energy of Binding    =  -4.32 kcal/mol  [=(1)+(2)+(3)-(4)]
DOCKED: USER
DOCKED: USER    (1) Final Intermolecular Energy     =  -5.81 kcal/mol
DOCKED: USER        vdW + Hbond + desolv Energy     =  -5.81 kcal/mol
DOCKED: USER        Electrostatic Energy            =  +0.00 kcal/mol
DOCKED: USER        Moving Ligand-Fixed Receptor    =  -5.81 kcal/mol
DOCKED: USER        Moving Ligand-Moving Receptor   =  +0.00 kcal/mol
DOCKED: USER    (2) Final Total Internal Energy     =  -1.32 kcal/mol
DOCKED: USER    (3) Torsional Free Energy           =  +1.49 kcal/mol
DOCKED: USER    (4) Unbound System's Energy         =  -1.32 kcal/mol
DOCKED: USER
DOCKED: USER
DOCKED: REMARK  5 active torsions:
DOCKED: REMARK  status: ('A' for Active; 'I' for Inactive)
DOCKED: REMARK    1  A    between atoms: C_2  and  C_19 
DOCKED: REMARK    2  A    between atoms: C_2  and  C_11 
DOCKED: REMARK    3  A    between atoms: C_19  and  C_20 
DOCKED: REMARK    4  A    between atoms: C_20  and  C_21 
DOCKED: REMARK    5  A    between atoms: C_21  and  N_22 
DOCKED: USER                              x       y       z     vdW  Elec       q    Type
DOCKED: USER                           _______ _______ _______ _____ _____    ______ ____
DOCKED: ROOT
DOCKED: ATOM      1  O   UNL     1     -36.549  -8.538  13.554 -0.04 -0.00    -0.346 OA 
DOCKED: ATOM      2  C   UNL     1     -38.003  -8.390  13.626 -0.13 +0.00    +0.130 C  
DOCKED: ATOM      3  C   UNL     1     -38.525  -9.707  13.130 -0.21 +0.00    +0.004 A  
DOCKED: ATOM      4  C   UNL     1     -37.464 -10.572  12.900 -0.26 +0.00    +0.006 A  
DOCKED: ATOM      5  C   UNL     1     -36.188  -9.902  13.234 -0.17 +0.00    +0.169 C  
DOCKED: ATOM      6  C   UNL     1     -39.833 -10.112  12.911 -0.22 -0.00    -0.001 A  
DOCKED: ATOM      7  C   UNL     1     -37.673 -11.862  12.441 -0.33 +0.00    +0.008 A  
DOCKED: ATOM      8  C   UNL     1     -40.060 -11.408  12.445 -0.23 +0.00    +0.010 A  
DOCKED: ATOM      9  C   UNL     1     -38.985 -12.278  12.212 -0.26 +0.00    +0.068 A  
DOCKED: ATOM     10  N   UNL     1     -39.441 -14.679  11.351 -2.54 -0.00    -0.191 NA 
DOCKED: ATOM     11  C   UNL     1     -39.236 -13.602  11.736 -0.36 +0.00    +0.101 C  
DOCKED: ENDROOT
DOCKED: BRANCH   2  12
DOCKED: ATOM     12  C   UNL     1     -38.388  -8.106  15.073 -0.04 +0.00    +0.038 C  
DOCKED: BRANCH  12  13
DOCKED: ATOM     13  C   UNL     1     -38.510  -9.397  15.880 -0.03 +0.00    +0.038 C  
DOCKED: BRANCH  13  14
DOCKED: ATOM     14  C   UNL     1     -39.957  -9.646  16.303 -0.01 +0.00    +0.251 C  
DOCKED: BRANCH  14  15
DOCKED: ATOM     15  N   UNL     1     -40.269 -11.069  16.231 -0.02 +0.00    +0.141 N  
DOCKED: ATOM     16  C   UNL     1     -39.063 -11.847  15.943 -0.02 +0.00    +0.285 C  
DOCKED: ATOM     17  C   UNL     1     -40.882 -11.526  17.478 -0.00 +0.00    +0.285 C  
DOCKED: ENDBRANCH  14  15
DOCKED: ENDBRANCH  13  14
DOCKED: ENDBRANCH  12  13
DOCKED: ENDBRANCH   2  12
DOCKED: BRANCH   2  18
DOCKED: ATOM     18  C   UNL     1     -38.370  -7.248  12.738 -0.17 +0.00    +0.006 A  
DOCKED: ATOM     19  C   UNL     1     -37.372  -6.529  12.080 -0.13 +0.00    +0.001 A  
DOCKED: ATOM     20  C   UNL     1     -37.716  -5.461  11.250 -0.13 +0.00    +0.029 A  
DOCKED: ATOM     21  C   UNL     1     -39.056  -5.114  11.079 -0.13 +0.00    +0.140 A  
DOCKED: ATOM     22  C   UNL     1     -40.053  -5.834  11.737 -0.14 +0.00    +0.029 A  
DOCKED: ATOM     23  F   UNL     1     -39.385  -4.090  10.281 -0.03 -0.00    -0.204 F  
DOCKED: ATOM     24  C   UNL     1     -39.710  -6.902  12.568 -0.21 +0.00    +0.001 A  
DOCKED: ENDBRANCH   2  18
DOCKED: TORSDOF 5
DOCKED: TER
DOCKED: ENDMDL
________________________________________________________________________________


    FINAL DOCKED STATE:
    ________________________


Run:   495 / 512
Time taken for this run:   0.002s

DOCKED: MODEL        495
DOCKED: USER    Run = 495
DOCKED: USER
DOCKED: USER    Estimated Free Energy of Binding    =  -4.17 kcal/mol  [=(1)+(2)+(3)-(4)]
DOCKED: USER
DOCKED: USER    (1) Final Intermolecular Energy     =  -5.66 kcal/mol
DOCKED: USER        vdW + Hbond + desolv Energy     =  -5.66 kcal/mol
DOCKED: USER        Electrostatic Energy            =  +0.00 kcal/mol
DOCKED: USER        Moving Ligand-Fixed Receptor    =  -5.66 kcal/mol
DOCKED: USER        Moving Ligand-Moving Receptor   =  +0.00 kcal/mol
DOCKED: USER    (2) Final Total Internal Energy     =  -1.55 kcal/mol
DOCKED: USER    (3) Torsional Free Energy           =  +1.49 kcal/mol
DOCKED: USER    (4) Unbound System's Energy         =  -1.55 kcal/mol
DOCKED: USER
DOCKED: USER
DOCKED: REMARK  5 active torsions:
DOCKED: REMARK  status: ('A' for Active; 'I' for Inactive)
DOCKED: REMARK    1  A    between atoms: C_2  and  C_19 
DOCKED: REMARK    2  A    between atoms: C_2  and  C_11 
DOCKED: REMARK    3  A    between atoms: C_19  and  C_20 
DOCKED: REMARK    4  A    between atoms: C_20  and  C_21 
DOCKED: REMARK    5  A    between atoms: C_21  and  N_22 
DOCKED: USER                              x       y       z     vdW  Elec       q    Type
DOCKED: USER                           _______ _______ _______ _____ _____    ______ ____
DOCKED: ROOT
DOCKED: ATOM      1  O   UNL     1     -37.356  -8.216  12.817 -0.08 -0.00    -0.346 OA 
DOCKED: ATOM      2  C   UNL     1     -38.562  -8.536  13.582 -0.14 +0.00    +0.130 C  
DOCKED: ATOM      3  C   UNL     1     -38.898  -9.935  13.154 -0.21 +0.00    +0.004 A  
DOCKED: ATOM      4  C   UNL     1     -37.912 -10.414  12.304 -0.28 +0.00    +0.006 A  
DOCKED: ATOM      5  C   UNL     1     -36.863  -9.385  12.122 -0.12 +0.00    +0.169 C  
DOCKED: ATOM      6  C   UNL     1     -39.985 -10.726  13.499 -0.17 -0.00    -0.001 A  
DOCKED: ATOM      7  C   UNL     1     -37.978 -11.688  11.768 -0.35 +0.00    +0.008 A  
DOCKED: ATOM      8  C   UNL     1     -40.068 -12.012  12.964 -0.21 +0.00    +0.010 A  
DOCKED: ATOM      9  C   UNL     1     -39.070 -12.491  12.103 -0.27 +0.00    +0.068 A  
DOCKED: ATOM     10  N   UNL     1     -39.253 -14.886  11.131 -2.47 -0.00    -0.191 NA 
DOCKED: ATOM     11  C   UNL     1     -39.171 -13.811  11.566 -0.38 +0.00    +0.101 C  
DOCKED: ENDROOT
DOCKED: BRANCH   2  12
DOCKED: ATOM     12  C   UNL     1     -38.232  -8.433  15.067 -0.05 +0.00    +0.038 C  
DOCKED: BRANCH  12  13
DOCKED: ATOM     13  C   UNL     1     -36.994  -7.570  15.304 -0.03 +0.00    +0.038 C  
DOCKED: BRANCH  13  14
DOCKED: ATOM     14  C   UNL     1     -37.321  -6.086  15.150 -0.01 +0.00    +0.251 C  
DOCKED: BRANCH  14  15
DOCKED: ATOM     15  N   UNL     1     -36.862  -5.596  13.856 -0.02 +0.00    +0.141 N  
DOCKED: ATOM     16  C   UNL     1     -37.354  -4.239  13.613 -0.01 +0.00    +0.285 C  
DOCKED: ATOM     17  C   UNL     1     -35.400  -5.627  13.783 -0.01 +0.00    +0.285 C  
DOCKED: ENDBRANCH  14  15
DOCKED: ENDBRANCH  13  14
DOCKED: ENDBRANCH  12  13
DOCKED: ENDBRANCH   2  12
DOCKED: BRANCH   2  18
DOCKED: ATOM     18  C   UNL     1     -39.604  -7.542  13.192 -0.19 +0.00    +0.006 A  
DOCKED: ATOM     19  C   UNL     1     -39.387  -6.695  12.106 -0.18 +0.00    +0.001 A  
DOCKED: ATOM     20  C   UNL     1     -40.362  -5.766  11.742 -0.13 +0.00    +0.029 A  
DOCKED: ATOM     21  C   UNL     1     -41.552  -5.685  12.464 -0.12 +0.00    +0.140 A  
DOCKED: ATOM     22  C   UNL     1     -41.768  -6.532  13.550 -0.12 +0.00    +0.029 A  
DOCKED: ATOM     23  F   UNL     1     -42.488  -4.794  12.113 -0.01 -0.00    -0.204 F  
DOCKED: ATOM     24  C   UNL     1     -40.793  -7.462  13.915 -0.12 +0.00    +0.001 A  
DOCKED: ENDBRANCH   2  18
DOCKED: TORSDOF 5
DOCKED: TER
DOCKED: ENDMDL
________________________________________________________________________________


    FINAL DOCKED STATE:
    ________________________


Run:   496 / 512
Time taken for this run:   0.002s

DOCKED: MODEL        496
DOCKED: USER    Run = 496
DOCKED: USER
DOCKED: USER    Estimated Free Energy of Binding    =  -4.12 kcal/mol  [=(1)+(2)+(3)-(4)]
DOCKED: USER
DOCKED: USER    (1) Final Intermolecular Energy     =  -5.61 kcal/mol
DOCKED: USER        vdW + Hbond + desolv Energy     =  -5.61 kcal/mol
DOCKED: USER        Electrostatic Energy            =  +0.00 kcal/mol
DOCKED: USER        Moving Ligand-Fixed Receptor    =  -5.61 kcal/mol
DOCKED: USER        Moving Ligand-Moving Receptor   =  +0.00 kcal/mol
DOCKED: USER    (2) Final Total Internal Energy     =  -1.42 kcal/mol
DOCKED: USER    (3) Torsional Free Energy           =  +1.49 kcal/mol
DOCKED: USER    (4) Unbound System's Energy         =  -1.42 kcal/mol
DOCKED: USER
DOCKED: USER
DOCKED: REMARK  5 active torsions:
DOCKED: REMARK  status: ('A' for Active; 'I' for Inactive)
DOCKED: REMARK    1  A    between atoms: C_2  and  C_19 
DOCKED: REMARK    2  A    between atoms: C_2  and  C_11 
DOCKED: REMARK    3  A    between atoms: C_19  and  C_20 
DOCKED: REMARK    4  A    between atoms: C_20  and  C_21 
DOCKED: REMARK    5  A    between atoms: C_21  and  N_22 
DOCKED: USER                              x       y       z     vdW  Elec       q    Type
DOCKED: USER                           _______ _______ _______ _____ _____    ______ ____
DOCKED: ROOT
DOCKED: ATOM      1  O   UNL     1     -35.103  -9.945  14.507 -0.06 -0.00    -0.346 OA 
DOCKED: ATOM      2  C   UNL     1     -36.282  -9.214  14.042 -0.11 +0.00    +0.130 C  
DOCKED: ATOM      3  C   UNL     1     -37.119 -10.268  13.377 -0.21 +0.00    +0.004 A  
DOCKED: ATOM      4  C   UNL     1     -36.525 -11.510  13.543 -0.24 +0.00    +0.006 A  
DOCKED: ATOM      5  C   UNL     1     -35.279 -11.370  14.329 -0.17 +0.00    +0.169 C  
DOCKED: ATOM      6  C   UNL     1     -38.317 -10.138  12.689 -0.26 -0.00    -0.001 A  
DOCKED: ATOM      7  C   UNL     1     -37.100 -12.659  13.028 -0.33 +0.00    +0.008 A  
DOCKED: ATOM      8  C   UNL     1     -38.908 -11.287  12.160 -0.28 +0.00    +0.010 A  
DOCKED: ATOM      9  C   UNL     1     -38.302 -12.541  12.329 -0.29 +0.00    +0.068 A  
DOCKED: ATOM     10  N   UNL     1     -39.428 -14.654  11.338 -2.53 -0.00    -0.191 NA 
DOCKED: ATOM     11  C   UNL     1     -38.922 -13.706  11.782 -0.37 +0.00    +0.101 C  
DOCKED: ENDROOT
DOCKED: BRANCH   2  12
DOCKED: ATOM     12  C   UNL     1     -36.968  -8.586  15.250 -0.04 +0.00    +0.038 C  
DOCKED: BRANCH  12  13
DOCKED: ATOM     13  C   UNL     1     -38.275  -9.302  15.583 -0.04 +0.00    +0.038 C  
DOCKED: BRANCH  13  14
DOCKED: ATOM     14  C   UNL     1     -38.081 -10.299  16.723 -0.01 +0.00    +0.251 C  
DOCKED: BRANCH  14  15
DOCKED: ATOM     15  N   UNL     1     -38.122 -11.666  16.216 -0.04 +0.00    +0.141 N  
DOCKED: ATOM     16  C   UNL     1     -37.237 -12.533  16.995 -0.07 +0.00    +0.285 C  
DOCKED: ATOM     17  C   UNL     1     -39.491 -12.184  16.240 -0.03 +0.00    +0.285 C  
DOCKED: ENDBRANCH  14  15
DOCKED: ENDBRANCH  13  14
DOCKED: ENDBRANCH  12  13
DOCKED: ENDBRANCH   2  12
DOCKED: BRANCH   2  18
DOCKED: ATOM     18  C   UNL     1     -35.801  -8.168  13.093 -0.14 +0.00    +0.006 A  
DOCKED: ATOM     19  C   UNL     1     -35.740  -6.835  13.497 -0.06 +0.00    +0.001 A  
DOCKED: ATOM     20  C   UNL     1     -35.291  -5.858  12.608 -0.05 +0.00    +0.029 A  
DOCKED: ATOM     21  C   UNL     1     -34.901  -6.215  11.318 -0.06 +0.00    +0.140 A  
DOCKED: ATOM     22  C   UNL     1     -34.962  -7.549  10.914 -0.11 +0.00    +0.029 A  
DOCKED: ATOM     23  F   UNL     1     -34.468  -5.277  10.465 -0.01 -0.00    -0.204 F  
DOCKED: ATOM     24  C   UNL     1     -35.412  -8.527  11.803 -0.11 +0.00    +0.001 A  
DOCKED: ENDBRANCH   2  18
DOCKED: TORSDOF 5
DOCKED: TER
DOCKED: ENDMDL
________________________________________________________________________________


    FINAL DOCKED STATE:
    ________________________


Run:   497 / 512
Time taken for this run:   0.002s

DOCKED: MODEL        497
DOCKED: USER    Run = 497
DOCKED: USER
DOCKED: USER    Estimated Free Energy of Binding    =  -4.37 kcal/mol  [=(1)+(2)+(3)-(4)]
DOCKED: USER
DOCKED: USER    (1) Final Intermolecular Energy     =  -5.86 kcal/mol
DOCKED: USER        vdW + Hbond + desolv Energy     =  -5.86 kcal/mol
DOCKED: USER        Electrostatic Energy            =  +0.00 kcal/mol
DOCKED: USER        Moving Ligand-Fixed Receptor    =  -5.86 kcal/mol
DOCKED: USER        Moving Ligand-Moving Receptor   =  +0.00 kcal/mol
DOCKED: USER    (2) Final Total Internal Energy     =  -1.48 kcal/mol
DOCKED: USER    (3) Torsional Free Energy           =  +1.49 kcal/mol
DOCKED: USER    (4) Unbound System's Energy         =  -1.48 kcal/mol
DOCKED: USER
DOCKED: USER
DOCKED: REMARK  5 active torsions:
DOCKED: REMARK  status: ('A' for Active; 'I' for Inactive)
DOCKED: REMARK    1  A    between atoms: C_2  and  C_19 
DOCKED: REMARK    2  A    between atoms: C_2  and  C_11 
DOCKED: REMARK    3  A    between atoms: C_19  and  C_20 
DOCKED: REMARK    4  A    between atoms: C_20  and  C_21 
DOCKED: REMARK    5  A    between atoms: C_21  and  N_22 
DOCKED: USER                              x       y       z     vdW  Elec       q    Type
DOCKED: USER                           _______ _______ _______ _____ _____    ______ ____
DOCKED: ROOT
DOCKED: ATOM      1  O   UNL     1     -36.813  -8.128  12.888 -0.07 -0.00    -0.346 OA 
DOCKED: ATOM      2  C   UNL     1     -38.220  -8.113  13.291 -0.15 +0.00    +0.130 C  
DOCKED: ATOM      3  C   UNL     1     -38.716  -9.479  12.916 -0.22 +0.00    +0.004 A  
DOCKED: ATOM      4  C   UNL     1     -37.661 -10.246  12.443 -0.28 +0.00    +0.006 A  
DOCKED: ATOM      5  C   UNL     1     -36.409  -9.457  12.483 -0.15 +0.00    +0.169 C  
DOCKED: ATOM      6  C   UNL     1     -39.997 -10.005  12.998 -0.22 -0.00    -0.001 A  
DOCKED: ATOM      7  C   UNL     1     -37.848 -11.555  12.033 -0.33 +0.00    +0.008 A  
DOCKED: ATOM      8  C   UNL     1     -40.203 -11.323  12.584 -0.22 +0.00    +0.010 A  
DOCKED: ATOM      9  C   UNL     1     -39.133 -12.094  12.105 -0.26 +0.00    +0.068 A  
DOCKED: ATOM     10  N   UNL     1     -39.549 -14.537  11.351 -2.55 -0.00    -0.191 NA 
DOCKED: ATOM     11  C   UNL     1     -39.363 -13.441  11.688 -0.36 +0.00    +0.101 C  
DOCKED: ENDROOT
DOCKED: BRANCH   2  12
DOCKED: ATOM     12  C   UNL     1     -38.290  -7.847  14.790 -0.05 +0.00    +0.038 C  
DOCKED: BRANCH  12  13
DOCKED: ATOM     13  C   UNL     1     -36.895  -7.692  15.394 -0.03 +0.00    +0.038 C  
DOCKED: BRANCH  13  14
DOCKED: ATOM     14  C   UNL     1     -36.559  -6.220  15.629 -0.00 +0.00    +0.251 C  
DOCKED: BRANCH  14  15
DOCKED: ATOM     15  N   UNL     1     -36.767  -5.451  14.408 -0.01 +0.00    +0.141 N  
DOCKED: ATOM     16  C   UNL     1     -37.217  -4.094  14.723 -0.00 +0.00    +0.285 C  
DOCKED: ATOM     17  C   UNL     1     -35.539  -5.406  13.612 -0.01 +0.00    +0.285 C  
DOCKED: ENDBRANCH  14  15
DOCKED: ENDBRANCH  13  14
DOCKED: ENDBRANCH  12  13
DOCKED: ENDBRANCH   2  12
DOCKED: BRANCH   2  18
DOCKED: ATOM     18  C   UNL     1     -38.883  -7.021  12.519 -0.19 +0.00    +0.006 A  
DOCKED: ATOM     19  C   UNL     1     -38.127  -6.202  11.682 -0.12 +0.00    +0.001 A  
DOCKED: ATOM     20  C   UNL     1     -38.749  -5.181  10.961 -0.16 +0.00    +0.029 A  
DOCKED: ATOM     21  C   UNL     1     -40.123  -4.982  11.078 -0.10 +0.00    +0.140 A  
DOCKED: ATOM     22  C   UNL     1     -40.878  -5.802  11.916 -0.14 +0.00    +0.029 A  
DOCKED: ATOM     23  F   UNL     1     -40.719  -4.003  10.385 -0.02 -0.00    -0.204 F  
DOCKED: ATOM     24  C   UNL     1     -40.258  -6.823  12.638 -0.21 +0.00    +0.001 A  
DOCKED: ENDBRANCH   2  18
DOCKED: TORSDOF 5
DOCKED: TER
DOCKED: ENDMDL
________________________________________________________________________________


    FINAL DOCKED STATE:
    ________________________


Run:   498 / 512
Time taken for this run:   0.002s

DOCKED: MODEL        498
DOCKED: USER    Run = 498
DOCKED: USER
DOCKED: USER    Estimated Free Energy of Binding    =  -4.70 kcal/mol  [=(1)+(2)+(3)-(4)]
DOCKED: USER
DOCKED: USER    (1) Final Intermolecular Energy     =  -6.19 kcal/mol
DOCKED: USER        vdW + Hbond + desolv Energy     =  -6.19 kcal/mol
DOCKED: USER        Electrostatic Energy            =  +0.00 kcal/mol
DOCKED: USER        Moving Ligand-Fixed Receptor    =  -6.19 kcal/mol
DOCKED: USER        Moving Ligand-Moving Receptor   =  +0.00 kcal/mol
DOCKED: USER    (2) Final Total Internal Energy     =  -1.09 kcal/mol
DOCKED: USER    (3) Torsional Free Energy           =  +1.49 kcal/mol
DOCKED: USER    (4) Unbound System's Energy         =  -1.09 kcal/mol
DOCKED: USER
DOCKED: USER
DOCKED: REMARK  5 active torsions:
DOCKED: REMARK  status: ('A' for Active; 'I' for Inactive)
DOCKED: REMARK    1  A    between atoms: C_2  and  C_19 
DOCKED: REMARK    2  A    between atoms: C_2  and  C_11 
DOCKED: REMARK    3  A    between atoms: C_19  and  C_20 
DOCKED: REMARK    4  A    between atoms: C_20  and  C_21 
DOCKED: REMARK    5  A    between atoms: C_21  and  N_22 
DOCKED: USER                              x       y       z     vdW  Elec       q    Type
DOCKED: USER                           _______ _______ _______ _____ _____    ______ ____
DOCKED: ROOT
DOCKED: ATOM      1  O   UNL     1     -34.894  -4.911   6.659 -0.07 -0.00    -0.346 OA 
DOCKED: ATOM      2  C   UNL     1     -33.654  -4.693   5.914 -0.14 +0.00    +0.130 C  
DOCKED: ATOM      3  C   UNL     1     -34.091  -3.911   4.709 -0.23 +0.00    +0.004 A  
DOCKED: ATOM      4  C   UNL     1     -35.443  -3.613   4.811 -0.30 +0.00    +0.006 A  
DOCKED: ATOM      5  C   UNL     1     -35.983  -4.157   6.077 -0.26 +0.00    +0.169 C  
DOCKED: ATOM      6  C   UNL     1     -33.350  -3.488   3.615 -0.19 -0.00    -0.001 A  
DOCKED: ATOM      7  C   UNL     1     -36.098  -2.890   3.829 -0.37 +0.00    +0.008 A  
DOCKED: ATOM      8  C   UNL     1     -33.997  -2.761   2.614 -0.25 +0.00    +0.010 A  
DOCKED: ATOM      9  C   UNL     1     -35.364  -2.464   2.721 -0.30 +0.00    +0.068 A  
DOCKED: ATOM     10  N   UNL     1     -36.533  -1.109   0.847 -2.40 -0.00    -0.191 NA 
DOCKED: ATOM     11  C   UNL     1     -36.009  -1.717   1.687 -0.40 +0.00    +0.101 C  
DOCKED: ENDROOT
DOCKED: BRANCH   2  12
DOCKED: ATOM     12  C   UNL     1     -32.686  -3.921   6.803 -0.14 +0.00    +0.038 C  
DOCKED: BRANCH  12  13
DOCKED: ATOM     13  C   UNL     1     -33.268  -3.697   8.197 -0.15 +0.00    +0.038 C  
DOCKED: BRANCH  13  14
DOCKED: ATOM     14  C   UNL     1     -32.188  -3.244   9.177 -0.08 +0.00    +0.251 C  
DOCKED: BRANCH  14  15
DOCKED: ATOM     15  N   UNL     1     -31.112  -4.226   9.235 -0.03 +0.00    +0.141 N  
DOCKED: ATOM     16  C   UNL     1     -29.955  -3.681   9.948 -0.02 +0.00    +0.285 C  
DOCKED: ATOM     17  C   UNL     1     -31.571  -5.457   9.880 -0.01 +0.00    +0.285 C  
DOCKED: ENDBRANCH  14  15
DOCKED: ENDBRANCH  13  14
DOCKED: ENDBRANCH  12  13
DOCKED: ENDBRANCH   2  12
DOCKED: BRANCH   2  18
DOCKED: ATOM     18  C   UNL     1     -33.110  -6.039   5.567 -0.11 +0.00    +0.006 A  
DOCKED: ATOM     19  C   UNL     1     -33.333  -6.575   4.300 -0.20 +0.00    +0.001 A  
DOCKED: ATOM     20  C   UNL     1     -32.824  -7.834   3.978 -0.21 +0.00    +0.029 A  
DOCKED: ATOM     21  C   UNL     1     -32.093  -8.553   4.922 -0.14 +0.00    +0.140 A  
DOCKED: ATOM     22  C   UNL     1     -31.870  -8.016   6.189 -0.08 +0.00    +0.029 A  
DOCKED: ATOM     23  F   UNL     1     -31.603  -9.761   4.612 -0.06 -0.00    -0.204 F  
DOCKED: ATOM     24  C   UNL     1     -32.379  -6.757   6.513 -0.06 +0.00    +0.001 A  
DOCKED: ENDBRANCH   2  18
DOCKED: TORSDOF 5
DOCKED: TER
DOCKED: ENDMDL
________________________________________________________________________________


    FINAL DOCKED STATE:
    ________________________


Run:   499 / 512
Time taken for this run:   0.002s

DOCKED: MODEL        499
DOCKED: USER    Run = 499
DOCKED: USER
DOCKED: USER    Estimated Free Energy of Binding    =  -3.99 kcal/mol  [=(1)+(2)+(3)-(4)]
DOCKED: USER
DOCKED: USER    (1) Final Intermolecular Energy     =  -5.48 kcal/mol
DOCKED: USER        vdW + Hbond + desolv Energy     =  -5.48 kcal/mol
DOCKED: USER        Electrostatic Energy            =  +0.00 kcal/mol
DOCKED: USER        Moving Ligand-Fixed Receptor    =  -5.48 kcal/mol
DOCKED: USER        Moving Ligand-Moving Receptor   =  +0.00 kcal/mol
DOCKED: USER    (2) Final Total Internal Energy     =  -1.15 kcal/mol
DOCKED: USER    (3) Torsional Free Energy           =  +1.49 kcal/mol
DOCKED: USER    (4) Unbound System's Energy         =  -1.15 kcal/mol
DOCKED: USER
DOCKED: USER
DOCKED: REMARK  5 active torsions:
DOCKED: REMARK  status: ('A' for Active; 'I' for Inactive)
DOCKED: REMARK    1  A    between atoms: C_2  and  C_19 
DOCKED: REMARK    2  A    between atoms: C_2  and  C_11 
DOCKED: REMARK    3  A    between atoms: C_19  and  C_20 
DOCKED: REMARK    4  A    between atoms: C_20  and  C_21 
DOCKED: REMARK    5  A    between atoms: C_21  and  N_22 
DOCKED: USER                              x       y       z     vdW  Elec       q    Type
DOCKED: USER                           _______ _______ _______ _____ _____    ______ ____
DOCKED: ROOT
DOCKED: ATOM      1  O   UNL     1     -31.452   0.115   5.365 -0.09 -0.00    -0.346 OA 
DOCKED: ATOM      2  C   UNL     1     -31.314  -1.289   4.977 -0.13 +0.00    +0.130 C  
DOCKED: ATOM      3  C   UNL     1     -32.471  -1.522   4.050 -0.17 +0.00    +0.004 A  
DOCKED: ATOM      4  C   UNL     1     -33.147  -0.328   3.837 -0.25 +0.00    +0.006 A  
DOCKED: ATOM      5  C   UNL     1     -32.486   0.763   4.588 -0.22 +0.00    +0.169 C  
DOCKED: ATOM      6  C   UNL     1     -32.886  -2.693   3.434 -0.16 -0.00    -0.001 A  
DOCKED: ATOM      7  C   UNL     1     -34.256  -0.265   3.011 -0.16 +0.00    +0.008 A  
DOCKED: ATOM      8  C   UNL     1     -34.006  -2.647   2.601 -0.26 +0.00    +0.010 A  
DOCKED: ATOM      9  C   UNL     1     -34.687  -1.438   2.391 -0.35 +0.00    +0.068 A  
DOCKED: ATOM     10  N   UNL     1     -36.758  -1.386   0.835 -2.55 -0.00    -0.191 NA 
DOCKED: ATOM     11  C   UNL     1     -35.829  -1.409   1.534 -0.42 +0.00    +0.101 C  
DOCKED: ENDROOT
DOCKED: BRANCH   2  12
DOCKED: ATOM     12  C   UNL     1     -29.962  -1.472   4.297 -0.05 +0.00    +0.038 C  
DOCKED: BRANCH  12  13
DOCKED: ATOM     13  C   UNL     1     -29.621  -2.951   4.125 -0.02 +0.00    +0.038 C  
DOCKED: BRANCH  13  14
DOCKED: ATOM     14  C   UNL     1     -29.643  -3.352   2.652 +0.00 +0.00    +0.251 C  
DOCKED: BRANCH  14  15
DOCKED: ATOM     15  N   UNL     1     -30.403  -4.583   2.473 -0.01 +0.00    +0.141 N  
DOCKED: ATOM     16  C   UNL     1     -31.111  -4.571   1.191 -0.03 +0.00    +0.285 C  
DOCKED: ATOM     17  C   UNL     1     -29.522  -5.750   2.555 +0.00 +0.00    +0.285 C  
DOCKED: ENDBRANCH  14  15
DOCKED: ENDBRANCH  13  14
DOCKED: ENDBRANCH  12  13
DOCKED: ENDBRANCH   2  12
DOCKED: BRANCH   2  18
DOCKED: ATOM     18  C   UNL     1     -31.400  -2.097   6.229 -0.11 +0.00    +0.006 A  
DOCKED: ATOM     19  C   UNL     1     -30.467  -1.907   7.247 -0.09 +0.00    +0.001 A  
DOCKED: ATOM     20  C   UNL     1     -30.549  -2.664   8.417 -0.08 +0.00    +0.029 A  
DOCKED: ATOM     21  C   UNL     1     -31.563  -3.608   8.567 -0.07 +0.00    +0.140 A  
DOCKED: ATOM     22  C   UNL     1     -32.497  -3.798   7.548 -0.12 +0.00    +0.029 A  
DOCKED: ATOM     23  F   UNL     1     -31.643  -4.333   9.690 -0.01 -0.00    -0.204 F  
DOCKED: ATOM     24  C   UNL     1     -32.415  -3.042   6.377 -0.14 +0.00    +0.001 A  
DOCKED: ENDBRANCH   2  18
DOCKED: TORSDOF 5
DOCKED: TER
DOCKED: ENDMDL
________________________________________________________________________________


    FINAL DOCKED STATE:
    ________________________


Run:   500 / 512
Time taken for this run:   0.002s

DOCKED: MODEL        500
DOCKED: USER    Run = 500
DOCKED: USER
DOCKED: USER    Estimated Free Energy of Binding    =  -4.06 kcal/mol  [=(1)+(2)+(3)-(4)]
DOCKED: USER
DOCKED: USER    (1) Final Intermolecular Energy     =  -5.55 kcal/mol
DOCKED: USER        vdW + Hbond + desolv Energy     =  -5.55 kcal/mol
DOCKED: USER        Electrostatic Energy            =  +0.00 kcal/mol
DOCKED: USER        Moving Ligand-Fixed Receptor    =  -5.55 kcal/mol
DOCKED: USER        Moving Ligand-Moving Receptor   =  +0.00 kcal/mol
DOCKED: USER    (2) Final Total Internal Energy     =  -1.49 kcal/mol
DOCKED: USER    (3) Torsional Free Energy           =  +1.49 kcal/mol
DOCKED: USER    (4) Unbound System's Energy         =  -1.49 kcal/mol
DOCKED: USER
DOCKED: USER
DOCKED: REMARK  5 active torsions:
DOCKED: REMARK  status: ('A' for Active; 'I' for Inactive)
DOCKED: REMARK    1  A    between atoms: C_2  and  C_19 
DOCKED: REMARK    2  A    between atoms: C_2  and  C_11 
DOCKED: REMARK    3  A    between atoms: C_19  and  C_20 
DOCKED: REMARK    4  A    between atoms: C_20  and  C_21 
DOCKED: REMARK    5  A    between atoms: C_21  and  N_22 
DOCKED: USER                              x       y       z     vdW  Elec       q    Type
DOCKED: USER                           _______ _______ _______ _____ _____    ______ ____
DOCKED: ROOT
DOCKED: ATOM      1  O   UNL     1     -37.292  -8.064  13.233 -0.05 -0.00    -0.346 OA 
DOCKED: ATOM      2  C   UNL     1     -38.481  -8.370  14.029 -0.09 +0.00    +0.130 C  
DOCKED: ATOM      3  C   UNL     1     -38.889  -9.735  13.556 -0.17 +0.00    +0.004 A  
DOCKED: ATOM      4  C   UNL     1     -37.954 -10.214  12.650 -0.26 +0.00    +0.006 A  
DOCKED: ATOM      5  C   UNL     1     -36.872  -9.221  12.472 -0.20 +0.00    +0.169 C  
DOCKED: ATOM      6  C   UNL     1     -39.994 -10.497  13.909 -0.14 -0.00    -0.001 A  
DOCKED: ATOM      7  C   UNL     1     -38.092 -11.461  12.064 -0.33 +0.00    +0.008 A  
DOCKED: ATOM      8  C   UNL     1     -40.149 -11.754  13.323 -0.18 +0.00    +0.010 A  
DOCKED: ATOM      9  C   UNL     1     -39.202 -12.234  12.406 -0.23 +0.00    +0.068 A  
DOCKED: ATOM     10  N   UNL     1     -39.518 -14.575  11.342 -2.56 -0.00    -0.191 NA 
DOCKED: ATOM     11  C   UNL     1     -39.377 -13.525  11.818 -0.35 +0.00    +0.101 C  
DOCKED: ENDROOT
DOCKED: BRANCH   2  12
DOCKED: ATOM     12  C   UNL     1     -38.093  -8.344  15.503 -0.03 +0.00    +0.038 C  
DOCKED: BRANCH  12  13
DOCKED: ATOM     13  C   UNL     1     -36.965  -9.330  15.800 -0.04 +0.00    +0.038 C  
DOCKED: BRANCH  13  14
DOCKED: ATOM     14  C   UNL     1     -37.487 -10.553  16.552 -0.02 +0.00    +0.251 C  
DOCKED: BRANCH  14  15
DOCKED: ATOM     15  N   UNL     1     -36.744 -11.745  16.161 -0.07 +0.00    +0.141 N  
DOCKED: ATOM     16  C   UNL     1     -37.654 -12.787  15.684 -0.09 +0.00    +0.285 C  
DOCKED: ATOM     17  C   UNL     1     -35.757 -11.421  15.129 -0.09 +0.00    +0.285 C  
DOCKED: ENDBRANCH  14  15
DOCKED: ENDBRANCH  13  14
DOCKED: ENDBRANCH  12  13
DOCKED: ENDBRANCH   2  12
DOCKED: BRANCH   2  18
DOCKED: ATOM     18  C   UNL     1     -39.495  -7.320  13.721 -0.12 +0.00    +0.006 A  
DOCKED: ATOM     19  C   UNL     1     -40.293  -7.435  12.584 -0.22 +0.00    +0.001 A  
DOCKED: ATOM     20  C   UNL     1     -41.241  -6.452  12.296 -0.17 +0.00    +0.029 A  
DOCKED: ATOM     21  C   UNL     1     -41.389  -5.357  13.145 -0.07 +0.00    +0.140 A  
DOCKED: ATOM     22  C   UNL     1     -40.590  -5.242  14.283 -0.04 +0.00    +0.029 A  
DOCKED: ATOM     23  F   UNL     1     -42.300  -4.414  12.870 +0.01 -0.00    -0.204 F  
DOCKED: ATOM     24  C   UNL     1     -39.642  -6.225  14.571 -0.04 +0.00    +0.001 A  
DOCKED: ENDBRANCH   2  18
DOCKED: TORSDOF 5
DOCKED: TER
DOCKED: ENDMDL
________________________________________________________________________________


    FINAL DOCKED STATE:
    ________________________


Run:   501 / 512
Time taken for this run:   0.002s

DOCKED: MODEL        501
DOCKED: USER    Run = 501
DOCKED: USER
DOCKED: USER    Estimated Free Energy of Binding    =  -3.68 kcal/mol  [=(1)+(2)+(3)-(4)]
DOCKED: USER
DOCKED: USER    (1) Final Intermolecular Energy     =  -5.17 kcal/mol
DOCKED: USER        vdW + Hbond + desolv Energy     =  -5.17 kcal/mol
DOCKED: USER        Electrostatic Energy            =  +0.00 kcal/mol
DOCKED: USER        Moving Ligand-Fixed Receptor    =  -5.17 kcal/mol
DOCKED: USER        Moving Ligand-Moving Receptor   =  +0.00 kcal/mol
DOCKED: USER    (2) Final Total Internal Energy     =  -1.26 kcal/mol
DOCKED: USER    (3) Torsional Free Energy           =  +1.49 kcal/mol
DOCKED: USER    (4) Unbound System's Energy         =  -1.26 kcal/mol
DOCKED: USER
DOCKED: USER
DOCKED: REMARK  5 active torsions:
DOCKED: REMARK  status: ('A' for Active; 'I' for Inactive)
DOCKED: REMARK    1  A    between atoms: C_2  and  C_19 
DOCKED: REMARK    2  A    between atoms: C_2  and  C_11 
DOCKED: REMARK    3  A    between atoms: C_19  and  C_20 
DOCKED: REMARK    4  A    between atoms: C_20  and  C_21 
DOCKED: REMARK    5  A    between atoms: C_21  and  N_22 
DOCKED: USER                              x       y       z     vdW  Elec       q    Type
DOCKED: USER                           _______ _______ _______ _____ _____    ______ ____
DOCKED: ROOT
DOCKED: ATOM      1  O   UNL     1     -36.838 -10.961  16.911 -0.01 -0.00    -0.346 OA 
DOCKED: ATOM      2  C   UNL     1     -35.984 -10.683  15.755 -0.07 +0.00    +0.130 C  
DOCKED: ATOM      3  C   UNL     1     -36.611 -11.478  14.646 -0.17 +0.00    +0.004 A  
DOCKED: ATOM      4  C   UNL     1     -37.782 -12.069  15.100 -0.13 +0.00    +0.006 A  
DOCKED: ATOM      5  C   UNL     1     -38.015 -11.702  16.514 -0.05 +0.00    +0.169 C  
DOCKED: ATOM      6  C   UNL     1     -36.185 -11.654  13.338 -0.15 -0.00    -0.001 A  
DOCKED: ATOM      7  C   UNL     1     -38.561 -12.856  14.268 -0.19 +0.00    +0.008 A  
DOCKED: ATOM      8  C   UNL     1     -36.958 -12.448  12.488 -0.29 +0.00    +0.010 A  
DOCKED: ATOM      9  C   UNL     1     -38.139 -13.046  12.951 -0.27 +0.00    +0.068 A  
DOCKED: ATOM     10  N   UNL     1     -39.552 -14.510  11.347 -2.55 -0.00    -0.191 NA 
DOCKED: ATOM     11  C   UNL     1     -38.918 -13.854  12.067 -0.16 +0.00    +0.101 C  
DOCKED: ENDROOT
DOCKED: BRANCH   2  12
DOCKED: ATOM     12  C   UNL     1     -36.002  -9.182  15.492 -0.04 +0.00    +0.038 C  
DOCKED: BRANCH  12  13
DOCKED: ATOM     13  C   UNL     1     -37.399  -8.700  15.106 -0.05 +0.00    +0.038 C  
DOCKED: BRANCH  13  14
DOCKED: ATOM     14  C   UNL     1     -37.517  -8.510  13.595 -0.10 +0.00    +0.251 C  
DOCKED: BRANCH  14  15
DOCKED: ATOM     15  N   UNL     1     -38.871  -8.103  13.240 -0.15 +0.00    +0.141 N  
DOCKED: ATOM     16  C   UNL     1     -38.852  -7.185  12.100 -0.09 +0.00    +0.285 C  
DOCKED: ATOM     17  C   UNL     1     -39.698  -9.273  12.936 -0.15 +0.00    +0.285 C  
DOCKED: ENDBRANCH  14  15
DOCKED: ENDBRANCH  13  14
DOCKED: ENDBRANCH  12  13
DOCKED: ENDBRANCH   2  12
DOCKED: BRANCH   2  18
DOCKED: ATOM     18  C   UNL     1     -34.611 -11.153  16.103 -0.09 +0.00    +0.006 A  
DOCKED: ATOM     19  C   UNL     1     -34.386 -11.813  17.310 -0.08 +0.00    +0.001 A  
DOCKED: ATOM     20  C   UNL     1     -33.102 -12.252  17.635 -0.08 +0.00    +0.029 A  
DOCKED: ATOM     21  C   UNL     1     -32.046 -12.030  16.752 -0.06 +0.00    +0.140 A  
DOCKED: ATOM     22  C   UNL     1     -32.272 -11.370  15.545 -0.09 +0.00    +0.029 A  
DOCKED: ATOM     23  F   UNL     1     -30.813 -12.453  17.063 -0.00 -0.00    -0.204 F  
DOCKED: ATOM     24  C   UNL     1     -33.556 -10.930  15.220 -0.12 +0.00    +0.001 A  
DOCKED: ENDBRANCH   2  18
DOCKED: TORSDOF 5
DOCKED: TER
DOCKED: ENDMDL
________________________________________________________________________________


    FINAL DOCKED STATE:
    ________________________


Run:   502 / 512
Time taken for this run:   0.002s

DOCKED: MODEL        502
DOCKED: USER    Run = 502
DOCKED: USER
DOCKED: USER    Estimated Free Energy of Binding    =  -6.01 kcal/mol  [=(1)+(2)+(3)-(4)]
DOCKED: USER
DOCKED: USER    (1) Final Intermolecular Energy     =  -7.50 kcal/mol
DOCKED: USER        vdW + Hbond + desolv Energy     =  -7.50 kcal/mol
DOCKED: USER        Electrostatic Energy            =  +0.00 kcal/mol
DOCKED: USER        Moving Ligand-Fixed Receptor    =  -7.50 kcal/mol
DOCKED: USER        Moving Ligand-Moving Receptor   =  +0.00 kcal/mol
DOCKED: USER    (2) Final Total Internal Energy     =  -1.06 kcal/mol
DOCKED: USER    (3) Torsional Free Energy           =  +1.49 kcal/mol
DOCKED: USER    (4) Unbound System's Energy         =  -1.06 kcal/mol
DOCKED: USER
DOCKED: USER
DOCKED: REMARK  5 active torsions:
DOCKED: REMARK  status: ('A' for Active; 'I' for Inactive)
DOCKED: REMARK    1  A    between atoms: C_2  and  C_19 
DOCKED: REMARK    2  A    between atoms: C_2  and  C_11 
DOCKED: REMARK    3  A    between atoms: C_19  and  C_20 
DOCKED: REMARK    4  A    between atoms: C_20  and  C_21 
DOCKED: REMARK    5  A    between atoms: C_21  and  N_22 
DOCKED: USER                              x       y       z     vdW  Elec       q    Type
DOCKED: USER                           _______ _______ _______ _____ _____    ______ ____
DOCKED: ROOT
DOCKED: ATOM      1  O   UNL     1     -37.165 -10.650  13.915 -0.05 -0.00    -0.346 OA 
DOCKED: ATOM      2  C   UNL     1     -36.891 -12.086  13.868 -0.23 +0.00    +0.130 C  
DOCKED: ATOM      3  C   UNL     1     -37.456 -12.517  12.545 -0.34 +0.00    +0.004 A  
DOCKED: ATOM      4  C   UNL     1     -37.913 -11.407  11.849 -0.33 +0.00    +0.006 A  
DOCKED: ATOM      5  C   UNL     1     -37.674 -10.182  12.645 -0.23 +0.00    +0.169 C  
DOCKED: ATOM      6  C   UNL     1     -37.547 -13.788  11.997 -0.42 -0.00    -0.001 A  
DOCKED: ATOM      7  C   UNL     1     -38.477 -11.527  10.591 +0.04 +0.00    +0.008 A  
DOCKED: ATOM      8  C   UNL     1     -38.118 -13.927  10.731 -0.45 +0.00    +0.010 A  
DOCKED: ATOM      9  C   UNL     1     -38.581 -12.802  10.031 -0.39 +0.00    +0.068 A  
DOCKED: ATOM     10  N   UNL     1     -39.631 -13.094   7.681 -2.99 -0.00    -0.191 NA 
DOCKED: ATOM     11  C   UNL     1     -39.160 -12.963   8.735 -0.46 +0.00    +0.101 C  
DOCKED: ENDROOT
DOCKED: BRANCH   2  12
DOCKED: ATOM     12  C   UNL     1     -35.384 -12.294  13.966 -0.20 +0.00    +0.038 C  
DOCKED: BRANCH  12  13
DOCKED: ATOM     13  C   UNL     1     -34.668 -11.001  14.352 -0.18 +0.00    +0.038 C  
DOCKED: BRANCH  13  14
DOCKED: ATOM     14  C   UNL     1     -34.078 -11.098  15.758 -0.07 +0.00    +0.251 C  
DOCKED: BRANCH  14  15
DOCKED: ATOM     15  N   UNL     1     -32.634 -11.282  15.690 -0.07 +0.00    +0.141 N  
DOCKED: ATOM     16  C   UNL     1     -32.286 -12.696  15.840 -0.06 +0.00    +0.285 C  
DOCKED: ATOM     17  C   UNL     1     -32.106 -10.761  14.428 -0.07 +0.00    +0.285 C  
DOCKED: ENDBRANCH  14  15
DOCKED: ENDBRANCH  13  14
DOCKED: ENDBRANCH  12  13
DOCKED: ENDBRANCH   2  12
DOCKED: BRANCH   2  18
DOCKED: ATOM     18  C   UNL     1     -37.595 -12.704  15.030 -0.18 +0.00    +0.006 A  
DOCKED: ATOM     19  C   UNL     1     -38.901 -13.170  14.885 -0.19 +0.00    +0.001 A  
DOCKED: ATOM     20  C   UNL     1     -39.559 -13.746  15.972 -0.16 +0.00    +0.029 A  
DOCKED: ATOM     21  C   UNL     1     -38.911 -13.856  17.201 -0.09 +0.00    +0.140 A  
DOCKED: ATOM     22  C   UNL     1     -37.605 -13.390  17.345 -0.17 +0.00    +0.029 A  
DOCKED: ATOM     23  F   UNL     1     -39.542 -14.411  18.244 -0.03 -0.00    -0.204 F  
DOCKED: ATOM     24  C   UNL     1     -36.946 -12.812  16.259 -0.16 +0.00    +0.001 A  
DOCKED: ENDBRANCH   2  18
DOCKED: TORSDOF 5
DOCKED: TER
DOCKED: ENDMDL
________________________________________________________________________________


    FINAL DOCKED STATE:
    ________________________


Run:   503 / 512
Time taken for this run:   0.002s

DOCKED: MODEL        503
DOCKED: USER    Run = 503
DOCKED: USER
DOCKED: USER    Estimated Free Energy of Binding    =  -3.33 kcal/mol  [=(1)+(2)+(3)-(4)]
DOCKED: USER
DOCKED: USER    (1) Final Intermolecular Energy     =  -4.82 kcal/mol
DOCKED: USER        vdW + Hbond + desolv Energy     =  -4.82 kcal/mol
DOCKED: USER        Electrostatic Energy            =  +0.00 kcal/mol
DOCKED: USER        Moving Ligand-Fixed Receptor    =  -4.82 kcal/mol
DOCKED: USER        Moving Ligand-Moving Receptor   =  +0.00 kcal/mol
DOCKED: USER    (2) Final Total Internal Energy     =  -1.29 kcal/mol
DOCKED: USER    (3) Torsional Free Energy           =  +1.49 kcal/mol
DOCKED: USER    (4) Unbound System's Energy         =  -1.29 kcal/mol
DOCKED: USER
DOCKED: USER
DOCKED: REMARK  5 active torsions:
DOCKED: REMARK  status: ('A' for Active; 'I' for Inactive)
DOCKED: REMARK    1  A    between atoms: C_2  and  C_19 
DOCKED: REMARK    2  A    between atoms: C_2  and  C_11 
DOCKED: REMARK    3  A    between atoms: C_19  and  C_20 
DOCKED: REMARK    4  A    between atoms: C_20  and  C_21 
DOCKED: REMARK    5  A    between atoms: C_21  and  N_22 
DOCKED: USER                              x       y       z     vdW  Elec       q    Type
DOCKED: USER                           _______ _______ _______ _____ _____    ______ ____
DOCKED: ROOT
DOCKED: ATOM      1  O   UNL     1     -33.143  -9.083   7.236 -0.05 -0.00    -0.346 OA 
DOCKED: ATOM      2  C   UNL     1     -31.990  -8.970   8.130 -0.11 +0.00    +0.130 C  
DOCKED: ATOM      3  C   UNL     1     -31.763 -10.377   8.603 -0.19 +0.00    +0.004 A  
DOCKED: ATOM      4  C   UNL     1     -32.638 -11.235   7.952 -0.31 +0.00    +0.006 A  
DOCKED: ATOM      5  C   UNL     1     -33.483 -10.470   7.009 -0.22 +0.00    +0.169 C  
DOCKED: ATOM      6  C   UNL     1     -30.847 -10.860   9.526 -0.15 -0.00    -0.001 A  
DOCKED: ATOM      7  C   UNL     1     -32.632 -12.597   8.203 -0.25 +0.00    +0.008 A  
DOCKED: ATOM      8  C   UNL     1     -30.831 -12.230   9.793 -0.22 +0.00    +0.010 A  
DOCKED: ATOM      9  C   UNL     1     -31.719 -13.094   9.135 -0.26 +0.00    +0.068 A  
DOCKED: ATOM     10  N   UNL     1     -31.660 -15.632   9.650 -2.20 -0.00    -0.191 NA 
DOCKED: ATOM     11  C   UNL     1     -31.687 -14.494   9.419 -0.40 +0.00    +0.101 C  
DOCKED: ENDROOT
DOCKED: BRANCH   2  12
DOCKED: ATOM     12  C   UNL     1     -30.815  -8.415   7.333 -0.04 +0.00    +0.038 C  
DOCKED: BRANCH  12  13
DOCKED: ATOM     13  C   UNL     1     -29.925  -7.527   8.200 -0.01 +0.00    +0.038 C  
DOCKED: BRANCH  13  14
DOCKED: ATOM     14  C   UNL     1     -28.780  -8.329   8.815 -0.00 +0.00    +0.251 C  
DOCKED: BRANCH  14  15
DOCKED: ATOM     15  N   UNL     1     -28.410  -7.773  10.112 -0.00 +0.00    +0.141 N  
DOCKED: ATOM     16  C   UNL     1     -29.146  -6.535  10.371 -0.00 +0.00    +0.285 C  
DOCKED: ATOM     17  C   UNL     1     -28.658  -8.744  11.179 -0.00 +0.00    +0.285 C  
DOCKED: ENDBRANCH  14  15
DOCKED: ENDBRANCH  13  14
DOCKED: ENDBRANCH  12  13
DOCKED: ENDBRANCH   2  12
DOCKED: BRANCH   2  18
DOCKED: ATOM     18  C   UNL     1     -32.380  -8.042   9.232 -0.10 +0.00    +0.006 A  
DOCKED: ATOM     19  C   UNL     1     -32.967  -6.814   8.932 -0.07 +0.00    +0.001 A  
DOCKED: ATOM     20  C   UNL     1     -33.331  -5.947   9.964 -0.05 +0.00    +0.029 A  
DOCKED: ATOM     21  C   UNL     1     -33.108  -6.310  11.291 -0.03 +0.00    +0.140 A  
DOCKED: ATOM     22  C   UNL     1     -32.521  -7.539  11.589 -0.07 +0.00    +0.029 A  
DOCKED: ATOM     23  F   UNL     1     -33.459  -5.478  12.280 +0.00 -0.00    -0.204 F  
DOCKED: ATOM     24  C   UNL     1     -32.156  -8.407  10.559 -0.10 +0.00    +0.001 A  
DOCKED: ENDBRANCH   2  18
DOCKED: TORSDOF 5
DOCKED: TER
DOCKED: ENDMDL
________________________________________________________________________________


    FINAL DOCKED STATE:
    ________________________


Run:   504 / 512
Time taken for this run:   0.002s

DOCKED: MODEL        504
DOCKED: USER    Run = 504
DOCKED: USER
DOCKED: USER    Estimated Free Energy of Binding    =  -4.08 kcal/mol  [=(1)+(2)+(3)-(4)]
DOCKED: USER
DOCKED: USER    (1) Final Intermolecular Energy     =  -5.57 kcal/mol
DOCKED: USER        vdW + Hbond + desolv Energy     =  -5.57 kcal/mol
DOCKED: USER        Electrostatic Energy            =  +0.00 kcal/mol
DOCKED: USER        Moving Ligand-Fixed Receptor    =  -5.57 kcal/mol
DOCKED: USER        Moving Ligand-Moving Receptor   =  +0.00 kcal/mol
DOCKED: USER    (2) Final Total Internal Energy     =  -1.11 kcal/mol
DOCKED: USER    (3) Torsional Free Energy           =  +1.49 kcal/mol
DOCKED: USER    (4) Unbound System's Energy         =  -1.11 kcal/mol
DOCKED: USER
DOCKED: USER
DOCKED: REMARK  5 active torsions:
DOCKED: REMARK  status: ('A' for Active; 'I' for Inactive)
DOCKED: REMARK    1  A    between atoms: C_2  and  C_19 
DOCKED: REMARK    2  A    between atoms: C_2  and  C_11 
DOCKED: REMARK    3  A    between atoms: C_19  and  C_20 
DOCKED: REMARK    4  A    between atoms: C_20  and  C_21 
DOCKED: REMARK    5  A    between atoms: C_21  and  N_22 
DOCKED: USER                              x       y       z     vdW  Elec       q    Type
DOCKED: USER                           _______ _______ _______ _____ _____    ______ ____
DOCKED: ROOT
DOCKED: ATOM      1  O   UNL     1     -31.461  -1.842   4.203 -0.02 -0.00    -0.346 OA 
DOCKED: ATOM      2  C   UNL     1     -31.572  -0.993   3.016 -0.09 +0.00    +0.130 C  
DOCKED: ATOM      3  C   UNL     1     -32.993  -1.184   2.569 -0.22 +0.00    +0.004 A  
DOCKED: ATOM      4  C   UNL     1     -33.666  -1.984   3.483 -0.23 +0.00    +0.006 A  
DOCKED: ATOM      5  C   UNL     1     -32.755  -2.361   4.587 -0.12 +0.00    +0.169 C  
DOCKED: ATOM      6  C   UNL     1     -33.641  -0.682   1.451 -0.25 -0.00    -0.001 A  
DOCKED: ATOM      7  C   UNL     1     -35.000  -2.311   3.308 -0.34 +0.00    +0.008 A  
DOCKED: ATOM      8  C   UNL     1     -34.985  -1.006   1.259 -0.43 +0.00    +0.010 A  
DOCKED: ATOM      9  C   UNL     1     -35.661  -1.816   2.183 -0.40 +0.00    +0.068 A  
DOCKED: ATOM     10  N   UNL     1     -38.157  -2.394   1.800 -1.98 -0.00    -0.191 NA 
DOCKED: ATOM     11  C   UNL     1     -37.037  -2.135   1.972 -0.08 +0.00    +0.101 C  
DOCKED: ENDROOT
DOCKED: BRANCH   2  12
DOCKED: ATOM     12  C   UNL     1     -31.266   0.444   3.420 -0.15 +0.00    +0.038 C  
DOCKED: BRANCH  12  13
DOCKED: ATOM     13  C   UNL     1     -32.084   0.867   4.638 -0.25 +0.00    +0.038 C  
DOCKED: BRANCH  13  14
DOCKED: ATOM     14  C   UNL     1     -33.380   1.557   4.217 -0.21 +0.00    +0.251 C  
DOCKED: BRANCH  14  15
DOCKED: ATOM     15  N   UNL     1     -33.946   2.300   5.336 -0.31 +0.00    +0.141 N  
DOCKED: ATOM     16  C   UNL     1     -32.897   2.696   6.276 -0.14 +0.00    +0.285 C  
DOCKED: ATOM     17  C   UNL     1     -34.671   3.479   4.859 -0.22 +0.00    +0.285 C  
DOCKED: ENDBRANCH  14  15
DOCKED: ENDBRANCH  13  14
DOCKED: ENDBRANCH  12  13
DOCKED: ENDBRANCH   2  12
DOCKED: BRANCH   2  18
DOCKED: ATOM     18  C   UNL     1     -30.578  -1.498   2.024 -0.04 +0.00    +0.006 A  
DOCKED: ATOM     19  C   UNL     1     -29.323  -0.898   1.929 -0.03 +0.00    +0.001 A  
DOCKED: ATOM     20  C   UNL     1     -28.394  -1.370   1.001 -0.01 +0.00    +0.029 A  
DOCKED: ATOM     21  C   UNL     1     -28.721  -2.441   0.171 +0.00 +0.00    +0.140 A  
DOCKED: ATOM     22  C   UNL     1     -29.976  -3.041   0.266 -0.01 +0.00    +0.029 A  
DOCKED: ATOM     23  F   UNL     1     -27.829  -2.895  -0.719 +0.00 -0.00    -0.204 F  
DOCKED: ATOM     24  C   UNL     1     -30.906  -2.569   1.194 -0.04 +0.00    +0.001 A  
DOCKED: ENDBRANCH   2  18
DOCKED: TORSDOF 5
DOCKED: TER
DOCKED: ENDMDL
________________________________________________________________________________


    FINAL DOCKED STATE:
    ________________________


Run:   505 / 512
Time taken for this run:   0.002s

DOCKED: MODEL        505
DOCKED: USER    Run = 505
DOCKED: USER
DOCKED: USER    Estimated Free Energy of Binding    =  -4.44 kcal/mol  [=(1)+(2)+(3)-(4)]
DOCKED: USER
DOCKED: USER    (1) Final Intermolecular Energy     =  -5.94 kcal/mol
DOCKED: USER        vdW + Hbond + desolv Energy     =  -5.94 kcal/mol
DOCKED: USER        Electrostatic Energy            =  +0.00 kcal/mol
DOCKED: USER        Moving Ligand-Fixed Receptor    =  -5.94 kcal/mol
DOCKED: USER        Moving Ligand-Moving Receptor   =  +0.00 kcal/mol
DOCKED: USER    (2) Final Total Internal Energy     =  -1.42 kcal/mol
DOCKED: USER    (3) Torsional Free Energy           =  +1.49 kcal/mol
DOCKED: USER    (4) Unbound System's Energy         =  -1.42 kcal/mol
DOCKED: USER
DOCKED: USER
DOCKED: REMARK  5 active torsions:
DOCKED: REMARK  status: ('A' for Active; 'I' for Inactive)
DOCKED: REMARK    1  A    between atoms: C_2  and  C_19 
DOCKED: REMARK    2  A    between atoms: C_2  and  C_11 
DOCKED: REMARK    3  A    between atoms: C_19  and  C_20 
DOCKED: REMARK    4  A    between atoms: C_20  and  C_21 
DOCKED: REMARK    5  A    between atoms: C_21  and  N_22 
DOCKED: USER                              x       y       z     vdW  Elec       q    Type
DOCKED: USER                           _______ _______ _______ _____ _____    ______ ____
DOCKED: ROOT
DOCKED: ATOM      1  O   UNL     1     -35.204 -10.169  14.712 -0.05 -0.00    -0.346 OA 
DOCKED: ATOM      2  C   UNL     1     -35.967  -9.432  13.704 -0.14 +0.00    +0.130 C  
DOCKED: ATOM      3  C   UNL     1     -36.797 -10.490  13.036 -0.23 +0.00    +0.004 A  
DOCKED: ATOM      4  C   UNL     1     -36.608 -11.706  13.678 -0.25 +0.00    +0.006 A  
DOCKED: ATOM      5  C   UNL     1     -35.665 -11.537  14.806 -0.15 +0.00    +0.169 C  
DOCKED: ATOM      6  C   UNL     1     -37.658 -10.383  11.953 -0.21 -0.00    -0.001 A  
DOCKED: ATOM      7  C   UNL     1     -37.266 -12.850  13.261 -0.33 +0.00    +0.008 A  
DOCKED: ATOM      8  C   UNL     1     -38.325 -11.530  11.519 -0.33 +0.00    +0.010 A  
DOCKED: ATOM      9  C   UNL     1     -38.130 -12.757  12.170 -0.32 +0.00    +0.068 A  
DOCKED: ATOM     10  N   UNL     1     -39.388 -14.864  11.340 -2.57 -0.00    -0.191 NA 
DOCKED: ATOM     11  C   UNL     1     -38.823 -13.919  11.712 -0.30 +0.00    +0.101 C  
DOCKED: ENDROOT
DOCKED: BRANCH   2  12
DOCKED: ATOM     12  C   UNL     1     -36.809  -8.377  14.411 -0.07 +0.00    +0.038 C  
DOCKED: BRANCH  12  13
DOCKED: ATOM     13  C   UNL     1     -38.006  -9.005  15.123 -0.05 +0.00    +0.038 C  
DOCKED: BRANCH  13  14
DOCKED: ATOM     14  C   UNL     1     -39.322  -8.534  14.506 -0.05 +0.00    +0.251 C  
DOCKED: BRANCH  14  15
DOCKED: ATOM     15  N   UNL     1     -40.303  -9.612  14.519 -0.06 +0.00    +0.141 N  
DOCKED: ATOM     16  C   UNL     1     -40.815  -9.860  13.171 -0.12 +0.00    +0.285 C  
DOCKED: ATOM     17  C   UNL     1     -39.718 -10.835  15.073 -0.02 +0.00    +0.285 C  
DOCKED: ENDBRANCH  14  15
DOCKED: ENDBRANCH  13  14
DOCKED: ENDBRANCH  12  13
DOCKED: ENDBRANCH   2  12
DOCKED: BRANCH   2  18
DOCKED: ATOM     18  C   UNL     1     -34.977  -8.801  12.782 -0.14 +0.00    +0.006 A  
DOCKED: ATOM     19  C   UNL     1     -35.419  -8.047  11.696 -0.15 +0.00    +0.001 A  
DOCKED: ATOM     20  C   UNL     1     -34.492  -7.458  10.835 -0.13 +0.00    +0.029 A  
DOCKED: ATOM     21  C   UNL     1     -33.126  -7.624  11.061 -0.08 +0.00    +0.140 A  
DOCKED: ATOM     22  C   UNL     1     -32.685  -8.378  12.149 -0.10 +0.00    +0.029 A  
DOCKED: ATOM     23  F   UNL     1     -32.237  -7.057  10.236 -0.00 -0.00    -0.204 F  
DOCKED: ATOM     24  C   UNL     1     -33.612  -8.968  13.010 -0.09 +0.00    +0.001 A  
DOCKED: ENDBRANCH   2  18
DOCKED: TORSDOF 5
DOCKED: TER
DOCKED: ENDMDL
________________________________________________________________________________


    FINAL DOCKED STATE:
    ________________________


Run:   506 / 512
Time taken for this run:   0.002s

DOCKED: MODEL        506
DOCKED: USER    Run = 506
DOCKED: USER
DOCKED: USER    Estimated Free Energy of Binding    =  -5.88 kcal/mol  [=(1)+(2)+(3)-(4)]
DOCKED: USER
DOCKED: USER    (1) Final Intermolecular Energy     =  -7.38 kcal/mol
DOCKED: USER        vdW + Hbond + desolv Energy     =  -7.38 kcal/mol
DOCKED: USER        Electrostatic Energy            =  +0.00 kcal/mol
DOCKED: USER        Moving Ligand-Fixed Receptor    =  -7.38 kcal/mol
DOCKED: USER        Moving Ligand-Moving Receptor   =  +0.00 kcal/mol
DOCKED: USER    (2) Final Total Internal Energy     =  -1.28 kcal/mol
DOCKED: USER    (3) Torsional Free Energy           =  +1.49 kcal/mol
DOCKED: USER    (4) Unbound System's Energy         =  -1.28 kcal/mol
DOCKED: USER
DOCKED: USER
DOCKED: REMARK  5 active torsions:
DOCKED: REMARK  status: ('A' for Active; 'I' for Inactive)
DOCKED: REMARK    1  A    between atoms: C_2  and  C_19 
DOCKED: REMARK    2  A    between atoms: C_2  and  C_11 
DOCKED: REMARK    3  A    between atoms: C_19  and  C_20 
DOCKED: REMARK    4  A    between atoms: C_20  and  C_21 
DOCKED: REMARK    5  A    between atoms: C_21  and  N_22 
DOCKED: USER                              x       y       z     vdW  Elec       q    Type
DOCKED: USER                           _______ _______ _______ _____ _____    ______ ____
DOCKED: ROOT
DOCKED: ATOM      1  O   UNL     1     -37.196 -10.713  13.894 -0.06 -0.00    -0.346 OA 
DOCKED: ATOM      2  C   UNL     1     -36.995 -12.163  13.854 -0.23 +0.00    +0.130 C  
DOCKED: ATOM      3  C   UNL     1     -37.542 -12.565  12.515 -0.34 +0.00    +0.004 A  
DOCKED: ATOM      4  C   UNL     1     -37.921 -11.434  11.806 -0.33 +0.00    +0.006 A  
DOCKED: ATOM      5  C   UNL     1     -37.643 -10.222  12.609 -0.23 +0.00    +0.169 C  
DOCKED: ATOM      6  C   UNL     1     -37.683 -13.831  11.965 -0.40 -0.00    -0.001 A  
DOCKED: ATOM      7  C   UNL     1     -38.454 -11.527  10.532 +0.07 +0.00    +0.008 A  
DOCKED: ATOM      8  C   UNL     1     -38.223 -13.942  10.682 -0.47 +0.00    +0.010 A  
DOCKED: ATOM      9  C   UNL     1     -38.607 -12.796   9.970 -0.40 +0.00    +0.068 A  
DOCKED: ATOM     10  N   UNL     1     -39.602 -13.037   7.590 -3.16 -0.00    -0.191 NA 
DOCKED: ATOM     11  C   UNL     1     -39.156 -12.929   8.658 -0.42 +0.00    +0.101 C  
DOCKED: ENDROOT
DOCKED: BRANCH   2  12
DOCKED: ATOM     12  C   UNL     1     -35.504 -12.447  13.996 -0.19 +0.00    +0.038 C  
DOCKED: BRANCH  12  13
DOCKED: ATOM     13  C   UNL     1     -34.790 -11.319  14.739 -0.19 +0.00    +0.038 C  
DOCKED: BRANCH  13  14
DOCKED: ATOM     14  C   UNL     1     -34.478 -11.722  16.179 -0.07 +0.00    +0.251 C  
DOCKED: BRANCH  14  15
DOCKED: ATOM     15  N   UNL     1     -34.735 -10.608  17.084 -0.03 +0.00    +0.141 N  
DOCKED: ATOM     16  C   UNL     1     -33.495 -10.165  17.723 -0.01 +0.00    +0.285 C  
DOCKED: ATOM     17  C   UNL     1     -35.362  -9.496  16.368 -0.01 +0.00    +0.285 C  
DOCKED: ENDBRANCH  14  15
DOCKED: ENDBRANCH  13  14
DOCKED: ENDBRANCH  12  13
DOCKED: ENDBRANCH   2  12
DOCKED: BRANCH   2  18
DOCKED: ATOM     18  C   UNL     1     -37.764 -12.741  14.995 -0.18 +0.00    +0.006 A  
DOCKED: ATOM     19  C   UNL     1     -37.123 -13.562  15.922 -0.16 +0.00    +0.001 A  
DOCKED: ATOM     20  C   UNL     1     -37.844 -14.103  16.987 -0.21 +0.00    +0.029 A  
DOCKED: ATOM     21  C   UNL     1     -39.202 -13.821  17.126 -0.09 +0.00    +0.140 A  
DOCKED: ATOM     22  C   UNL     1     -39.842 -12.999  16.198 -0.12 +0.00    +0.029 A  
DOCKED: ATOM     23  F   UNL     1     -39.893 -14.338  18.150 -0.03 -0.00    -0.204 F  
DOCKED: ATOM     24  C   UNL     1     -39.122 -12.458  15.131 -0.13 +0.00    +0.001 A  
DOCKED: ENDBRANCH   2  18
DOCKED: TORSDOF 5
DOCKED: TER
DOCKED: ENDMDL
________________________________________________________________________________


    FINAL DOCKED STATE:
    ________________________


Run:   507 / 512
Time taken for this run:   0.002s

DOCKED: MODEL        507
DOCKED: USER    Run = 507
DOCKED: USER
DOCKED: USER    Estimated Free Energy of Binding    =  -4.16 kcal/mol  [=(1)+(2)+(3)-(4)]
DOCKED: USER
DOCKED: USER    (1) Final Intermolecular Energy     =  -5.65 kcal/mol
DOCKED: USER        vdW + Hbond + desolv Energy     =  -5.65 kcal/mol
DOCKED: USER        Electrostatic Energy            =  +0.00 kcal/mol
DOCKED: USER        Moving Ligand-Fixed Receptor    =  -5.65 kcal/mol
DOCKED: USER        Moving Ligand-Moving Receptor   =  +0.00 kcal/mol
DOCKED: USER    (2) Final Total Internal Energy     =  -1.33 kcal/mol
DOCKED: USER    (3) Torsional Free Energy           =  +1.49 kcal/mol
DOCKED: USER    (4) Unbound System's Energy         =  -1.33 kcal/mol
DOCKED: USER
DOCKED: USER
DOCKED: REMARK  5 active torsions:
DOCKED: REMARK  status: ('A' for Active; 'I' for Inactive)
DOCKED: REMARK    1  A    between atoms: C_2  and  C_19 
DOCKED: REMARK    2  A    between atoms: C_2  and  C_11 
DOCKED: REMARK    3  A    between atoms: C_19  and  C_20 
DOCKED: REMARK    4  A    between atoms: C_20  and  C_21 
DOCKED: REMARK    5  A    between atoms: C_21  and  N_22 
DOCKED: USER                              x       y       z     vdW  Elec       q    Type
DOCKED: USER                           _______ _______ _______ _____ _____    ______ ____
DOCKED: ROOT
DOCKED: ATOM      1  O   UNL     1     -29.799 -13.235   3.750 -0.02 -0.00    -0.346 OA 
DOCKED: ATOM      2  C   UNL     1     -29.676 -12.080   4.640 -0.09 +0.00    +0.130 C  
DOCKED: ATOM      3  C   UNL     1     -30.187 -12.587   5.958 -0.13 +0.00    +0.004 A  
DOCKED: ATOM      4  C   UNL     1     -30.472 -13.941   5.859 -0.18 +0.00    +0.006 A  
DOCKED: ATOM      5  C   UNL     1     -30.163 -14.421   4.494 -0.05 +0.00    +0.169 C  
DOCKED: ATOM      6  C   UNL     1     -30.372 -11.906   7.153 -0.12 -0.00    -0.001 A  
DOCKED: ATOM      7  C   UNL     1     -30.954 -14.657   6.942 -0.29 +0.00    +0.008 A  
DOCKED: ATOM      8  C   UNL     1     -30.862 -12.613   8.252 -0.22 +0.00    +0.010 A  
DOCKED: ATOM      9  C   UNL     1     -31.150 -13.982   8.147 -0.30 +0.00    +0.068 A  
DOCKED: ATOM     10  N   UNL     1     -32.053 -15.266  10.209 -2.66 -0.00    -0.191 NA 
DOCKED: ATOM     11  C   UNL     1     -31.649 -14.690   9.284 -0.40 +0.00    +0.101 C  
DOCKED: ENDROOT
DOCKED: BRANCH   2  12
DOCKED: ATOM     12  C   UNL     1     -28.211 -11.664   4.692 -0.03 +0.00    +0.038 C  
DOCKED: BRANCH  12  13
DOCKED: ATOM     13  C   UNL     1     -27.329 -12.793   5.220 -0.02 +0.00    +0.038 C  
DOCKED: BRANCH  13  14
DOCKED: ATOM     14  C   UNL     1     -26.875 -12.511   6.651 -0.01 +0.00    +0.251 C  
DOCKED: BRANCH  14  15
DOCKED: ATOM     15  N   UNL     1     -26.379 -13.732   7.276 -0.04 +0.00    +0.141 N  
DOCKED: ATOM     16  C   UNL     1     -27.000 -13.930   8.587 -0.05 +0.00    +0.285 C  
DOCKED: ATOM     17  C   UNL     1     -26.630 -14.890   6.416 -0.04 +0.00    +0.285 C  
DOCKED: ENDBRANCH  14  15
DOCKED: ENDBRANCH  13  14
DOCKED: ENDBRANCH  12  13
DOCKED: ENDBRANCH   2  12
DOCKED: BRANCH   2  18
DOCKED: ATOM     18  C   UNL     1     -30.525 -10.995   4.067 -0.12 +0.00    +0.006 A  
DOCKED: ATOM     19  C   UNL     1     -30.899  -9.910   4.860 -0.12 +0.00    +0.001 A  
DOCKED: ATOM     20  C   UNL     1     -31.693  -8.896   4.322 -0.15 +0.00    +0.029 A  
DOCKED: ATOM     21  C   UNL     1     -32.110  -8.967   2.994 -0.19 +0.00    +0.140 A  
DOCKED: ATOM     22  C   UNL     1     -31.735 -10.052   2.202 -0.20 +0.00    +0.029 A  
DOCKED: ATOM     23  F   UNL     1     -32.870  -7.993   2.478 -0.10 -0.00    -0.204 F  
DOCKED: ATOM     24  C   UNL     1     -30.942 -11.067   2.739 -0.12 +0.00    +0.001 A  
DOCKED: ENDBRANCH   2  18
DOCKED: TORSDOF 5
DOCKED: TER
DOCKED: ENDMDL
________________________________________________________________________________


    FINAL DOCKED STATE:
    ________________________


Run:   508 / 512
Time taken for this run:   0.002s

DOCKED: MODEL        508
DOCKED: USER    Run = 508
DOCKED: USER
DOCKED: USER    Estimated Free Energy of Binding    =  -3.72 kcal/mol  [=(1)+(2)+(3)-(4)]
DOCKED: USER
DOCKED: USER    (1) Final Intermolecular Energy     =  -5.21 kcal/mol
DOCKED: USER        vdW + Hbond + desolv Energy     =  -5.21 kcal/mol
DOCKED: USER        Electrostatic Energy            =  +0.00 kcal/mol
DOCKED: USER        Moving Ligand-Fixed Receptor    =  -5.21 kcal/mol
DOCKED: USER        Moving Ligand-Moving Receptor   =  +0.00 kcal/mol
DOCKED: USER    (2) Final Total Internal Energy     =  -1.24 kcal/mol
DOCKED: USER    (3) Torsional Free Energy           =  +1.49 kcal/mol
DOCKED: USER    (4) Unbound System's Energy         =  -1.24 kcal/mol
DOCKED: USER
DOCKED: USER
DOCKED: REMARK  5 active torsions:
DOCKED: REMARK  status: ('A' for Active; 'I' for Inactive)
DOCKED: REMARK    1  A    between atoms: C_2  and  C_19 
DOCKED: REMARK    2  A    between atoms: C_2  and  C_11 
DOCKED: REMARK    3  A    between atoms: C_19  and  C_20 
DOCKED: REMARK    4  A    between atoms: C_20  and  C_21 
DOCKED: REMARK    5  A    between atoms: C_21  and  N_22 
DOCKED: USER                              x       y       z     vdW  Elec       q    Type
DOCKED: USER                           _______ _______ _______ _____ _____    ______ ____
DOCKED: ROOT
DOCKED: ATOM      1  O   UNL     1     -37.335  -8.184  13.681 -0.03 -0.00    -0.346 OA 
DOCKED: ATOM      2  C   UNL     1     -36.628  -9.164  14.506 -0.07 +0.00    +0.130 C  
DOCKED: ATOM      3  C   UNL     1     -37.084 -10.487  13.964 -0.16 +0.00    +0.004 A  
DOCKED: ATOM      4  C   UNL     1     -37.894 -10.284  12.855 -0.26 +0.00    +0.006 A  
DOCKED: ATOM      5  C   UNL     1     -38.018  -8.834  12.583 -0.17 +0.00    +0.169 C  
DOCKED: ATOM      6  C   UNL     1     -36.797 -11.769  14.409 -0.20 -0.00    -0.001 A  
DOCKED: ATOM      7  C   UNL     1     -38.445 -11.346  12.160 -0.32 +0.00    +0.008 A  
DOCKED: ATOM      8  C   UNL     1     -37.348 -12.852  13.721 -0.29 +0.00    +0.010 A  
DOCKED: ATOM      9  C   UNL     1     -38.168 -12.641  12.602 -0.28 +0.00    +0.068 A  
DOCKED: ATOM     10  N   UNL     1     -39.171 -14.672  11.345 -2.50 -0.00    -0.191 NA 
DOCKED: ATOM     11  C   UNL     1     -38.722 -13.761  11.909 -0.34 +0.00    +0.101 C  
DOCKED: ENDROOT
DOCKED: BRANCH   2  12
DOCKED: ATOM     12  C   UNL     1     -35.129  -8.940  14.342 -0.09 +0.00    +0.038 C  
DOCKED: BRANCH  12  13
DOCKED: ATOM     13  C   UNL     1     -34.721  -8.958  12.870 -0.12 +0.00    +0.038 C  
DOCKED: BRANCH  13  14
DOCKED: ATOM     14  C   UNL     1     -34.382  -7.553  12.377 -0.08 +0.00    +0.251 C  
DOCKED: BRANCH  14  15
DOCKED: ATOM     15  N   UNL     1     -35.185  -7.218  11.207 -0.11 +0.00    +0.141 N  
DOCKED: ATOM     16  C   UNL     1     -35.632  -5.826  11.269 -0.06 +0.00    +0.285 C  
DOCKED: ATOM     17  C   UNL     1     -34.427  -7.453   9.977 -0.08 +0.00    +0.285 C  
DOCKED: ENDBRANCH  14  15
DOCKED: ENDBRANCH  13  14
DOCKED: ENDBRANCH  12  13
DOCKED: ENDBRANCH   2  12
DOCKED: BRANCH   2  18
DOCKED: ATOM     18  C   UNL     1     -37.055  -8.935  15.917 -0.02 +0.00    +0.006 A  
DOCKED: ATOM     19  C   UNL     1     -36.376  -9.562  16.961 -0.02 +0.00    +0.001 A  
DOCKED: ATOM     20  C   UNL     1     -36.777  -9.347  18.280 -0.00 +0.00    +0.029 A  
DOCKED: ATOM     21  C   UNL     1     -37.854  -8.507  18.554 +0.00 +0.00    +0.140 A  
DOCKED: ATOM     22  C   UNL     1     -38.533  -7.880  17.509 -0.00 +0.00    +0.029 A  
DOCKED: ATOM     23  F   UNL     1     -38.238  -8.299  19.820 +0.00 -0.00    -0.204 F  
DOCKED: ATOM     24  C   UNL     1     -38.133  -8.094  16.189 -0.01 +0.00    +0.001 A  
DOCKED: ENDBRANCH   2  18
DOCKED: TORSDOF 5
DOCKED: TER
DOCKED: ENDMDL
________________________________________________________________________________


    FINAL DOCKED STATE:
    ________________________


Run:   509 / 512
Time taken for this run:   0.002s

DOCKED: MODEL        509
DOCKED: USER    Run = 509
DOCKED: USER
DOCKED: USER    Estimated Free Energy of Binding    =  -4.11 kcal/mol  [=(1)+(2)+(3)-(4)]
DOCKED: USER
DOCKED: USER    (1) Final Intermolecular Energy     =  -5.60 kcal/mol
DOCKED: USER        vdW + Hbond + desolv Energy     =  -5.60 kcal/mol
DOCKED: USER        Electrostatic Energy            =  +0.00 kcal/mol
DOCKED: USER        Moving Ligand-Fixed Receptor    =  -5.60 kcal/mol
DOCKED: USER        Moving Ligand-Moving Receptor   =  +0.00 kcal/mol
DOCKED: USER    (2) Final Total Internal Energy     =  -1.20 kcal/mol
DOCKED: USER    (3) Torsional Free Energy           =  +1.49 kcal/mol
DOCKED: USER    (4) Unbound System's Energy         =  -1.20 kcal/mol
DOCKED: USER
DOCKED: USER
DOCKED: REMARK  5 active torsions:
DOCKED: REMARK  status: ('A' for Active; 'I' for Inactive)
DOCKED: REMARK    1  A    between atoms: C_2  and  C_19 
DOCKED: REMARK    2  A    between atoms: C_2  and  C_11 
DOCKED: REMARK    3  A    between atoms: C_19  and  C_20 
DOCKED: REMARK    4  A    between atoms: C_20  and  C_21 
DOCKED: REMARK    5  A    between atoms: C_21  and  N_22 
DOCKED: USER                              x       y       z     vdW  Elec       q    Type
DOCKED: USER                           _______ _______ _______ _____ _____    ______ ____
DOCKED: ROOT
DOCKED: ATOM      1  O   UNL     1     -39.471  -7.999  13.300 -0.09 -0.00    -0.346 OA 
DOCKED: ATOM      2  C   UNL     1     -38.057  -8.369  13.220 -0.16 +0.00    +0.130 C  
DOCKED: ATOM      3  C   UNL     1     -38.086  -9.818  12.827 -0.24 +0.00    +0.004 A  
DOCKED: ATOM      4  C   UNL     1     -39.396 -10.212  12.594 -0.21 +0.00    +0.006 A  
DOCKED: ATOM      5  C   UNL     1     -40.310  -9.067  12.801 -0.19 +0.00    +0.169 C  
DOCKED: ATOM      6  C   UNL     1     -37.036 -10.712  12.676 -0.24 -0.00    -0.001 A  
DOCKED: ATOM      7  C   UNL     1     -39.701 -11.507  12.209 -0.24 +0.00    +0.008 A  
DOCKED: ATOM      8  C   UNL     1     -37.328 -12.022  12.292 -0.30 +0.00    +0.010 A  
DOCKED: ATOM      9  C   UNL     1     -38.653 -12.417  12.060 -0.30 +0.00    +0.068 A  
DOCKED: ATOM     10  N   UNL     1     -39.159 -14.855  11.344 -2.60 -0.00    -0.191 NA 
DOCKED: ATOM     11  C   UNL     1     -38.933 -13.762  11.666 -0.38 +0.00    +0.101 C  
DOCKED: ENDROOT
DOCKED: BRANCH   2  12
DOCKED: ATOM     12  C   UNL     1     -37.385  -7.484  12.177 -0.06 +0.00    +0.038 C  
DOCKED: BRANCH  12  13
DOCKED: ATOM     13  C   UNL     1     -36.485  -6.438  12.831 -0.09 +0.00    +0.038 C  
DOCKED: BRANCH  13  14
DOCKED: ATOM     14  C   UNL     1     -35.043  -6.571  12.344 -0.06 +0.00    +0.251 C  
DOCKED: BRANCH  14  15
DOCKED: ATOM     15  N   UNL     1     -34.766  -7.948  11.952 -0.12 +0.00    +0.141 N  
DOCKED: ATOM     16  C   UNL     1     -34.341  -8.011  10.553 -0.08 +0.00    +0.285 C  
DOCKED: ATOM     17  C   UNL     1     -33.744  -8.535  12.820 -0.08 +0.00    +0.285 C  
DOCKED: ENDBRANCH  14  15
DOCKED: ENDBRANCH  13  14
DOCKED: ENDBRANCH  12  13
DOCKED: ENDBRANCH   2  12
DOCKED: BRANCH   2  18
DOCKED: ATOM     18  C   UNL     1     -37.471  -8.146  14.574 -0.06 +0.00    +0.006 A  
DOCKED: ATOM     19  C   UNL     1     -38.129  -7.328  15.492 -0.02 +0.00    +0.001 A  
DOCKED: ATOM     20  C   UNL     1     -37.579  -7.120  16.757 -0.00 +0.00    +0.029 A  
DOCKED: ATOM     21  C   UNL     1     -36.373  -7.729  17.103 -0.00 +0.00    +0.140 A  
DOCKED: ATOM     22  C   UNL     1     -35.716  -8.547  16.185 -0.01 +0.00    +0.029 A  
DOCKED: ATOM     23  F   UNL     1     -35.847  -7.530  18.319 -0.00 -0.00    -0.204 F  
DOCKED: ATOM     24  C   UNL     1     -36.265  -8.756  14.918 -0.05 +0.00    +0.001 A  
DOCKED: ENDBRANCH   2  18
DOCKED: TORSDOF 5
DOCKED: TER
DOCKED: ENDMDL
________________________________________________________________________________


    FINAL DOCKED STATE:
    ________________________


Run:   510 / 512
Time taken for this run:   0.002s

DOCKED: MODEL        510
DOCKED: USER    Run = 510
DOCKED: USER
DOCKED: USER    Estimated Free Energy of Binding    =  -4.01 kcal/mol  [=(1)+(2)+(3)-(4)]
DOCKED: USER
DOCKED: USER    (1) Final Intermolecular Energy     =  -5.50 kcal/mol
DOCKED: USER        vdW + Hbond + desolv Energy     =  -5.50 kcal/mol
DOCKED: USER        Electrostatic Energy            =  +0.00 kcal/mol
DOCKED: USER        Moving Ligand-Fixed Receptor    =  -5.50 kcal/mol
DOCKED: USER        Moving Ligand-Moving Receptor   =  +0.00 kcal/mol
DOCKED: USER    (2) Final Total Internal Energy     =  -1.30 kcal/mol
DOCKED: USER    (3) Torsional Free Energy           =  +1.49 kcal/mol
DOCKED: USER    (4) Unbound System's Energy         =  -1.30 kcal/mol
DOCKED: USER
DOCKED: USER
DOCKED: REMARK  5 active torsions:
DOCKED: REMARK  status: ('A' for Active; 'I' for Inactive)
DOCKED: REMARK    1  A    between atoms: C_2  and  C_19 
DOCKED: REMARK    2  A    between atoms: C_2  and  C_11 
DOCKED: REMARK    3  A    between atoms: C_19  and  C_20 
DOCKED: REMARK    4  A    between atoms: C_20  and  C_21 
DOCKED: REMARK    5  A    between atoms: C_21  and  N_22 
DOCKED: USER                              x       y       z     vdW  Elec       q    Type
DOCKED: USER                           _______ _______ _______ _____ _____    ______ ____
DOCKED: ROOT
DOCKED: ATOM      1  O   UNL     1     -37.229  -8.213  12.917 -0.07 -0.00    -0.346 OA 
DOCKED: ATOM      2  C   UNL     1     -38.289  -8.558  13.865 -0.11 +0.00    +0.130 C  
DOCKED: ATOM      3  C   UNL     1     -38.705  -9.940  13.452 -0.18 +0.00    +0.004 A  
DOCKED: ATOM      4  C   UNL     1     -37.881 -10.390  12.430 -0.28 +0.00    +0.006 A  
DOCKED: ATOM      5  C   UNL     1     -36.870  -9.358  12.109 -0.11 +0.00    +0.169 C  
DOCKED: ATOM      6  C   UNL     1     -39.723 -10.740  13.949 -0.13 -0.00    -0.001 A  
DOCKED: ATOM      7  C   UNL     1     -38.048 -11.645  11.869 -0.35 +0.00    +0.008 A  
DOCKED: ATOM      8  C   UNL     1     -39.907 -12.007  13.391 -0.18 +0.00    +0.010 A  
DOCKED: ATOM      9  C   UNL     1     -39.073 -12.456  12.357 -0.25 +0.00    +0.068 A  
DOCKED: ATOM     10  N   UNL     1     -39.438 -14.814  11.346 -2.56 -0.00    -0.191 NA 
DOCKED: ATOM     11  C   UNL     1     -39.274 -13.756  11.799 -0.35 +0.00    +0.101 C  
DOCKED: ENDROOT
DOCKED: BRANCH   2  12
DOCKED: ATOM     12  C   UNL     1     -37.711  -8.509  15.274 -0.04 +0.00    +0.038 C  
DOCKED: BRANCH  12  13
DOCKED: ATOM     13  C   UNL     1     -36.648  -9.586  15.479 -0.05 +0.00    +0.038 C  
DOCKED: BRANCH  13  14
DOCKED: ATOM     14  C   UNL     1     -35.286  -8.965  15.783 -0.02 +0.00    +0.251 C  
DOCKED: BRANCH  14  15
DOCKED: ATOM     15  N   UNL     1     -34.340  -9.269  14.716 -0.06 +0.00    +0.141 N  
DOCKED: ATOM     16  C   UNL     1     -34.708 -10.514  14.040 -0.06 +0.00    +0.285 C  
DOCKED: ATOM     17  C   UNL     1     -34.277  -8.168  13.754 -0.05 +0.00    +0.285 C  
DOCKED: ENDBRANCH  14  15
DOCKED: ENDBRANCH  13  14
DOCKED: ENDBRANCH  12  13
DOCKED: ENDBRANCH   2  12
DOCKED: BRANCH   2  18
DOCKED: ATOM     18  C   UNL     1     -39.374  -7.548  13.693 -0.13 +0.00    +0.006 A  
DOCKED: ATOM     19  C   UNL     1     -39.666  -7.049  12.424 -0.21 +0.00    +0.001 A  
DOCKED: ATOM     20  C   UNL     1     -40.681  -6.104  12.264 -0.17 +0.00    +0.029 A  
DOCKED: ATOM     21  C   UNL     1     -41.402  -5.662  13.372 -0.06 +0.00    +0.140 A  
DOCKED: ATOM     22  C   UNL     1     -41.110  -6.163  14.641 -0.04 +0.00    +0.029 A  
DOCKED: ATOM     23  F   UNL     1     -42.378  -4.757  13.218 +0.01 -0.00    -0.204 F  
DOCKED: ATOM     24  C   UNL     1     -40.095  -7.107  14.802 -0.05 +0.00    +0.001 A  
DOCKED: ENDBRANCH   2  18
DOCKED: TORSDOF 5
DOCKED: TER
DOCKED: ENDMDL
________________________________________________________________________________


    FINAL DOCKED STATE:
    ________________________


Run:   511 / 512
Time taken for this run:   0.002s

DOCKED: MODEL        511
DOCKED: USER    Run = 511
DOCKED: USER
DOCKED: USER    Estimated Free Energy of Binding    =  -3.84 kcal/mol  [=(1)+(2)+(3)-(4)]
DOCKED: USER
DOCKED: USER    (1) Final Intermolecular Energy     =  -5.33 kcal/mol
DOCKED: USER        vdW + Hbond + desolv Energy     =  -5.33 kcal/mol
DOCKED: USER        Electrostatic Energy            =  +0.00 kcal/mol
DOCKED: USER        Moving Ligand-Fixed Receptor    =  -5.33 kcal/mol
DOCKED: USER        Moving Ligand-Moving Receptor   =  +0.00 kcal/mol
DOCKED: USER    (2) Final Total Internal Energy     =  -1.33 kcal/mol
DOCKED: USER    (3) Torsional Free Energy           =  +1.49 kcal/mol
DOCKED: USER    (4) Unbound System's Energy         =  -1.33 kcal/mol
DOCKED: USER
DOCKED: USER
DOCKED: REMARK  5 active torsions:
DOCKED: REMARK  status: ('A' for Active; 'I' for Inactive)
DOCKED: REMARK    1  A    between atoms: C_2  and  C_19 
DOCKED: REMARK    2  A    between atoms: C_2  and  C_11 
DOCKED: REMARK    3  A    between atoms: C_19  and  C_20 
DOCKED: REMARK    4  A    between atoms: C_20  and  C_21 
DOCKED: REMARK    5  A    between atoms: C_21  and  N_22 
DOCKED: USER                              x       y       z     vdW  Elec       q    Type
DOCKED: USER                           _______ _______ _______ _____ _____    ______ ____
DOCKED: ROOT
DOCKED: ATOM      1  O   UNL     1     -35.220 -10.403  14.521 -0.07 -0.00    -0.346 OA 
DOCKED: ATOM      2  C   UNL     1     -36.523  -9.749  14.390 -0.10 +0.00    +0.130 C  
DOCKED: ATOM      3  C   UNL     1     -37.348 -10.743  13.626 -0.20 +0.00    +0.004 A  
DOCKED: ATOM      4  C   UNL     1     -36.618 -11.907  13.433 -0.26 +0.00    +0.006 A  
DOCKED: ATOM      5  C   UNL     1     -35.283 -11.772  14.058 -0.14 +0.00    +0.169 C  
DOCKED: ATOM      6  C   UNL     1     -38.646 -10.630  13.149 -0.22 -0.00    -0.001 A  
DOCKED: ATOM      7  C   UNL     1     -37.154 -12.991  12.758 -0.36 +0.00    +0.008 A  
DOCKED: ATOM      8  C   UNL     1     -39.199 -11.713  12.462 -0.27 +0.00    +0.010 A  
DOCKED: ATOM      9  C   UNL     1     -38.456 -12.887  12.268 -0.30 +0.00    +0.068 A  
DOCKED: ATOM     10  N   UNL     1     -39.514 -14.879  10.994 -2.37 -0.00    -0.191 NA 
DOCKED: ATOM     11  C   UNL     1     -39.040 -13.985  11.565 -0.33 +0.00    +0.101 C  
DOCKED: ENDROOT
DOCKED: BRANCH   2  12
DOCKED: ATOM     12  C   UNL     1     -37.067  -9.474  15.787 -0.04 +0.00    +0.038 C  
DOCKED: BRANCH  12  13
DOCKED: ATOM     13  C   UNL     1     -38.018 -10.580  16.241 -0.05 +0.00    +0.038 C  
DOCKED: BRANCH  13  14
DOCKED: ATOM     14  C   UNL     1     -39.444 -10.054  16.386 -0.01 +0.00    +0.251 C  
DOCKED: BRANCH  14  15
DOCKED: ATOM     15  N   UNL     1     -39.516  -8.660  15.965 -0.01 +0.00    +0.141 N  
DOCKED: ATOM     16  C   UNL     1     -40.505  -8.494  14.898 -0.02 +0.00    +0.285 C  
DOCKED: ATOM     17  C   UNL     1     -39.842  -7.794  17.099 -0.00 +0.00    +0.285 C  
DOCKED: ENDBRANCH  14  15
DOCKED: ENDBRANCH  13  14
DOCKED: ENDBRANCH  12  13
DOCKED: ENDBRANCH   2  12
DOCKED: BRANCH   2  18
DOCKED: ATOM     18  C   UNL     1     -36.300  -8.479  13.639 -0.12 +0.00    +0.006 A  
DOCKED: ATOM     19  C   UNL     1     -35.553  -8.487  12.462 -0.17 +0.00    +0.001 A  
DOCKED: ATOM     20  C   UNL     1     -35.345  -7.299  11.761 -0.13 +0.00    +0.029 A  
DOCKED: ATOM     21  C   UNL     1     -35.884  -6.105  12.238 -0.06 +0.00    +0.140 A  
DOCKED: ATOM     22  C   UNL     1     -36.630  -6.097  13.416 -0.05 +0.00    +0.029 A  
DOCKED: ATOM     23  F   UNL     1     -35.685  -4.964  11.565 -0.01 -0.00    -0.204 F  
DOCKED: ATOM     24  C   UNL     1     -36.839  -7.285  14.118 -0.06 +0.00    +0.001 A  
DOCKED: ENDBRANCH   2  18
DOCKED: TORSDOF 5
DOCKED: TER
DOCKED: ENDMDL
________________________________________________________________________________


    FINAL DOCKED STATE:
    ________________________


Run:   512 / 512
Time taken for this run:   0.002s

DOCKED: MODEL        512
DOCKED: USER    Run = 512
DOCKED: USER
DOCKED: USER    Estimated Free Energy of Binding    =  -4.91 kcal/mol  [=(1)+(2)+(3)-(4)]
DOCKED: USER
DOCKED: USER    (1) Final Intermolecular Energy     =  -6.41 kcal/mol
DOCKED: USER        vdW + Hbond + desolv Energy     =  -6.41 kcal/mol
DOCKED: USER        Electrostatic Energy            =  +0.00 kcal/mol
DOCKED: USER        Moving Ligand-Fixed Receptor    =  -6.41 kcal/mol
DOCKED: USER        Moving Ligand-Moving Receptor   =  +0.00 kcal/mol
DOCKED: USER    (2) Final Total Internal Energy     =  -0.82 kcal/mol
DOCKED: USER    (3) Torsional Free Energy           =  +1.49 kcal/mol
DOCKED: USER    (4) Unbound System's Energy         =  -0.82 kcal/mol
DOCKED: USER
DOCKED: USER
DOCKED: REMARK  5 active torsions:
DOCKED: REMARK  status: ('A' for Active; 'I' for Inactive)
DOCKED: REMARK    1  A    between atoms: C_2  and  C_19 
DOCKED: REMARK    2  A    between atoms: C_2  and  C_11 
DOCKED: REMARK    3  A    between atoms: C_19  and  C_20 
DOCKED: REMARK    4  A    between atoms: C_20  and  C_21 
DOCKED: REMARK    5  A    between atoms: C_21  and  N_22 
DOCKED: USER                              x       y       z     vdW  Elec       q    Type
DOCKED: USER                           _______ _______ _______ _____ _____    ______ ____
DOCKED: ROOT
DOCKED: ATOM      1  O   UNL     1     -39.650 -13.293  14.822 -0.07 -0.00    -0.346 OA 
DOCKED: ATOM      2  C   UNL     1     -38.980 -12.079  14.354 -0.12 +0.00    +0.130 C  
DOCKED: ATOM      3  C   UNL     1     -38.980 -12.222  12.859 -0.25 +0.00    +0.004 A  
DOCKED: ATOM      4  C   UNL     1     -39.686 -13.361  12.499 -0.28 +0.00    +0.006 A  
DOCKED: ATOM      5  C   UNL     1     -40.204 -14.035  13.710 -0.05 +0.00    +0.169 C  
DOCKED: ATOM      6  C   UNL     1     -38.412 -11.402  11.895 -0.33 -0.00    -0.001 A  
DOCKED: ATOM      7  C   UNL     1     -39.842 -13.721  11.171 -0.39 +0.00    +0.008 A  
DOCKED: ATOM      8  C   UNL     1     -38.557 -11.754  10.553 -0.10 +0.00    +0.010 A  
DOCKED: ATOM      9  C   UNL     1     -39.270 -12.908  10.193 -0.40 +0.00    +0.068 A  
DOCKED: ATOM     10  N   UNL     1     -39.526 -13.530   7.691 -2.71 -0.00    -0.191 NA 
DOCKED: ATOM     11  C   UNL     1     -39.410 -13.251   8.813 -0.34 +0.00    +0.101 C  
DOCKED: ENDROOT
DOCKED: BRANCH   2  12
DOCKED: ATOM     12  C   UNL     1     -39.777 -10.872  14.835 -0.09 +0.00    +0.038 C  
DOCKED: BRANCH  12  13
DOCKED: ATOM     13  C   UNL     1     -39.326  -9.592  14.136 -0.13 +0.00    +0.038 C  
DOCKED: BRANCH  13  14
DOCKED: ATOM     14  C   UNL     1     -40.502  -8.642  13.917 -0.09 +0.00    +0.251 C  
DOCKED: BRANCH  14  15
DOCKED: ATOM     15  N   UNL     1     -40.022  -7.325  13.513 -0.11 +0.00    +0.141 N  
DOCKED: ATOM     16  C   UNL     1     -40.882  -6.760  12.472 -0.14 +0.00    +0.285 C  
DOCKED: ATOM     17  C   UNL     1     -39.958  -6.424  14.664 -0.02 +0.00    +0.285 C  
DOCKED: ENDBRANCH  14  15
DOCKED: ENDBRANCH  13  14
DOCKED: ENDBRANCH  12  13
DOCKED: ENDBRANCH   2  12
DOCKED: BRANCH   2  18
DOCKED: ATOM     18  C   UNL     1     -37.607 -12.086  14.939 -0.15 +0.00    +0.006 A  
DOCKED: ATOM     19  C   UNL     1     -36.496 -12.202  14.105 -0.25 +0.00    +0.001 A  
DOCKED: ATOM     20  C   UNL     1     -35.213 -12.209  14.653 -0.13 +0.00    +0.029 A  
DOCKED: ATOM     21  C   UNL     1     -35.043 -12.098  16.033 -0.05 +0.00    +0.140 A  
DOCKED: ATOM     22  C   UNL     1     -36.155 -11.981  16.865 -0.09 +0.00    +0.029 A  
DOCKED: ATOM     23  F   UNL     1     -33.811 -12.102  16.558 -0.03 -0.00    -0.204 F  
DOCKED: ATOM     24  C   UNL     1     -37.439 -11.975  16.318 -0.10 +0.00    +0.001 A  
DOCKED: ENDBRANCH   2  18
DOCKED: TORSDOF 5
DOCKED: TER
DOCKED: ENDMDL
________________________________________________________________________________


    CLUSTERING HISTOGRAM
    ____________________


________________________________________________________________________________
     |           |     |           |     |
Clus | Lowest    | Run | Mean      | Num | Histogram
-ter | Binding   |     | Binding   | in  |
Rank | Energy    |     | Energy    | Clus|    5    10   15   20   25   30   35
_____|___________|_____|___________|_____|____:____|____:____|____:____|____:___
   1 |     -6.81 |  10 |     -5.55 |  15 |###############
   2 |     -6.07 | 129 |     -5.32 |  57 |#########################################################
   3 |     -5.73 | 400 |     -4.92 |   9 |#########
   4 |     -5.71 | 312 |     -5.06 |  26 |##########################
   5 |     -5.70 | 253 |     -5.23 |  10 |##########
   6 |     -5.29 |  71 |     -4.53 |  16 |################
   7 |     -5.11 | 323 |     -4.41 |  13 |#############
   8 |     -4.96 | 185 |     -4.52 |  22 |######################
   9 |     -4.81 | 125 |     -4.09 |  15 |###############
  10 |     -4.78 | 108 |     -4.22 |  60 |############################################################
  11 |     -4.73 | 405 |     -4.29 |  54 |######################################################
  12 |     -4.57 | 225 |     -3.96 |   7 |#######
  13 |     -4.44 | 262 |     -4.14 |   9 |#########
  14 |     -4.44 | 334 |     -4.05 |  13 |#############
  15 |     -4.36 |  78 |     -4.08 |  17 |#################
  16 |     -4.34 | 100 |     -4.07 |  23 |#######################
  17 |     -4.29 | 492 |     -4.01 |   3 |###
  18 |     -4.25 | 169 |     -4.12 |   6 |######
  19 |     -4.24 | 432 |     -3.93 |  24 |########################
  20 |     -4.20 | 149 |     -3.91 |   6 |######
  21 |     -4.19 |  81 |     -3.91 |  22 |######################
  22 |     -4.16 | 174 |     -3.82 |   7 |#######
  23 |     -4.13 | 269 |     -4.01 |   3 |###
  24 |     -4.11 | 184 |     -3.80 |  10 |##########
  25 |     -4.08 | 504 |     -4.04 |   2 |##
  26 |     -3.99 | 249 |     -3.99 |   1 |#
  27 |     -3.95 | 337 |     -3.83 |   5 |#####
  28 |     -3.93 | 418 |     -3.62 |   5 |#####
  29 |     -3.90 | 173 |     -3.90 |   1 |#
  30 |     -3.90 | 395 |     -3.83 |   2 |##
  31 |     -3.89 | 243 |     -3.81 |   2 |##
  32 |     -3.87 | 153 |     -3.77 |   2 |##
  33 |     -3.83 | 403 |     -3.71 |   4 |####
  34 |     -3.81 |  18 |     -3.67 |   3 |###
  35 |     -3.75 |  63 |     -3.46 |   8 |########
  36 |     -3.73 |  29 |     -3.63 |   7 |#######
  37 |     -3.72 |  60 |     -3.66 |   2 |##
  38 |     -3.72 | 435 |     -3.63 |   3 |###
  39 |     -3.71 |   5 |     -3.57 |   2 |##
  40 |     -3.60 | 297 |     -3.60 |   1 |#
  41 |     -3.56 | 406 |     -3.56 |   1 |#
  42 |     -3.55 | 179 |     -3.55 |   1 |#
  43 |     -3.54 | 289 |     -3.36 |   2 |##
  44 |     -3.43 | 216 |     -3.40 |   2 |##
  45 |     -3.39 | 446 |     -3.39 |   1 |#
  46 |     -3.33 | 503 |     -3.33 |   1 |#
  47 |     -3.17 | 444 |     -3.17 |   1 |#
  48 |     -3.12 | 171 |     -3.12 |   1 |#
  49 |     -3.10 |  46 |     -3.10 |   1 |#
  50 |     -3.06 | 287 |     -3.06 |   1 |#
  51 |     -3.04 | 139 |     -3.04 |   1 |#
  52 |     -2.97 | 381 |     -2.97 |   1 |#
  53 |     -2.91 | 353 |     -2.91 |   1 |#
_____|___________|_____|___________|_____|______________________________________


    RMSD TABLE
    __________


_______________________________________________________________________
     |      |      |           |         |                 |
Rank | Sub- | Run  | Binding   | Cluster | Reference       | Grep
     | Rank |      | Energy    | RMSD    | RMSD            | Pattern
_____|______|______|___________|_________|_________________|___________
   1      1     10       -6.81      0.00     40.88           RANKING
   1      2    379       -6.37      0.85     40.53           RANKING
   1      3    437       -6.25      1.36     40.25           RANKING
   1      4    210       -6.21      1.08     41.28           RANKING
   1      5    310       -6.18      1.43     39.95           RANKING
   1      6    288       -5.85      1.47     40.02           RANKING
   1      7     59       -5.66      1.96     39.73           RANKING
   1      8    215       -5.61      1.67     40.76           RANKING
   1      9     24       -5.50      1.27     40.15           RANKING
   1     10    493       -5.16      1.56     40.10           RANKING
   1     11    343       -5.08      1.85     40.79           RANKING
   1     12    380       -4.77      1.35     40.31           RANKING
   1     13     54       -4.67      1.99     40.04           RANKING
   1     14    298       -4.65      1.44     40.17           RANKING
   1     15    461       -4.43      1.86     40.03           RANKING
   2      1    129       -6.07      0.00     39.99           RANKING
   2      2    226       -6.03      0.82     40.05           RANKING
   2      3     80       -6.02      0.78     40.31           RANKING
   2      4    502       -6.01      0.73     39.95           RANKING
   2      5    202       -5.98      0.63     39.75           RANKING
   2      6    391       -5.92      0.63     40.00           RANKING
   2      7    325       -5.90      1.19     40.33           RANKING
   2      8    506       -5.88      1.15     40.30           RANKING
   2      9    301       -5.88      0.45     40.04           RANKING
   2     10    197       -5.82      1.24     40.35           RANKING
   2     11    181       -5.81      0.95     40.35           RANKING
   2     12    294       -5.76      1.47     40.53           RANKING
   2     13    172       -5.75      1.30     40.47           RANKING
   2     14    127       -5.74      0.59     40.08           RANKING
   2     15    221       -5.71      1.57     40.89           RANKING
   2     16     51       -5.70      1.40     41.09           RANKING
   2     17     31       -5.67      1.31     40.48           RANKING
   2     18     91       -5.62      0.89     40.11           RANKING
   2     19     21       -5.61      1.03     39.88           RANKING
   2     20    407       -5.59      1.49     40.37           RANKING
   2     21    377       -5.58      1.38     40.28           RANKING
   2     22     23       -5.57      1.41     40.27           RANKING
   2     23    463       -5.56      1.22     40.52           RANKING
   2     24    146       -5.56      1.31     40.38           RANKING
   2     25    330       -5.55      1.18     39.94           RANKING
   2     26    274       -5.54      1.33     40.18           RANKING
   2     27    114       -5.51      1.40     40.68           RANKING
   2     28    254       -5.50      1.40     40.78           RANKING
   2     29    419       -5.48      1.24     40.27           RANKING
   2     30    293       -5.45      1.80     40.79           RANKING
   2     31    130       -5.37      1.42     40.19           RANKING
   2     32    427       -5.36      1.31     40.30           RANKING
   2     33    304       -5.34      1.34     39.90           RANKING
   2     34     70       -5.30      1.28     40.53           RANKING
   2     35     58       -5.30      1.51     40.26           RANKING
   2     36    365       -5.24      1.42     40.07           RANKING
   2     37     49       -5.24      1.45     40.48           RANKING
   2     38     72       -5.17      1.42     40.70           RANKING
   2     39    291       -5.15      1.65     40.56           RANKING
   2     40    277       -5.13      1.60     40.17           RANKING
   2     41    136       -5.10      1.42     40.49           RANKING
   2     42     88       -5.02      1.84     40.31           RANKING
   2     43    447       -4.90      1.47     40.49           RANKING
   2     44    474       -4.87      1.78     40.50           RANKING
   2     45    441       -4.82      1.67     40.30           RANKING
   2     46     36       -4.80      1.97     40.45           RANKING
   2     47    157       -4.77      1.46     39.79           RANKING
   2     48    208       -4.76      1.17     40.90           RANKING
   2     49    303       -4.66      1.66     40.48           RANKING
   2     50    177       -4.59      1.43     39.91           RANKING
   2     51    332       -4.53      1.20     40.31           RANKING
   2     52     97       -4.53      1.65     40.31           RANKING
   2     53    473       -4.48      1.14     40.13           RANKING
   2     54    267       -4.47      1.65     40.45           RANKING
   2     55    309       -4.27      1.95     40.03           RANKING
   2     56     26       -4.22      1.77     40.85           RANKING
   2     57    248       -4.19      1.40     39.86           RANKING
   3      1    400       -5.73      0.00     39.59           RANKING
   3      2    455       -5.26      1.95     40.77           RANKING
   3      3    351       -5.11      1.13     39.16           RANKING
   3      4     44       -4.97      1.37     39.68           RANKING
   3      5    116       -4.84      1.36     39.67           RANKING
   3      6     37       -4.77      1.34     39.95           RANKING
   3      7    373       -4.74      1.45     39.27           RANKING
   3      8    350       -4.42      1.79     40.41           RANKING
   3      9    362       -4.40      1.81     39.83           RANKING
   4      1    312       -5.71      0.00     41.55           RANKING
   4      2    229       -5.60      0.95     41.69           RANKING
   4      3    260       -5.53      0.84     41.82           RANKING
   4      4    490       -5.44      0.88     42.01           RANKING
   4      5    154       -5.42      0.87     41.09           RANKING
   4      6    319       -5.40      0.91     41.27           RANKING
   4      7    411       -5.37      1.89     40.23           RANKING
   4      8    201       -5.34      1.23     41.05           RANKING
   4      9    161       -5.31      1.78     40.25           RANKING
   4     10    404       -5.22      1.21     41.03           RANKING
   4     11    271       -5.20      1.85     40.39           RANKING
   4     12     96       -5.16      1.82     40.63           RANKING
   4     13     16       -5.09      1.49     40.77           RANKING
   4     14    144       -5.08      1.07     41.38           RANKING
   4     15    360       -5.00      0.92     41.23           RANKING
   4     16    251       -4.98      1.48     40.75           RANKING
   4     17    152       -4.98      1.63     41.89           RANKING
   4     18     87       -4.94      1.72     40.78           RANKING
   4     19    512       -4.91      1.60     40.76           RANKING
   4     20    188       -4.82      1.59     41.22           RANKING
   4     21    423       -4.82      1.22     41.24           RANKING
   4     22    222       -4.71      1.70     41.68           RANKING
   4     23     82       -4.48      1.65     41.57           RANKING
   4     24    469       -4.39      1.96     41.29           RANKING
   4     25    364       -4.37      1.42     40.87           RANKING
   4     26    413       -4.36      1.67     41.43           RANKING
   5      1    253       -5.70      0.00     41.10           RANKING
   5      2     68       -5.59      1.21     41.80           RANKING
   5      3    233       -5.51      0.91     41.30           RANKING
   5      4      6       -5.47      1.37     41.81           RANKING
   5      5    341       -5.40      0.99     41.45           RANKING
   5      6      2       -5.38      1.21     41.47           RANKING
   5      7     50       -5.02      1.69     42.00           RANKING
   5      8    246       -4.94      1.89     41.89           RANKING
   5      9    475       -4.79      1.90     40.92           RANKING
   5     10    409       -4.48      1.66     42.21           RANKING
   6      1     71       -5.29      0.00     39.48           RANKING
   6      2    345       -5.09      1.39     40.63           RANKING
   6      3    118       -5.03      1.23     40.08           RANKING
   6      4     42       -4.97      1.47     40.59           RANKING
   6      5    217       -4.95      0.56     39.55           RANKING
   6      6    244       -4.78      1.81     40.25           RANKING
   6      7     22       -4.76      0.73     39.97           RANKING
   6      8     28       -4.70      0.92     40.03           RANKING
   6      9     92       -4.55      1.00     39.69           RANKING
   6     10    438       -4.54      2.00     38.69           RANKING
   6     11     17       -4.46      1.99     38.64           RANKING
   6     12    486       -4.23      1.94     38.91           RANKING
   6     13    290       -3.90      1.94     39.35           RANKING
   6     14     65       -3.85      1.96     39.80           RANKING
   6     15    272       -3.79      1.88     38.97           RANKING
   6     16    425       -3.66      1.85     39.30           RANKING
   7      1    323       -5.11      0.00     33.25           RANKING
   7      2    485       -4.91      0.97     33.60           RANKING
   7      3    205       -4.75      1.02     33.33           RANKING
   7      4    300       -4.74      1.33     33.54           RANKING
   7      5    421       -4.66      1.43     33.90           RANKING
   7      6    471       -4.57      0.78     32.93           RANKING
   7      7     41       -4.47      0.93     33.82           RANKING
   7      8    296       -4.28      1.02     32.90           RANKING
   7      9    193       -4.23      1.47     32.89           RANKING
   7     10     35       -4.19      1.47     32.74           RANKING
   7     11     12       -3.91      1.23     32.42           RANKING
   7     12    439       -3.77      1.73     33.88           RANKING
   7     13    354       -3.76      1.82     33.94           RANKING
   8      1    185       -4.96      0.00     33.58           RANKING
   8      2    392       -4.88      0.62     33.23           RANKING
   8      3    401       -4.76      0.94     33.89           RANKING
   8      4     57       -4.76      0.71     33.95           RANKING
   8      5    257       -4.75      1.63     32.81           RANKING
   8      6    112       -4.72      1.09     33.41           RANKING
   8      7    212       -4.71      0.99     33.33           RANKING
   8      8    498       -4.70      1.39     32.54           RANKING
   8      9    385       -4.68      0.78     33.67           RANKING
   8     10    111       -4.64      1.74     33.01           RANKING
   8     11    227       -4.63      0.93     33.29           RANKING
   8     12    361       -4.61      1.18     34.24           RANKING
   8     13    235       -4.61      0.82     33.78           RANKING
   8     14    453       -4.52      1.18     33.05           RANKING
   8     15    214       -4.50      0.90     33.77           RANKING
   8     16    134       -4.48      1.20     33.72           RANKING
   8     17    132       -4.36      1.16     33.56           RANKING
   8     18     94       -4.15      1.93     31.73           RANKING
   8     19    394       -4.10      1.70     32.97           RANKING
   8     20    429       -4.05      1.51     33.39           RANKING
   8     21    109       -3.92      1.72     32.54           RANKING
   8     22    480       -3.91      1.71     32.36           RANKING
   9      1    125       -4.81      0.00     32.11           RANKING
   9      2    478       -4.38      1.11     31.57           RANKING
   9      3    462       -4.35      1.19     31.79           RANKING
   9      4    430       -4.28      1.19     31.39           RANKING
   9      5    198       -4.27      1.10     31.51           RANKING
   9      6     69       -4.13      1.22     31.68           RANKING
   9      7    104       -4.07      1.65     31.33           RANKING
   9      8    416       -4.07      1.69     31.33           RANKING
   9      9    352       -4.06      1.42     31.30           RANKING
   9     10    342       -3.99      1.67     31.14           RANKING
   9     11    183       -3.99      1.42     31.37           RANKING
   9     12    190       -3.95      1.27     31.37           RANKING
   9     13    176       -3.73      1.86     31.14           RANKING
   9     14    317       -3.68      1.55     30.89           RANKING
   9     15     20       -3.55      1.82     30.82           RANKING
  10      1    108       -4.78      0.00     38.12           RANKING
  10      2    150       -4.68      0.90     38.43           RANKING
  10      3    270       -4.67      0.49     38.25           RANKING
  10      4    159       -4.58      0.43     38.05           RANKING
  10      5    135       -4.55      0.87     38.40           RANKING
  10      6     84       -4.55      0.74     38.05           RANKING
  10      7    408       -4.49      0.71     38.24           RANKING
  10      8    261       -4.49      1.02     38.44           RANKING
  10      9    286       -4.47      0.46     37.87           RANKING
  10     10    204       -4.46      0.53     38.16           RANKING
  10     11    140       -4.45      1.67     38.30           RANKING
  10     12    505       -4.44      1.19     38.52           RANKING
  10     13     43       -4.37      1.97     38.71           RANKING
  10     14    356       -4.36      1.60     38.37           RANKING
  10     15    383       -4.36      1.65     38.36           RANKING
  10     16    237       -4.36      1.75     38.50           RANKING
  10     17    137       -4.35      1.28     38.87           RANKING
  10     18    470       -4.33      1.18     37.74           RANKING
  10     19    329       -4.32      1.44     38.47           RANKING
  10     20    175       -4.32      1.91     38.72           RANKING
  10     21    320       -4.32      1.85     37.90           RANKING
  10     22     55       -4.32      1.90     38.56           RANKING
  10     23     62       -4.30      1.16     38.38           RANKING
  10     24    472       -4.28      1.88     37.55           RANKING
  10     25    477       -4.28      1.82     38.63           RANKING
  10     26    259       -4.28      1.26     37.92           RANKING
  10     27    234       -4.27      1.40     38.26           RANKING
  10     28    239       -4.25      0.96     38.53           RANKING
  10     29    283       -4.24      1.79     38.73           RANKING
  10     30    306       -4.24      1.14     38.53           RANKING
  10     31     27       -4.23      1.37     38.21           RANKING
  10     32    166       -4.23      1.90     38.38           RANKING
  10     33     73       -4.23      1.33     38.57           RANKING
  10     34    133       -4.23      1.57     38.32           RANKING
  10     35    359       -4.23      1.77     38.26           RANKING
  10     36    426       -4.23      1.36     38.80           RANKING
  10     37    476       -4.21      1.23     37.98           RANKING
  10     38    442       -4.19      1.23     38.82           RANKING
  10     39    336       -4.17      1.93     37.72           RANKING
  10     40    211       -4.16      1.79     38.18           RANKING
  10     41    203       -4.15      1.91     38.45           RANKING
  10     42    156       -4.14      1.69     39.28           RANKING
  10     43    440       -4.14      1.77     37.99           RANKING
  10     44    464       -4.13      1.92     37.91           RANKING
  10     45    191       -4.12      1.96     37.97           RANKING
  10     46    347       -4.12      1.47     37.98           RANKING
  10     47    182       -4.10      1.76     38.17           RANKING
  10     48    491       -4.08      1.56     38.82           RANKING
  10     49    396       -4.03      1.86     38.73           RANKING
  10     50    102       -4.02      1.69     38.76           RANKING
  10     51    414       -4.02      1.98     39.57           RANKING
  10     52    346       -4.00      1.85     38.69           RANKING
  10     53    192       -4.00      1.60     39.21           RANKING
  10     54    487       -3.99      1.94     39.06           RANKING
  10     55    488       -3.98      1.93     37.45           RANKING
  10     56    511       -3.84      1.98     39.37           RANKING
  10     57    327       -3.75      1.70     38.62           RANKING
  10     58     38       -3.54      1.77     39.25           RANKING
  10     59     45       -3.54      1.74     39.34           RANKING
  10     60    224       -3.34      1.78     39.17           RANKING
  11      1    405       -4.73      0.00     40.40           RANKING
  11      2    313       -4.73      0.46     40.23           RANKING
  11      3    120       -4.57      1.02     39.91           RANKING
  11      4    168       -4.55      0.84     40.28           RANKING
  11      5    280       -4.53      1.54     39.97           RANKING
  11      6    282       -4.51      0.68     40.29           RANKING
  11      7    468       -4.50      1.02     40.31           RANKING
  11      8    302       -4.50      0.61     40.45           RANKING
  11      9    387       -4.50      0.97     40.15           RANKING
  11     10    457       -4.49      0.91     39.95           RANKING
  11     11      4       -4.49      0.97     39.94           RANKING
  11     12    101       -4.48      1.05     39.80           RANKING
  11     13    433       -4.47      1.15     40.01           RANKING
  11     14    238       -4.44      1.30     40.53           RANKING
  11     15    255       -4.42      0.74     40.42           RANKING
  11     16    305       -4.41      1.97     39.68           RANKING
  11     17     98       -4.41      1.92     39.76           RANKING
  11     18    206       -4.41      1.93     40.23           RANKING
  11     19    412       -4.41      1.37     39.66           RANKING
  11     20    307       -4.40      1.07     39.86           RANKING
  11     21    428       -4.40      0.63     40.14           RANKING
  11     22    196       -4.39      0.85     40.16           RANKING
  11     23    450       -4.38      1.82     40.59           RANKING
  11     24    128       -4.37      1.15     40.27           RANKING
  11     25     25       -4.36      1.53     39.94           RANKING
  11     26    454       -4.34      1.40     39.62           RANKING
  11     27    123       -4.34      1.01     40.25           RANKING
  11     28     53       -4.33      1.11     40.85           RANKING
  11     29    494       -4.32      1.69     40.25           RANKING
  11     30     66       -4.31      1.45     39.88           RANKING
  11     31    284       -4.30      1.11     40.71           RANKING
  11     32    131       -4.29      1.71     39.88           RANKING
  11     33    333       -4.27      1.55     40.21           RANKING
  11     34    187       -4.23      1.45     40.22           RANKING
  11     35    339       -4.22      1.34     40.51           RANKING
  11     36    372       -4.22      1.53     40.32           RANKING
  11     37    358       -4.22      1.09     40.01           RANKING
  11     38     19       -4.20      1.92     40.02           RANKING
  11     39    228       -4.20      1.55     40.86           RANKING
  11     40    495       -4.17      1.86     40.23           RANKING
  11     41     48       -4.14      1.80     39.79           RANKING
  11     42    370       -4.12      0.97     40.54           RANKING
  11     43    340       -4.11      1.09     40.62           RANKING
  11     44    314       -4.08      1.72     41.73           RANKING
  11     45    371       -4.07      1.85     39.70           RANKING
  11     46    500       -4.06      0.93     40.58           RANKING
  11     47    510       -4.01      1.30     40.08           RANKING
  11     48    285       -3.97      1.68     40.99           RANKING
  11     49    389       -3.96      1.18     39.71           RANKING
  11     50    236       -3.91      1.58     40.43           RANKING
  11     51    388       -3.90      1.87     39.87           RANKING
  11     52     47       -3.84      1.76     39.75           RANKING
  11     53    258       -3.84      1.98     41.08           RANKING
  11     54    344       -3.76      1.46     39.85           RANKING
  12      1    225       -4.57      0.00     31.67           RANKING
  12      2    299       -4.26      1.22     30.77           RANKING
  12      3    122       -4.09      1.72     31.90           RANKING
  12      4     67       -4.02      0.87     31.13           RANKING
  12      5    431       -3.82      1.35     30.70           RANKING
  12      6    141       -3.82      0.73     31.56           RANKING
  12      7    448       -3.17      1.98     31.67           RANKING
  13      1    262       -4.44      0.00     39.94           RANKING
  13      2    497       -4.37      0.63     39.65           RANKING
  13      3      1       -4.32      0.67     39.68           RANKING
  13      4    219       -4.25      0.75     39.96           RANKING
  13      5    456       -4.21      1.34     39.36           RANKING
  13      6    281       -4.15      1.72     38.99           RANKING
  13      7    417       -4.14      1.58     39.06           RANKING
  13      8    397       -3.71      1.64     38.95           RANKING
  13      9    451       -3.68      1.79     40.07           RANKING
  14      1    334       -4.44      0.00     32.06           RANKING
  14      2    375       -4.37      1.91     32.64           RANKING
  14      3    275       -4.30      1.25     32.18           RANKING
  14      4    481       -4.16      1.83     32.39           RANKING
  14      5    410       -4.13      1.77     31.78           RANKING
  14      6    232       -4.13      1.51     32.57           RANKING
  14      7    213       -4.12      1.75     32.38           RANKING
  14      8    241       -3.98      1.00     32.32           RANKING
  14      9    420       -3.97      1.71     32.48           RANKING
  14     10    170       -3.88      1.67     32.49           RANKING
  14     11    103       -3.79      1.39     31.95           RANKING
  14     12    220       -3.69      1.83     32.64           RANKING
  14     13    318       -3.66      1.94     32.12           RANKING
  15      1     78       -4.36      0.00     41.42           RANKING
  15      2     76       -4.15      1.79     40.25           RANKING
  15      3    142       -4.15      1.52     40.52           RANKING
  15      4    328       -4.14      1.53     39.98           RANKING
  15      5    489       -4.12      1.96     40.20           RANKING
  15      6    465       -4.12      0.76     41.37           RANKING
  15      7    424       -4.11      1.14     40.45           RANKING
  15      8    199       -4.10      1.91     39.65           RANKING
  15      9    110       -4.10      1.67     40.03           RANKING
  15     10    311       -4.10      1.95     40.27           RANKING
  15     11    292       -4.04      1.66     40.19           RANKING
  15     12    322       -4.04      1.08     41.37           RANKING
  15     13     40       -4.00      1.83     40.15           RANKING
  15     14    163       -3.98      1.43     40.54           RANKING
  15     15    366       -3.98      1.37     40.89           RANKING
  15     16    263       -3.97      1.58     39.99           RANKING
  15     17    398       -3.95      1.96     39.65           RANKING
  16      1    100       -4.34      0.00     38.94           RANKING
  16      2    218       -4.33      0.73     38.78           RANKING
  16      3    207       -4.32      1.04     38.99           RANKING
  16      4    268       -4.30      1.14     38.72           RANKING
  16      5    357       -4.29      1.66     38.41           RANKING
  16      6    368       -4.26      0.78     38.94           RANKING
  16      7    223       -4.23      0.87     39.35           RANKING
  16      8     79       -4.18      1.82     38.40           RANKING
  16      9    483       -4.18      0.79     39.23           RANKING
  16     10    382       -4.14      1.42     38.75           RANKING
  16     11     30       -4.14      1.51     38.66           RANKING
  16     12    143       -4.12      1.62     38.48           RANKING
  16     13    496       -4.12      0.81     38.84           RANKING
  16     14    348       -4.10      1.40     38.77           RANKING
  16     15    324       -4.09      1.34     39.03           RANKING
  16     16    180       -4.07      1.50     39.13           RANKING
  16     17    452       -4.02      1.48     38.43           RANKING
  16     18      8       -3.99      1.21     39.12           RANKING
  16     19     90       -3.96      1.67     39.84           RANKING
  16     20    276       -3.82      1.40     38.74           RANKING
  16     21    195       -3.60      1.47     39.40           RANKING
  16     22    148       -3.54      1.48     39.82           RANKING
  16     23    349       -3.51      1.87     39.71           RANKING
  17      1    492       -4.29      0.00     40.36           RANKING
  17      2     61       -4.14      0.65     40.74           RANKING
  17      3    384       -3.61      1.64     41.36           RANKING
  18      1    169       -4.25      0.00     41.22           RANKING
  18      2      7       -4.25      1.81     41.01           RANKING
  18      3    200       -4.18      1.71     40.80           RANKING
  18      4    209       -4.15      1.33     40.14           RANKING
  18      5    399       -3.99      1.22     40.72           RANKING
  18      6    466       -3.89      1.87     42.11           RANKING
  19      1    432       -4.24      0.00     39.04           RANKING
  19      2      9       -4.13      1.69     38.57           RANKING
  19      3    230       -4.11      1.46     38.53           RANKING
  19      4    509       -4.11      0.75     39.09           RANKING
  19      5    155       -4.08      1.62     38.52           RANKING
  19      6     86       -4.06      1.47     38.98           RANKING
  19      7    194       -4.05      1.53     38.96           RANKING
  19      8    443       -4.04      1.79     38.52           RANKING
  19      9     95       -4.04      1.51     38.42           RANKING
  19     10    158       -4.03      0.97     39.41           RANKING
  19     11    186       -4.01      1.80     39.52           RANKING
  19     12    178       -4.00      1.60     38.46           RANKING
  19     13    363       -3.96      1.78     38.22           RANKING
  19     14     77       -3.90      1.50     39.34           RANKING
  19     15    393       -3.88      1.74     38.36           RANKING
  19     16    250       -3.86      1.73     38.86           RANKING
  19     17    189       -3.86      1.58     38.84           RANKING
  19     18    308       -3.84      1.57     39.08           RANKING
  19     19    467       -3.80      1.72     39.80           RANKING
  19     20    240       -3.73      1.46     38.80           RANKING
  19     21    508       -3.72      1.51     39.19           RANKING
  19     22    479       -3.66      1.06     39.02           RANKING
  19     23     85       -3.63      1.99     38.78           RANKING
  19     24    162       -3.63      1.92     38.91           RANKING
  20      1    149       -4.20      0.00     38.12           RANKING
  20      2    145       -4.14      1.20     37.60           RANKING
  20      3     39       -4.13      1.37     37.57           RANKING
  20      4     15       -3.83      1.11     38.30           RANKING
  20      5      3       -3.82      1.70     38.77           RANKING
  20      6    119       -3.34      1.83     38.81           RANKING
  21      1     81       -4.19      0.00     31.39           RANKING
  21      2    507       -4.16      1.68     31.35           RANKING
  21      3    245       -4.12      1.11     31.67           RANKING
  21      4    167       -4.11      1.56     31.20           RANKING
  21      5     89       -4.08      1.47     31.13           RANKING
  21      6    106       -4.04      1.09     31.17           RANKING
  21      7    367       -4.03      0.83     31.21           RANKING
  21      8     52       -4.01      1.92     31.31           RANKING
  21      9     75       -3.98      1.58     30.99           RANKING
  21     10    460       -3.96      1.95     31.36           RANKING
  21     11    121       -3.95      1.42     30.96           RANKING
  21     12    117       -3.95      1.75     31.09           RANKING
  21     13    113       -3.93      1.87     31.10           RANKING
  21     14     14       -3.85      1.61     31.23           RANKING
  21     15     83       -3.84      1.85     30.99           RANKING
  21     16    266       -3.81      1.75     30.73           RANKING
  21     17    326       -3.78      1.69     32.05           RANKING
  21     18    422       -3.75      1.48     31.08           RANKING
  21     19    390       -3.71      1.26     31.21           RANKING
  21     20    252       -3.68      0.89     30.93           RANKING
  21     21     33       -3.51      1.38     31.57           RANKING
  21     22    386       -3.51      1.44     30.72           RANKING
  22      1    174       -4.16      0.00     38.27           RANKING
  22      2    402       -4.08      0.91     38.41           RANKING
  22      3    484       -3.83      1.56     38.39           RANKING
  22      4    295       -3.82      1.58     38.37           RANKING
  22      5    338       -3.76      1.92     38.35           RANKING
  22      6     74       -3.55      1.93     38.87           RANKING
  22      7    445       -3.54      1.84     39.08           RANKING
  23      1    269       -4.13      0.00     32.81           RANKING
  23      2    335       -4.03      0.74     32.74           RANKING
  23      3    316       -3.87      1.01     32.75           RANKING
  24      1    184       -4.11      0.00     30.68           RANKING
  24      2     93       -4.10      1.99     31.49           RANKING
  24      3    256       -4.01      2.00     31.18           RANKING
  24      4    499       -3.99      1.58     30.62           RANKING
  24      5    126       -3.97      0.68     30.51           RANKING
  24      6    164       -3.90      1.60     30.67           RANKING
  24      7    231       -3.78      1.32     30.92           RANKING
  24      8    415       -3.53      1.67     30.16           RANKING
  24      9    482       -3.44      1.65     30.26           RANKING
  24     10    247       -3.22      1.57     29.80           RANKING
  25      1    504       -4.08      0.00     30.77           RANKING
  25      2    434       -4.01      1.16     30.18           RANKING
  26      1    249       -3.99      0.00     31.63           RANKING
  27      1    337       -3.95      0.00     40.00           RANKING
  27      2    278       -3.92      1.37     39.13           RANKING
  27      3     56       -3.84      0.80     40.18           RANKING
  27      4    105       -3.77      1.13     39.64           RANKING
  27      5     32       -3.67      1.72     39.54           RANKING
  28      1    418       -3.93      0.00     32.87           RANKING
  28      2    331       -3.82      1.65     32.20           RANKING
  28      3    378       -3.76      1.64     31.83           RANKING
  28      4     64       -3.30      1.81     31.62           RANKING
  28      5    315       -3.29      1.31     33.34           RANKING
  29      1    173       -3.90      0.00     42.77           RANKING
  30      1    395       -3.90      0.00     31.11           RANKING
  30      2    107       -3.75      1.20     30.92           RANKING
  31      1    243       -3.89      0.00     31.09           RANKING
  31      2     11       -3.74      1.84     31.47           RANKING
  32      1    153       -3.87      0.00     31.82           RANKING
  32      2    160       -3.66      0.94     31.56           RANKING
  33      1    403       -3.83      0.00     30.17           RANKING
  33      2    151       -3.78      0.93     29.98           RANKING
  33      3    449       -3.74      1.16     30.19           RANKING
  33      4    321       -3.49      1.74     29.80           RANKING
  34      1     18       -3.81      0.00     29.67           RANKING
  34      2    355       -3.63      0.87     29.69           RANKING
  34      3    124       -3.57      1.85     29.16           RANKING
  35      1     63       -3.75      0.00     29.67           RANKING
  35      2    436       -3.58      1.47     29.53           RANKING
  35      3    115       -3.48      1.62     29.01           RANKING
  35      4    264       -3.48      0.95     29.61           RANKING
  35      5    147       -3.47      1.32     29.59           RANKING
  35      6     99       -3.38      1.59     29.09           RANKING
  35      7    369       -3.31      1.10     29.40           RANKING
  35      8    374       -3.20      1.33     29.68           RANKING
  36      1     29       -3.73      0.00     39.58           RANKING
  36      2    279       -3.69      1.11     39.57           RANKING
  36      3    501       -3.68      0.91     39.20           RANKING
  36      4    459       -3.64      0.92     39.70           RANKING
  36      5     13       -3.62      1.07     39.81           RANKING
  36      6    273       -3.51      1.75     39.25           RANKING
  36      7    376       -3.50      0.99     40.17           RANKING
  37      1     60       -3.72      0.00     33.14           RANKING
  37      2     34       -3.59      0.71     32.97           RANKING
  38      1    435       -3.72      0.00     31.17           RANKING
  38      2    458       -3.71      1.79     30.58           RANKING
  38      3    165       -3.46      1.48     30.51           RANKING
  39      1      5       -3.71      0.00     30.99           RANKING
  39      2    242       -3.43      1.93     29.74           RANKING
  40      1    297       -3.60      0.00     41.29           RANKING
  41      1    406       -3.56      0.00     30.56           RANKING
  42      1    179       -3.55      0.00     29.43           RANKING
  43      1    289       -3.54      0.00     40.98           RANKING
  43      2    138       -3.18      1.21     41.22           RANKING
  44      1    216       -3.43      0.00     29.74           RANKING
  44      2    265       -3.38      1.67     28.85           RANKING
  45      1    446       -3.39      0.00     31.24           RANKING
  46      1    503       -3.33      0.00     32.66           RANKING
  47      1    444       -3.17      0.00     37.68           RANKING
  48      1    171       -3.12      0.00     28.78           RANKING
  49      1     46       -3.10      0.00     36.21           RANKING
  50      1    287       -3.06      0.00     34.06           RANKING
  51      1    139       -3.04      0.00     30.88           RANKING
  52      1    381       -2.97      0.00     29.20           RANKING
  53      1    353       -2.91      0.00     37.57           RANKING

Run time 0.967 sec
Idle time 0.605 sec
