AutoDock-GPU version: pre-gridboxing-2025-09-02-2-g7a158b4220ccb7fae2f1ef28c415f546fce74080-dirty

**********************************************************
**    AutoDock-GPU AUTODOCKTOOLS-COMPATIBLE DLG FILE    **
**********************************************************


    DOCKING PARAMETERS
    ________________________


Ligand file:                               /home/taka/development/ultidock-gmx/docking/LIGANDS_DIR/escitalopram-e.pdbqt
Grid fld file:                             5i6x-edited.maps.fld

Random seed:                               1757959497, 58964
Number of runs:                            512
Number of energy evaluations:              139774
Number of generations:                     42000
Size of population:                        150
Rate of crossover:                         80.000000%
Tournament selection probability limit:    60.000000%
Rate of mutation:                          2.000000%
Maximal allowed delta movement:            +/- 6.000000A
Maximal allowed delta angle:               +/- 90.000000

Rate of local search:                      50.000000%
Maximal number of local search iterations: 300
Rho lower bound:                           0.010000
Spread of local search delta movement:     2.000000A
Spread of local search delta angle:        74.999999
Limit of consecutive successes/failures:   4

Handle symmetry during clustering:         YES
RMSD tolerance:                            2.000000A

Program call in command line was:          /home/taka/development/ultidock-gmx/docking/AUTODOCK_GPU_DIR/bin/autodock_gpu_cuda_64wi --lfile /home/taka/development/ultidock-gmx/docking/LIGANDS_DIR/escitalopram-e.pdbqt --ffile 5i6x-edited.maps.fld --nrun 512 --nev 5000000 --gbest 5 --xmloutput 1 --resnam /home/taka/development/ultidock-gmx/docking/DOCKING_DIR/S6__escitalopram-e_51e4bdd7 --devnum 1 --lsrat 50.0 --lsmet sw --initswgens 200 --stopstd 0.02 


    GRID PARAMETERS
    ________________________


Receptor name:                             /home/taka/development/ultidock-gmx/docking/MACRO_MOL_DIR/5i6x-edited
Number of grid points (x, y, z):           97, 97, 97
Grid center (x, y, z):                     -44.785000, -23.135000, 4.970000A
Grid size (x, y, z):                       36.000000, 36.000000, 36.000000A
Grid spacing:                              0.375000A


    LIGAND PARAMETERS
    ________________________


Ligand name:                               /home/taka/development/ultidock-gmx/docking/LIGANDS_DIR/escitalopram-e
Number of atoms:                           24
Number of rotatable bonds:                 5
Number of atom types:                      6


    DUMMY DATA (only for ADT-compatibility)
    ________________________


DPF> outlev 1
DPF> ga_run 512
DPF> fld 5i6x-edited.maps.fld
DPF> move /home/taka/development/ultidock-gmx/docking/LIGANDS_DIR/escitalopram-e.pdbqt


    COUNTER STATES
    ________________________


Number of energy evaluations performed:    153246
Number of generations used:                8


    INPUT LIGAND PDBQT FILE:
    ________________________


INPUT-LIGAND-PDBQT: REMARK  5 active torsions:
INPUT-LIGAND-PDBQT: REMARK  status: ('A' for Active; 'I' for Inactive)
INPUT-LIGAND-PDBQT: REMARK    1  A    between atoms: C_2  and  C_19 
INPUT-LIGAND-PDBQT: REMARK    2  A    between atoms: C_2  and  C_11 
INPUT-LIGAND-PDBQT: REMARK    3  A    between atoms: C_19  and  C_20 
INPUT-LIGAND-PDBQT: REMARK    4  A    between atoms: C_20  and  C_21 
INPUT-LIGAND-PDBQT: REMARK    5  A    between atoms: C_21  and  N_22 
INPUT-LIGAND-PDBQT: ROOT
INPUT-LIGAND-PDBQT: ATOM      1  O   UNL     1      -0.114  -0.606   1.632  0.00  0.00    -0.346 OA
INPUT-LIGAND-PDBQT: ATOM      2  C   UNL     1      -0.069  -0.235   0.217  0.00  0.00     0.130 C 
INPUT-LIGAND-PDBQT: ATOM      3  C   UNL     1       1.387  -0.336  -0.135  0.00  0.00     0.004 A 
INPUT-LIGAND-PDBQT: ATOM      4  C   UNL     1       2.097  -0.828   0.951  0.00  0.00     0.006 A 
INPUT-LIGAND-PDBQT: ATOM      5  C   UNL     1       1.173  -1.095   2.076  0.00  0.00     0.169 C 
INPUT-LIGAND-PDBQT: ATOM      6  C   UNL     1       2.030  -0.028  -1.325  0.00  0.00    -0.001 A 
INPUT-LIGAND-PDBQT: ATOM      7  C   UNL     1       3.466  -1.024   0.888  0.00  0.00     0.008 A 
INPUT-LIGAND-PDBQT: ATOM      8  C   UNL     1       3.411  -0.216  -1.403  0.00  0.00     0.010 A 
INPUT-LIGAND-PDBQT: ATOM      9  C   UNL     1       4.125  -0.712  -0.302  0.00  0.00     0.068 A 
INPUT-LIGAND-PDBQT: ATOM     10  N   UNL     1       6.687  -1.054  -0.482  0.00  0.00    -0.191 NA
INPUT-LIGAND-PDBQT: ATOM     11  C   UNL     1       5.538  -0.900  -0.401  0.00  0.00     0.101 C 
INPUT-LIGAND-PDBQT: ENDROOT
INPUT-LIGAND-PDBQT: BRANCH   2  12
INPUT-LIGAND-PDBQT: ATOM     12  C   UNL     1      -0.938  -1.212  -0.566  0.00  0.00     0.038 C 
INPUT-LIGAND-PDBQT: BRANCH  12  13
INPUT-LIGAND-PDBQT: ATOM     13  C   UNL     1      -2.364  -1.250  -0.020  0.00  0.00     0.038 C 
INPUT-LIGAND-PDBQT: BRANCH  13  14
INPUT-LIGAND-PDBQT: ATOM     14  C   UNL     1      -3.238  -2.204  -0.832  0.00  0.00     0.251 C 
INPUT-LIGAND-PDBQT: BRANCH  14  15
INPUT-LIGAND-PDBQT: ATOM     15  N   UNL     1      -4.589  -2.244  -0.285  0.00  0.00     0.141 N 
INPUT-LIGAND-PDBQT: ATOM     16  C   UNL     1      -5.439  -3.137  -1.074  0.00  0.00     0.285 C 
INPUT-LIGAND-PDBQT: ATOM     17  C   UNL     1      -4.566  -2.671   1.115  0.00  0.00     0.285 C 
INPUT-LIGAND-PDBQT: ENDBRANCH  14  15
INPUT-LIGAND-PDBQT: ENDBRANCH  13  14
INPUT-LIGAND-PDBQT: ENDBRANCH  12  13
INPUT-LIGAND-PDBQT: ENDBRANCH   2  12
INPUT-LIGAND-PDBQT: BRANCH   2  18
INPUT-LIGAND-PDBQT: ATOM     18  C   UNL     1      -0.597   1.157   0.114  0.00  0.00     0.006 A 
INPUT-LIGAND-PDBQT: ATOM     19  C   UNL     1      -1.137   1.610  -1.089  0.00  0.00     0.001 A 
INPUT-LIGAND-PDBQT: ATOM     20  C   UNL     1      -1.630   2.912  -1.184  0.00  0.00     0.029 A 
INPUT-LIGAND-PDBQT: ATOM     21  C   UNL     1      -1.583   3.758  -0.077  0.00  0.00     0.140 A 
INPUT-LIGAND-PDBQT: ATOM     22  C   UNL     1      -1.043   3.304   1.126  0.00  0.00     0.029 A 
INPUT-LIGAND-PDBQT: ATOM     23  F   UNL     1      -2.058   5.007  -0.168  0.00  0.00    -0.204 F 
INPUT-LIGAND-PDBQT: ATOM     24  C   UNL     1      -0.549   2.002   1.222  0.00  0.00     0.001 A 
INPUT-LIGAND-PDBQT: ENDBRANCH   2  18
INPUT-LIGAND-PDBQT: TORSDOF 5


    FINAL DOCKED STATE:
    ________________________


Run:   1 / 512
Time taken for this run:   0.002s

DOCKED: MODEL        1
DOCKED: USER    Run = 1
DOCKED: USER
DOCKED: USER    Estimated Free Energy of Binding    =  -4.21 kcal/mol  [=(1)+(2)+(3)-(4)]
DOCKED: USER
DOCKED: USER    (1) Final Intermolecular Energy     =  -5.70 kcal/mol
DOCKED: USER        vdW + Hbond + desolv Energy     =  -5.70 kcal/mol
DOCKED: USER        Electrostatic Energy            =  +0.00 kcal/mol
DOCKED: USER        Moving Ligand-Fixed Receptor    =  -5.70 kcal/mol
DOCKED: USER        Moving Ligand-Moving Receptor   =  +0.00 kcal/mol
DOCKED: USER    (2) Final Total Internal Energy     =  -1.19 kcal/mol
DOCKED: USER    (3) Torsional Free Energy           =  +1.49 kcal/mol
DOCKED: USER    (4) Unbound System's Energy         =  -1.19 kcal/mol
DOCKED: USER
DOCKED: USER
DOCKED: REMARK  5 active torsions:
DOCKED: REMARK  status: ('A' for Active; 'I' for Inactive)
DOCKED: REMARK    1  A    between atoms: C_2  and  C_19 
DOCKED: REMARK    2  A    between atoms: C_2  and  C_11 
DOCKED: REMARK    3  A    between atoms: C_19  and  C_20 
DOCKED: REMARK    4  A    between atoms: C_20  and  C_21 
DOCKED: REMARK    5  A    between atoms: C_21  and  N_22 
DOCKED: USER                              x       y       z     vdW  Elec       q    Type
DOCKED: USER                           _______ _______ _______ _____ _____    ______ ____
DOCKED: ROOT
DOCKED: ATOM      1  O   UNL     1     -54.759 -36.240   8.615 -0.08 -0.00    -0.346 OA 
DOCKED: ATOM      2  C   UNL     1     -55.785 -35.312   8.135 -0.12 +0.00    +0.130 C  
DOCKED: ATOM      3  C   UNL     1     -56.781 -36.201   7.449 -0.21 +0.00    +0.004 A  
DOCKED: ATOM      4  C   UNL     1     -56.416 -37.529   7.617 -0.25 +0.00    +0.006 A  
DOCKED: ATOM      5  C   UNL     1     -55.178 -37.611   8.425 -0.12 +0.00    +0.169 C  
DOCKED: ATOM      6  C   UNL     1     -57.926 -35.862   6.743 -0.27 -0.00    -0.001 A  
DOCKED: ATOM      7  C   UNL     1     -57.174 -38.558   7.085 -0.35 +0.00    +0.008 A  
DOCKED: ATOM      8  C   UNL     1     -58.698 -36.888   6.196 -0.31 +0.00    +0.010 A  
DOCKED: ATOM      9  C   UNL     1     -58.324 -38.229   6.367 -0.31 +0.00    +0.068 A  
DOCKED: ATOM     10  N   UNL     1     -59.784 -40.110   5.344 -2.56 -0.00    -0.191 NA 
DOCKED: ATOM     11  C   UNL     1     -59.129 -39.266   5.802 -0.36 +0.00    +0.101 C  
DOCKED: ENDROOT
DOCKED: BRANCH   2  12
DOCKED: ATOM     12  C   UNL     1     -56.371 -34.579   9.335 -0.05 +0.00    +0.038 C  
DOCKED: BRANCH  12  13
DOCKED: ATOM     13  C   UNL     1     -55.365 -34.492  10.482 -0.02 +0.00    +0.038 C  
DOCKED: BRANCH  13  14
DOCKED: ATOM     14  C   UNL     1     -54.724 -33.107  10.547 -0.00 +0.00    +0.251 C  
DOCKED: BRANCH  14  15
DOCKED: ATOM     15  N   UNL     1     -53.276 -33.212  10.407 -0.00 +0.00    +0.141 N  
DOCKED: ATOM     16  C   UNL     1     -52.904 -34.512   9.848 -0.01 +0.00    +0.285 C  
DOCKED: ATOM     17  C   UNL     1     -52.760 -32.131   9.566 -0.00 +0.00    +0.285 C  
DOCKED: ENDBRANCH  14  15
DOCKED: ENDBRANCH  13  14
DOCKED: ENDBRANCH  12  13
DOCKED: ENDBRANCH   2  12
DOCKED: BRANCH   2  18
DOCKED: ATOM     18  C   UNL     1     -55.112 -34.363   7.201 -0.13 +0.00    +0.006 A  
DOCKED: ATOM     19  C   UNL     1     -55.869 -33.439   6.481 -0.15 +0.00    +0.001 A  
DOCKED: ATOM     20  C   UNL     1     -55.238 -32.553   5.607 -0.12 +0.00    +0.029 A  
DOCKED: ATOM     21  C   UNL     1     -53.853 -32.591   5.455 -0.07 +0.00    +0.140 A  
DOCKED: ATOM     22  C   UNL     1     -53.096 -33.515   6.174 -0.09 +0.00    +0.029 A  
DOCKED: ATOM     23  F   UNL     1     -53.248 -31.738   4.617 -0.00 -0.00    -0.204 F  
DOCKED: ATOM     24  C   UNL     1     -53.726 -34.403   7.048 -0.11 +0.00    +0.001 A  
DOCKED: ENDBRANCH   2  18
DOCKED: TORSDOF 5
DOCKED: TER
DOCKED: ENDMDL
________________________________________________________________________________


    FINAL DOCKED STATE:
    ________________________


Run:   2 / 512
Time taken for this run:   0.002s

DOCKED: MODEL        2
DOCKED: USER    Run = 2
DOCKED: USER
DOCKED: USER    Estimated Free Energy of Binding    =  -4.78 kcal/mol  [=(1)+(2)+(3)-(4)]
DOCKED: USER
DOCKED: USER    (1) Final Intermolecular Energy     =  -6.28 kcal/mol
DOCKED: USER        vdW + Hbond + desolv Energy     =  -6.28 kcal/mol
DOCKED: USER        Electrostatic Energy            =  +0.00 kcal/mol
DOCKED: USER        Moving Ligand-Fixed Receptor    =  -6.28 kcal/mol
DOCKED: USER        Moving Ligand-Moving Receptor   =  +0.00 kcal/mol
DOCKED: USER    (2) Final Total Internal Energy     =  -0.82 kcal/mol
DOCKED: USER    (3) Torsional Free Energy           =  +1.49 kcal/mol
DOCKED: USER    (4) Unbound System's Energy         =  -0.82 kcal/mol
DOCKED: USER
DOCKED: USER
DOCKED: REMARK  5 active torsions:
DOCKED: REMARK  status: ('A' for Active; 'I' for Inactive)
DOCKED: REMARK    1  A    between atoms: C_2  and  C_19 
DOCKED: REMARK    2  A    between atoms: C_2  and  C_11 
DOCKED: REMARK    3  A    between atoms: C_19  and  C_20 
DOCKED: REMARK    4  A    between atoms: C_20  and  C_21 
DOCKED: REMARK    5  A    between atoms: C_21  and  N_22 
DOCKED: USER                              x       y       z     vdW  Elec       q    Type
DOCKED: USER                           _______ _______ _______ _____ _____    ______ ____
DOCKED: ROOT
DOCKED: ATOM      1  O   UNL     1     -60.999 -37.730   8.314 -0.00 -0.00    -0.346 OA 
DOCKED: ATOM      2  C   UNL     1     -59.798 -36.985   7.936 -0.12 +0.00    +0.130 C  
DOCKED: ATOM      3  C   UNL     1     -59.615 -37.311   6.482 -0.26 +0.00    +0.004 A  
DOCKED: ATOM      4  C   UNL     1     -60.678 -38.085   6.040 -0.29 +0.00    +0.006 A  
DOCKED: ATOM      5  C   UNL     1     -61.631 -38.310   7.150 -0.17 +0.00    +0.169 C  
DOCKED: ATOM      6  C   UNL     1     -58.595 -36.943   5.617 -0.33 -0.00    -0.001 A  
DOCKED: ATOM      7  C   UNL     1     -60.757 -38.518   4.728 -0.32 +0.00    +0.008 A  
DOCKED: ATOM      8  C   UNL     1     -58.657 -37.376   4.292 -0.22 +0.00    +0.010 A  
DOCKED: ATOM      9  C   UNL     1     -59.734 -38.159   3.850 -0.32 +0.00    +0.068 A  
DOCKED: ATOM     10  N   UNL     1     -59.822 -38.943   1.381 -2.97 -0.00    -0.191 NA 
DOCKED: ATOM     11  C   UNL     1     -59.782 -38.592   2.489 -0.27 +0.00    +0.101 C  
DOCKED: ENDROOT
DOCKED: BRANCH   2  12
DOCKED: ATOM     12  C   UNL     1     -60.051 -35.502   8.185 -0.13 +0.00    +0.038 C  
DOCKED: BRANCH  12  13
DOCKED: ATOM     13  C   UNL     1     -60.930 -35.286   9.415 -0.06 +0.00    +0.038 C  
DOCKED: BRANCH  13  14
DOCKED: ATOM     14  C   UNL     1     -60.601 -36.299  10.510 -0.01 +0.00    +0.251 C  
DOCKED: BRANCH  14  15
DOCKED: ATOM     15  N   UNL     1     -60.836 -35.717  11.826 -0.01 +0.00    +0.141 N  
DOCKED: ATOM     16  C   UNL     1     -59.624 -35.783  12.643 -0.00 +0.00    +0.285 C  
DOCKED: ATOM     17  C   UNL     1     -61.292 -34.332  11.704 +0.00 +0.00    +0.285 C  
DOCKED: ENDBRANCH  14  15
DOCKED: ENDBRANCH  13  14
DOCKED: ENDBRANCH  12  13
DOCKED: ENDBRANCH   2  12
DOCKED: BRANCH   2  18
DOCKED: ATOM     18  C   UNL     1     -58.683 -37.491   8.790 -0.12 +0.00    +0.006 A  
DOCKED: ATOM     19  C   UNL     1     -58.831 -38.687   9.491 -0.19 +0.00    +0.001 A  
DOCKED: ATOM     20  C   UNL     1     -57.788 -39.159  10.290 -0.22 +0.00    +0.029 A  
DOCKED: ATOM     21  C   UNL     1     -56.601 -38.434  10.386 -0.04 +0.00    +0.140 A  
DOCKED: ATOM     22  C   UNL     1     -56.454 -37.238   9.684 -0.12 +0.00    +0.029 A  
DOCKED: ATOM     23  F   UNL     1     -55.599 -38.888  11.151 +0.01 -0.00    -0.204 F  
DOCKED: ATOM     24  C   UNL     1     -57.497 -36.765   8.886 -0.12 +0.00    +0.001 A  
DOCKED: ENDBRANCH   2  18
DOCKED: TORSDOF 5
DOCKED: TER
DOCKED: ENDMDL
________________________________________________________________________________


    FINAL DOCKED STATE:
    ________________________


Run:   3 / 512
Time taken for this run:   0.002s

DOCKED: MODEL        3
DOCKED: USER    Run = 3
DOCKED: USER
DOCKED: USER    Estimated Free Energy of Binding    =  -3.87 kcal/mol  [=(1)+(2)+(3)-(4)]
DOCKED: USER
DOCKED: USER    (1) Final Intermolecular Energy     =  -5.36 kcal/mol
DOCKED: USER        vdW + Hbond + desolv Energy     =  -5.36 kcal/mol
DOCKED: USER        Electrostatic Energy            =  +0.00 kcal/mol
DOCKED: USER        Moving Ligand-Fixed Receptor    =  -5.36 kcal/mol
DOCKED: USER        Moving Ligand-Moving Receptor   =  +0.00 kcal/mol
DOCKED: USER    (2) Final Total Internal Energy     =  -1.48 kcal/mol
DOCKED: USER    (3) Torsional Free Energy           =  +1.49 kcal/mol
DOCKED: USER    (4) Unbound System's Energy         =  -1.48 kcal/mol
DOCKED: USER
DOCKED: USER
DOCKED: REMARK  5 active torsions:
DOCKED: REMARK  status: ('A' for Active; 'I' for Inactive)
DOCKED: REMARK    1  A    between atoms: C_2  and  C_19 
DOCKED: REMARK    2  A    between atoms: C_2  and  C_11 
DOCKED: REMARK    3  A    between atoms: C_19  and  C_20 
DOCKED: REMARK    4  A    between atoms: C_20  and  C_21 
DOCKED: REMARK    5  A    between atoms: C_21  and  N_22 
DOCKED: USER                              x       y       z     vdW  Elec       q    Type
DOCKED: USER                           _______ _______ _______ _____ _____    ______ ____
DOCKED: ROOT
DOCKED: ATOM      1  O   UNL     1     -57.959 -34.571   9.222 -0.00 -0.00    -0.346 OA 
DOCKED: ATOM      2  C   UNL     1     -57.774 -34.217   7.814 -0.11 +0.00    +0.130 C  
DOCKED: ATOM      3  C   UNL     1     -58.078 -35.491   7.080 -0.23 +0.00    +0.004 A  
DOCKED: ATOM      4  C   UNL     1     -58.508 -36.457   7.979 -0.14 +0.00    +0.006 A  
DOCKED: ATOM      5  C   UNL     1     -58.529 -35.895   9.348 -0.04 +0.00    +0.169 C  
DOCKED: ATOM      6  C   UNL     1     -57.993 -35.769   5.723 +0.02 -0.00    -0.001 A  
DOCKED: ATOM      7  C   UNL     1     -58.861 -37.727   7.557 -0.20 +0.00    +0.008 A  
DOCKED: ATOM      8  C   UNL     1     -58.341 -37.047   5.283 -0.31 +0.00    +0.010 A  
DOCKED: ATOM      9  C   UNL     1     -58.773 -38.021   6.196 -0.29 +0.00    +0.068 A  
DOCKED: ATOM     10  N   UNL     1     -59.417 -40.382   5.345 -2.62 -0.00    -0.191 NA 
DOCKED: ATOM     11  C   UNL     1     -59.128 -39.323   5.727 -0.34 +0.00    +0.101 C  
DOCKED: ENDROOT
DOCKED: BRANCH   2  12
DOCKED: ATOM     12  C   UNL     1     -58.738 -33.088   7.469 -0.14 +0.00    +0.038 C  
DOCKED: BRANCH  12  13
DOCKED: ATOM     13  C   UNL     1     -60.022 -33.182   8.291 -0.09 +0.00    +0.038 C  
DOCKED: BRANCH  13  14
DOCKED: ATOM     14  C   UNL     1     -61.163 -33.768   7.462 -0.14 +0.00    +0.251 C  
DOCKED: BRANCH  14  15
DOCKED: ATOM     15  N   UNL     1     -61.393 -35.161   7.828 -0.11 +0.00    +0.141 N  
DOCKED: ATOM     16  C   UNL     1     -62.037 -35.249   9.140 -0.01 +0.00    +0.285 C  
DOCKED: ATOM     17  C   UNL     1     -62.208 -35.833   6.816 -0.13 +0.00    +0.285 C  
DOCKED: ENDBRANCH  14  15
DOCKED: ENDBRANCH  13  14
DOCKED: ENDBRANCH  12  13
DOCKED: ENDBRANCH   2  12
DOCKED: BRANCH   2  18
DOCKED: ATOM     18  C   UNL     1     -56.355 -33.781   7.657 -0.11 +0.00    +0.006 A  
DOCKED: ATOM     19  C   UNL     1     -56.051 -32.424   7.559 -0.06 +0.00    +0.001 A  
DOCKED: ATOM     20  C   UNL     1     -54.724 -32.017   7.412 -0.03 +0.00    +0.029 A  
DOCKED: ATOM     21  C   UNL     1     -53.705 -32.967   7.364 -0.04 +0.00    +0.140 A  
DOCKED: ATOM     22  C   UNL     1     -54.010 -34.324   7.463 -0.10 +0.00    +0.029 A  
DOCKED: ATOM     23  F   UNL     1     -52.431 -32.576   7.225 -0.00 -0.00    -0.204 F  
DOCKED: ATOM     24  C   UNL     1     -55.337 -34.732   7.609 -0.13 +0.00    +0.001 A  
DOCKED: ENDBRANCH   2  18
DOCKED: TORSDOF 5
DOCKED: TER
DOCKED: ENDMDL
________________________________________________________________________________


    FINAL DOCKED STATE:
    ________________________


Run:   4 / 512
Time taken for this run:   0.002s

DOCKED: MODEL        4
DOCKED: USER    Run = 4
DOCKED: USER
DOCKED: USER    Estimated Free Energy of Binding    =  -4.05 kcal/mol  [=(1)+(2)+(3)-(4)]
DOCKED: USER
DOCKED: USER    (1) Final Intermolecular Energy     =  -5.54 kcal/mol
DOCKED: USER        vdW + Hbond + desolv Energy     =  -5.54 kcal/mol
DOCKED: USER        Electrostatic Energy            =  +0.00 kcal/mol
DOCKED: USER        Moving Ligand-Fixed Receptor    =  -5.54 kcal/mol
DOCKED: USER        Moving Ligand-Moving Receptor   =  +0.00 kcal/mol
DOCKED: USER    (2) Final Total Internal Energy     =  -1.25 kcal/mol
DOCKED: USER    (3) Torsional Free Energy           =  +1.49 kcal/mol
DOCKED: USER    (4) Unbound System's Energy         =  -1.25 kcal/mol
DOCKED: USER
DOCKED: USER
DOCKED: REMARK  5 active torsions:
DOCKED: REMARK  status: ('A' for Active; 'I' for Inactive)
DOCKED: REMARK    1  A    between atoms: C_2  and  C_19 
DOCKED: REMARK    2  A    between atoms: C_2  and  C_11 
DOCKED: REMARK    3  A    between atoms: C_19  and  C_20 
DOCKED: REMARK    4  A    between atoms: C_20  and  C_21 
DOCKED: REMARK    5  A    between atoms: C_21  and  N_22 
DOCKED: USER                              x       y       z     vdW  Elec       q    Type
DOCKED: USER                           _______ _______ _______ _____ _____    ______ ____
DOCKED: ROOT
DOCKED: ATOM      1  O   UNL     1     -59.463 -33.476   7.143 -0.10 -0.00    -0.346 OA 
DOCKED: ATOM      2  C   UNL     1     -58.075 -33.936   7.193 -0.16 +0.00    +0.130 C  
DOCKED: ATOM      3  C   UNL     1     -58.164 -35.389   6.824 -0.24 +0.00    +0.004 A  
DOCKED: ATOM      4  C   UNL     1     -59.471 -35.705   6.485 -0.22 +0.00    +0.006 A  
DOCKED: ATOM      5  C   UNL     1     -60.324 -34.500   6.591 -0.14 +0.00    +0.169 C  
DOCKED: ATOM      6  C   UNL     1     -57.165 -36.350   6.782 -0.24 -0.00    -0.001 A  
DOCKED: ATOM      7  C   UNL     1     -59.825 -36.986   6.098 -0.24 +0.00    +0.008 A  
DOCKED: ATOM      8  C   UNL     1     -57.506 -37.648   6.397 -0.31 +0.00    +0.010 A  
DOCKED: ATOM      9  C   UNL     1     -58.830 -37.964   6.056 -0.30 +0.00    +0.068 A  
DOCKED: ATOM     10  N   UNL     1     -59.430 -40.381   5.342 -2.61 -0.00    -0.191 NA 
DOCKED: ATOM     11  C   UNL     1     -59.161 -39.297   5.663 -0.37 +0.00    +0.101 C  
DOCKED: ENDROOT
DOCKED: BRANCH   2  12
DOCKED: ATOM     12  C   UNL     1     -57.259 -33.120   6.198 -0.09 +0.00    +0.038 C  
DOCKED: BRANCH  12  13
DOCKED: ATOM     13  C   UNL     1     -55.840 -32.876   6.707 -0.12 +0.00    +0.038 C  
DOCKED: BRANCH  13  14
DOCKED: ATOM     14  C   UNL     1     -54.934 -34.067   6.400 -0.09 +0.00    +0.251 C  
DOCKED: BRANCH  14  15
DOCKED: ATOM     15  N   UNL     1     -53.796 -34.086   7.311 -0.08 +0.00    +0.141 N  
DOCKED: ATOM     16  C   UNL     1     -53.936 -33.049   8.334 -0.02 +0.00    +0.285 C  
DOCKED: ATOM     17  C   UNL     1     -53.660 -35.402   7.938 -0.07 +0.00    +0.285 C  
DOCKED: ENDBRANCH  14  15
DOCKED: ENDBRANCH  13  14
DOCKED: ENDBRANCH  12  13
DOCKED: ENDBRANCH   2  12
DOCKED: BRANCH   2  18
DOCKED: ATOM     18  C   UNL     1     -57.594 -33.719   8.589 -0.06 +0.00    +0.006 A  
DOCKED: ATOM     19  C   UNL     1     -57.002 -34.767   9.293 -0.05 +0.00    +0.001 A  
DOCKED: ATOM     20  C   UNL     1     -56.553 -34.563  10.599 -0.01 +0.00    +0.029 A  
DOCKED: ATOM     21  C   UNL     1     -56.696 -33.312  11.197 -0.00 +0.00    +0.140 A  
DOCKED: ATOM     22  C   UNL     1     -57.287 -32.264  10.492 -0.00 +0.00    +0.029 A  
DOCKED: ATOM     23  F   UNL     1     -56.263 -33.116  12.450 -0.00 -0.00    -0.204 F  
DOCKED: ATOM     24  C   UNL     1     -57.737 -32.468   9.187 -0.02 +0.00    +0.001 A  
DOCKED: ENDBRANCH   2  18
DOCKED: TORSDOF 5
DOCKED: TER
DOCKED: ENDMDL
________________________________________________________________________________


    FINAL DOCKED STATE:
    ________________________


Run:   5 / 512
Time taken for this run:   0.002s

DOCKED: MODEL        5
DOCKED: USER    Run = 5
DOCKED: USER
DOCKED: USER    Estimated Free Energy of Binding    =  -4.99 kcal/mol  [=(1)+(2)+(3)-(4)]
DOCKED: USER
DOCKED: USER    (1) Final Intermolecular Energy     =  -6.49 kcal/mol
DOCKED: USER        vdW + Hbond + desolv Energy     =  -6.49 kcal/mol
DOCKED: USER        Electrostatic Energy            =  +0.00 kcal/mol
DOCKED: USER        Moving Ligand-Fixed Receptor    =  -6.49 kcal/mol
DOCKED: USER        Moving Ligand-Moving Receptor   =  +0.00 kcal/mol
DOCKED: USER    (2) Final Total Internal Energy     =  -0.84 kcal/mol
DOCKED: USER    (3) Torsional Free Energy           =  +1.49 kcal/mol
DOCKED: USER    (4) Unbound System's Energy         =  -0.84 kcal/mol
DOCKED: USER
DOCKED: USER
DOCKED: REMARK  5 active torsions:
DOCKED: REMARK  status: ('A' for Active; 'I' for Inactive)
DOCKED: REMARK    1  A    between atoms: C_2  and  C_19 
DOCKED: REMARK    2  A    between atoms: C_2  and  C_11 
DOCKED: REMARK    3  A    between atoms: C_19  and  C_20 
DOCKED: REMARK    4  A    between atoms: C_20  and  C_21 
DOCKED: REMARK    5  A    between atoms: C_21  and  N_22 
DOCKED: USER                              x       y       z     vdW  Elec       q    Type
DOCKED: USER                           _______ _______ _______ _____ _____    ______ ____
DOCKED: ROOT
DOCKED: ATOM      1  O   UNL     1     -60.972 -38.506   8.931 -0.03 -0.00    -0.346 OA 
DOCKED: ATOM      2  C   UNL     1     -59.898 -37.561   8.621 -0.10 +0.00    +0.130 C  
DOCKED: ATOM      3  C   UNL     1     -59.704 -37.710   7.140 -0.21 +0.00    +0.004 A  
DOCKED: ATOM      4  C   UNL     1     -60.655 -38.582   6.629 -0.26 +0.00    +0.006 A  
DOCKED: ATOM      5  C   UNL     1     -61.541 -39.053   7.718 -0.15 +0.00    +0.169 C  
DOCKED: ATOM      6  C   UNL     1     -58.766 -37.114   6.309 -0.31 -0.00    -0.001 A  
DOCKED: ATOM      7  C   UNL     1     -60.701 -38.890   5.280 -0.36 +0.00    +0.008 A  
DOCKED: ATOM      8  C   UNL     1     -58.796 -37.418   4.947 -0.34 +0.00    +0.010 A  
DOCKED: ATOM      9  C   UNL     1     -59.759 -38.301   4.435 -0.35 +0.00    +0.068 A  
DOCKED: ATOM     10  N   UNL     1     -59.790 -38.839   1.901 -2.64 -0.00    -0.191 NA 
DOCKED: ATOM     11  C   UNL     1     -59.776 -38.598   3.038 -0.31 +0.00    +0.101 C  
DOCKED: ENDROOT
DOCKED: BRANCH   2  12
DOCKED: ATOM     12  C   UNL     1     -60.356 -36.163   9.021 -0.08 +0.00    +0.038 C  
DOCKED: BRANCH  12  13
DOCKED: ATOM     13  C   UNL     1     -60.057 -35.144   7.923 -0.15 +0.00    +0.038 C  
DOCKED: BRANCH  13  14
DOCKED: ATOM     14  C   UNL     1     -61.186 -34.122   7.800 -0.10 +0.00    +0.251 C  
DOCKED: BRANCH  14  15
DOCKED: ATOM     15  N   UNL     1     -60.684 -32.877   7.230 -0.15 +0.00    +0.141 N  
DOCKED: ATOM     16  C   UNL     1     -59.473 -33.121   6.444 -0.14 +0.00    +0.285 C  
DOCKED: ATOM     17  C   UNL     1     -61.708 -32.239   6.401 -0.11 +0.00    +0.285 C  
DOCKED: ENDBRANCH  14  15
DOCKED: ENDBRANCH  13  14
DOCKED: ENDBRANCH  12  13
DOCKED: ENDBRANCH   2  12
DOCKED: BRANCH   2  18
DOCKED: ATOM     18  C   UNL     1     -58.704 -37.982   9.410 -0.13 +0.00    +0.006 A  
DOCKED: ATOM     19  C   UNL     1     -58.491 -39.333   9.683 -0.23 +0.00    +0.001 A  
DOCKED: ATOM     20  C   UNL     1     -57.374 -39.726  10.421 -0.11 +0.00    +0.029 A  
DOCKED: ATOM     21  C   UNL     1     -56.473 -38.769  10.885 -0.02 +0.00    +0.140 A  
DOCKED: ATOM     22  C   UNL     1     -56.686 -37.418  10.612 -0.09 +0.00    +0.029 A  
DOCKED: ATOM     23  F   UNL     1     -55.400 -39.147  11.592 -0.02 -0.00    -0.204 F  
DOCKED: ATOM     24  C   UNL     1     -57.804 -37.024   9.873 -0.08 +0.00    +0.001 A  
DOCKED: ENDBRANCH   2  18
DOCKED: TORSDOF 5
DOCKED: TER
DOCKED: ENDMDL
________________________________________________________________________________


    FINAL DOCKED STATE:
    ________________________


Run:   6 / 512
Time taken for this run:   0.002s

DOCKED: MODEL        6
DOCKED: USER    Run = 6
DOCKED: USER
DOCKED: USER    Estimated Free Energy of Binding    =  -4.70 kcal/mol  [=(1)+(2)+(3)-(4)]
DOCKED: USER
DOCKED: USER    (1) Final Intermolecular Energy     =  -6.19 kcal/mol
DOCKED: USER        vdW + Hbond + desolv Energy     =  -6.19 kcal/mol
DOCKED: USER        Electrostatic Energy            =  +0.00 kcal/mol
DOCKED: USER        Moving Ligand-Fixed Receptor    =  -6.19 kcal/mol
DOCKED: USER        Moving Ligand-Moving Receptor   =  +0.00 kcal/mol
DOCKED: USER    (2) Final Total Internal Energy     =  -1.25 kcal/mol
DOCKED: USER    (3) Torsional Free Energy           =  +1.49 kcal/mol
DOCKED: USER    (4) Unbound System's Energy         =  -1.25 kcal/mol
DOCKED: USER
DOCKED: USER
DOCKED: REMARK  5 active torsions:
DOCKED: REMARK  status: ('A' for Active; 'I' for Inactive)
DOCKED: REMARK    1  A    between atoms: C_2  and  C_19 
DOCKED: REMARK    2  A    between atoms: C_2  and  C_11 
DOCKED: REMARK    3  A    between atoms: C_19  and  C_20 
DOCKED: REMARK    4  A    between atoms: C_20  and  C_21 
DOCKED: REMARK    5  A    between atoms: C_21  and  N_22 
DOCKED: USER                              x       y       z     vdW  Elec       q    Type
DOCKED: USER                           _______ _______ _______ _____ _____    ______ ____
DOCKED: ROOT
DOCKED: ATOM      1  O   UNL     1     -56.160 -30.261   1.285 -0.10 -0.00    -0.346 OA 
DOCKED: ATOM      2  C   UNL     1     -54.811 -30.081   0.747 -0.18 +0.00    +0.130 C  
DOCKED: ATOM      3  C   UNL     1     -55.037 -29.389  -0.566 -0.25 +0.00    +0.004 A  
DOCKED: ATOM      4  C   UNL     1     -56.386 -29.099  -0.715 -0.24 +0.00    +0.006 A  
DOCKED: ATOM      5  C   UNL     1     -57.133 -29.561   0.476 +0.07 +0.00    +0.169 C  
DOCKED: ATOM      6  C   UNL     1     -54.121 -29.033  -1.545 -0.22 -0.00    -0.001 A  
DOCKED: ATOM      7  C   UNL     1     -56.864 -28.452  -1.842 -0.24 +0.00    +0.008 A  
DOCKED: ATOM      8  C   UNL     1     -54.588 -28.385  -2.689 -0.28 +0.00    +0.010 A  
DOCKED: ATOM      9  C   UNL     1     -55.953 -28.095  -2.836 -0.30 +0.00    +0.068 A  
DOCKED: ATOM     10  N   UNL     1     -56.786 -26.885  -4.971 -2.35 -0.00    -0.191 NA 
DOCKED: ATOM     11  C   UNL     1     -56.412 -27.429  -4.014 -0.36 +0.00    +0.101 C  
DOCKED: ENDROOT
DOCKED: BRANCH   2  12
DOCKED: ATOM     12  C   UNL     1     -54.007 -29.239   1.731 -0.18 +0.00    +0.038 C  
DOCKED: BRANCH  12  13
DOCKED: ATOM     13  C   UNL     1     -54.716 -29.130   3.079 -0.17 +0.00    +0.038 C  
DOCKED: BRANCH  13  14
DOCKED: ATOM     14  C   UNL     1     -55.742 -27.998   3.071 -0.13 +0.00    +0.251 C  
DOCKED: BRANCH  14  15
DOCKED: ATOM     15  N   UNL     1     -56.871 -28.331   3.931 -0.12 +0.00    +0.141 N  
DOCKED: ATOM     16  C   UNL     1     -58.104 -27.726   3.423 -0.14 +0.00    +0.285 C  
DOCKED: ATOM     17  C   UNL     1     -57.026 -29.782   4.041 -0.08 +0.00    +0.285 C  
DOCKED: ENDBRANCH  14  15
DOCKED: ENDBRANCH  13  14
DOCKED: ENDBRANCH  12  13
DOCKED: ENDBRANCH   2  12
DOCKED: BRANCH   2  18
DOCKED: ATOM     18  C   UNL     1     -54.217 -31.441   0.592 -0.13 +0.00    +0.006 A  
DOCKED: ATOM     19  C   UNL     1     -54.152 -32.034  -0.668 -0.19 +0.00    +0.001 A  
DOCKED: ATOM     20  C   UNL     1     -53.597 -33.306  -0.811 -0.15 +0.00    +0.029 A  
DOCKED: ATOM     21  C   UNL     1     -53.108 -33.983   0.305 -0.15 +0.00    +0.140 A  
DOCKED: ATOM     22  C   UNL     1     -53.174 -33.390   1.565 -0.11 +0.00    +0.029 A  
DOCKED: ATOM     23  F   UNL     1     -52.574 -35.204   0.167 -0.07 -0.00    -0.204 F  
DOCKED: ATOM     24  C   UNL     1     -53.729 -32.117   1.710 -0.09 +0.00    +0.001 A  
DOCKED: ENDBRANCH   2  18
DOCKED: TORSDOF 5
DOCKED: TER
DOCKED: ENDMDL
________________________________________________________________________________


    FINAL DOCKED STATE:
    ________________________


Run:   7 / 512
Time taken for this run:   0.002s

DOCKED: MODEL        7
DOCKED: USER    Run = 7
DOCKED: USER
DOCKED: USER    Estimated Free Energy of Binding    =  -3.73 kcal/mol  [=(1)+(2)+(3)-(4)]
DOCKED: USER
DOCKED: USER    (1) Final Intermolecular Energy     =  -5.22 kcal/mol
DOCKED: USER        vdW + Hbond + desolv Energy     =  -5.22 kcal/mol
DOCKED: USER        Electrostatic Energy            =  +0.00 kcal/mol
DOCKED: USER        Moving Ligand-Fixed Receptor    =  -5.22 kcal/mol
DOCKED: USER        Moving Ligand-Moving Receptor   =  +0.00 kcal/mol
DOCKED: USER    (2) Final Total Internal Energy     =  -1.60 kcal/mol
DOCKED: USER    (3) Torsional Free Energy           =  +1.49 kcal/mol
DOCKED: USER    (4) Unbound System's Energy         =  -1.60 kcal/mol
DOCKED: USER
DOCKED: USER
DOCKED: REMARK  5 active torsions:
DOCKED: REMARK  status: ('A' for Active; 'I' for Inactive)
DOCKED: REMARK    1  A    between atoms: C_2  and  C_19 
DOCKED: REMARK    2  A    between atoms: C_2  and  C_11 
DOCKED: REMARK    3  A    between atoms: C_19  and  C_20 
DOCKED: REMARK    4  A    between atoms: C_20  and  C_21 
DOCKED: REMARK    5  A    between atoms: C_21  and  N_22 
DOCKED: USER                              x       y       z     vdW  Elec       q    Type
DOCKED: USER                           _______ _______ _______ _____ _____    ______ ____
DOCKED: ROOT
DOCKED: ATOM      1  O   UNL     1     -53.966 -30.053   0.710 -0.05 -0.00    -0.346 OA 
DOCKED: ATOM      2  C   UNL     1     -55.329 -30.130   0.182 -0.24 +0.00    +0.130 C  
DOCKED: ATOM      3  C   UNL     1     -55.326 -29.158  -0.962 -0.29 +0.00    +0.004 A  
DOCKED: ATOM      4  C   UNL     1     -54.046 -28.653  -1.143 -0.13 +0.00    +0.006 A  
DOCKED: ATOM      5  C   UNL     1     -53.124 -29.255  -0.154 -0.12 +0.00    +0.169 C  
DOCKED: ATOM      6  C   UNL     1     -56.370 -28.761  -1.785 -0.30 -0.00    -0.001 A  
DOCKED: ATOM      7  C   UNL     1     -53.767 -27.736  -2.142 -0.20 +0.00    +0.008 A  
DOCKED: ATOM      8  C   UNL     1     -56.106 -27.834  -2.795 -0.40 +0.00    +0.010 A  
DOCKED: ATOM      9  C   UNL     1     -54.811 -27.325  -2.973 -0.30 +0.00    +0.068 A  
DOCKED: ATOM     10  N   UNL     1     -54.354 -25.609  -4.860 -0.83 -0.00    -0.191 NA 
DOCKED: ATOM     11  C   UNL     1     -54.559 -26.378  -4.013 -0.36 +0.00    +0.101 C  
DOCKED: ENDROOT
DOCKED: BRANCH   2  12
DOCKED: ATOM     12  C   UNL     1     -55.595 -31.564  -0.258 -0.10 +0.00    +0.038 C  
DOCKED: BRANCH  12  13
DOCKED: ATOM     13  C   UNL     1     -54.527 -32.518   0.273 -0.21 +0.00    +0.038 C  
DOCKED: BRANCH  13  14
DOCKED: ATOM     14  C   UNL     1     -54.854 -32.972   1.694 -0.14 +0.00    +0.251 C  
DOCKED: BRANCH  14  15
DOCKED: ATOM     15  N   UNL     1     -54.259 -32.063   2.667 -0.08 +0.00    +0.141 N  
DOCKED: ATOM     16  C   UNL     1     -54.909 -32.206   3.971 -0.07 +0.00    +0.285 C  
DOCKED: ATOM     17  C   UNL     1     -52.821 -32.306   2.787 -0.03 +0.00    +0.285 C  
DOCKED: ENDBRANCH  14  15
DOCKED: ENDBRANCH  13  14
DOCKED: ENDBRANCH  12  13
DOCKED: ENDBRANCH   2  12
DOCKED: BRANCH   2  18
DOCKED: ATOM     18  C   UNL     1     -56.248 -29.726   1.286 -0.28 +0.00    +0.006 A  
DOCKED: ATOM     19  C   UNL     1     -55.922 -28.644   2.103 -0.19 +0.00    +0.001 A  
DOCKED: ATOM     20  C   UNL     1     -56.782 -28.267   3.135 -0.23 +0.00    +0.029 A  
DOCKED: ATOM     21  C   UNL     1     -57.966 -28.972   3.348 -0.14 +0.00    +0.140 A  
DOCKED: ATOM     22  C   UNL     1     -58.291 -30.054   2.530 -0.26 +0.00    +0.029 A  
DOCKED: ATOM     23  F   UNL     1     -58.792 -28.609   4.338 +0.00 -0.00    -0.204 F  
DOCKED: ATOM     24  C   UNL     1     -57.431 -30.432   1.498 -0.28 +0.00    +0.001 A  
DOCKED: ENDBRANCH   2  18
DOCKED: TORSDOF 5
DOCKED: TER
DOCKED: ENDMDL
________________________________________________________________________________


    FINAL DOCKED STATE:
    ________________________


Run:   8 / 512
Time taken for this run:   0.002s

DOCKED: MODEL        8
DOCKED: USER    Run = 8
DOCKED: USER
DOCKED: USER    Estimated Free Energy of Binding    =  -4.38 kcal/mol  [=(1)+(2)+(3)-(4)]
DOCKED: USER
DOCKED: USER    (1) Final Intermolecular Energy     =  -5.87 kcal/mol
DOCKED: USER        vdW + Hbond + desolv Energy     =  -5.87 kcal/mol
DOCKED: USER        Electrostatic Energy            =  +0.00 kcal/mol
DOCKED: USER        Moving Ligand-Fixed Receptor    =  -5.87 kcal/mol
DOCKED: USER        Moving Ligand-Moving Receptor   =  +0.00 kcal/mol
DOCKED: USER    (2) Final Total Internal Energy     =  -1.27 kcal/mol
DOCKED: USER    (3) Torsional Free Energy           =  +1.49 kcal/mol
DOCKED: USER    (4) Unbound System's Energy         =  -1.27 kcal/mol
DOCKED: USER
DOCKED: USER
DOCKED: REMARK  5 active torsions:
DOCKED: REMARK  status: ('A' for Active; 'I' for Inactive)
DOCKED: REMARK    1  A    between atoms: C_2  and  C_19 
DOCKED: REMARK    2  A    between atoms: C_2  and  C_11 
DOCKED: REMARK    3  A    between atoms: C_19  and  C_20 
DOCKED: REMARK    4  A    between atoms: C_20  and  C_21 
DOCKED: REMARK    5  A    between atoms: C_21  and  N_22 
DOCKED: USER                              x       y       z     vdW  Elec       q    Type
DOCKED: USER                           _______ _______ _______ _____ _____    ______ ____
DOCKED: ROOT
DOCKED: ATOM      1  O   UNL     1     -55.242 -35.937   8.898 -0.06 -0.00    -0.346 OA 
DOCKED: ATOM      2  C   UNL     1     -55.946 -35.099   7.926 -0.13 +0.00    +0.130 C  
DOCKED: ATOM      3  C   UNL     1     -56.856 -36.059   7.216 -0.22 +0.00    +0.004 A  
DOCKED: ATOM      4  C   UNL     1     -56.763 -37.312   7.804 -0.24 +0.00    +0.006 A  
DOCKED: ATOM      5  C   UNL     1     -55.809 -37.267   8.935 -0.15 +0.00    +0.169 C  
DOCKED: ATOM      6  C   UNL     1     -57.707 -35.838   6.143 -0.25 -0.00    -0.001 A  
DOCKED: ATOM      7  C   UNL     1     -57.509 -38.383   7.341 -0.33 +0.00    +0.008 A  
DOCKED: ATOM      8  C   UNL     1     -58.463 -36.908   5.662 -0.33 +0.00    +0.010 A  
DOCKED: ATOM      9  C   UNL     1     -58.364 -38.174   6.259 -0.31 +0.00    +0.068 A  
DOCKED: ATOM     10  N   UNL     1     -59.785 -40.138   5.344 -2.56 -0.00    -0.191 NA 
DOCKED: ATOM     11  C   UNL     1     -59.147 -39.257   5.754 -0.37 +0.00    +0.101 C  
DOCKED: ENDROOT
DOCKED: BRANCH   2  12
DOCKED: ATOM     12  C   UNL     1     -56.702 -34.013   8.682 -0.06 +0.00    +0.038 C  
DOCKED: BRANCH  12  13
DOCKED: ATOM     13  C   UNL     1     -58.028 -34.536   9.230 -0.05 +0.00    +0.038 C  
DOCKED: BRANCH  13  14
DOCKED: ATOM     14  C   UNL     1     -59.202 -34.051   8.382 -0.05 +0.00    +0.251 C  
DOCKED: BRANCH  14  15
DOCKED: ATOM     15  N   UNL     1     -60.442 -34.677   8.827 -0.04 +0.00    +0.141 N  
DOCKED: ATOM     16  C   UNL     1     -60.772 -35.826   7.982 -0.06 +0.00    +0.285 C  
DOCKED: ATOM     17  C   UNL     1     -60.337 -35.090  10.227 -0.00 +0.00    +0.285 C  
DOCKED: ENDBRANCH  14  15
DOCKED: ENDBRANCH  13  14
DOCKED: ENDBRANCH  12  13
DOCKED: ENDBRANCH   2  12
DOCKED: BRANCH   2  18
DOCKED: ATOM     18  C   UNL     1     -54.910 -34.508   7.029 -0.10 +0.00    +0.006 A  
DOCKED: ATOM     19  C   UNL     1     -53.561 -34.786   7.245 -0.10 +0.00    +0.001 A  
DOCKED: ATOM     20  C   UNL     1     -52.593 -34.233   6.405 -0.10 +0.00    +0.029 A  
DOCKED: ATOM     21  C   UNL     1     -52.976 -33.404   5.351 -0.08 +0.00    +0.140 A  
DOCKED: ATOM     22  C   UNL     1     -54.326 -33.127   5.135 -0.13 +0.00    +0.029 A  
DOCKED: ATOM     23  F   UNL     1     -52.047 -32.875   4.544 -0.00 -0.00    -0.204 F  
DOCKED: ATOM     24  C   UNL     1     -55.294 -33.680   5.975 -0.16 +0.00    +0.001 A  
DOCKED: ENDBRANCH   2  18
DOCKED: TORSDOF 5
DOCKED: TER
DOCKED: ENDMDL
________________________________________________________________________________


    FINAL DOCKED STATE:
    ________________________


Run:   9 / 512
Time taken for this run:   0.002s

DOCKED: MODEL        9
DOCKED: USER    Run = 9
DOCKED: USER
DOCKED: USER    Estimated Free Energy of Binding    =  -4.30 kcal/mol  [=(1)+(2)+(3)-(4)]
DOCKED: USER
DOCKED: USER    (1) Final Intermolecular Energy     =  -5.79 kcal/mol
DOCKED: USER        vdW + Hbond + desolv Energy     =  -5.79 kcal/mol
DOCKED: USER        Electrostatic Energy            =  +0.00 kcal/mol
DOCKED: USER        Moving Ligand-Fixed Receptor    =  -5.79 kcal/mol
DOCKED: USER        Moving Ligand-Moving Receptor   =  +0.00 kcal/mol
DOCKED: USER    (2) Final Total Internal Energy     =  -1.11 kcal/mol
DOCKED: USER    (3) Torsional Free Energy           =  +1.49 kcal/mol
DOCKED: USER    (4) Unbound System's Energy         =  -1.11 kcal/mol
DOCKED: USER
DOCKED: USER
DOCKED: REMARK  5 active torsions:
DOCKED: REMARK  status: ('A' for Active; 'I' for Inactive)
DOCKED: REMARK    1  A    between atoms: C_2  and  C_19 
DOCKED: REMARK    2  A    between atoms: C_2  and  C_11 
DOCKED: REMARK    3  A    between atoms: C_19  and  C_20 
DOCKED: REMARK    4  A    between atoms: C_20  and  C_21 
DOCKED: REMARK    5  A    between atoms: C_21  and  N_22 
DOCKED: USER                              x       y       z     vdW  Elec       q    Type
DOCKED: USER                           _______ _______ _______ _____ _____    ______ ____
DOCKED: ROOT
DOCKED: ATOM      1  O   UNL     1     -61.822 -36.596   8.372 -0.01 -0.00    -0.346 OA 
DOCKED: ATOM      2  C   UNL     1     -60.402 -36.929   8.494 -0.08 +0.00    +0.130 C  
DOCKED: ATOM      3  C   UNL     1     -60.049 -37.493   7.148 -0.20 +0.00    +0.004 A  
DOCKED: ATOM      4  C   UNL     1     -61.140 -37.389   6.297 -0.26 +0.00    +0.006 A  
DOCKED: ATOM      5  C   UNL     1     -62.270 -36.748   7.005 -0.19 +0.00    +0.169 C  
DOCKED: ATOM      6  C   UNL     1     -58.853 -38.044   6.708 -0.29 -0.00    -0.001 A  
DOCKED: ATOM      7  C   UNL     1     -61.077 -37.833   4.987 -0.16 +0.00    +0.008 A  
DOCKED: ATOM      8  C   UNL     1     -58.775 -38.499   5.391 -0.42 +0.00    +0.010 A  
DOCKED: ATOM      9  C   UNL     1     -59.882 -38.394   4.535 -0.35 +0.00    +0.068 A  
DOCKED: ATOM     10  N   UNL     1     -59.702 -39.245   2.095 -2.16 -0.00    -0.191 NA 
DOCKED: ATOM     11  C   UNL     1     -59.783 -38.864   3.189 -0.36 +0.00    +0.101 C  
DOCKED: ENDROOT
DOCKED: BRANCH   2  12
DOCKED: ATOM     12  C   UNL     1     -59.634 -35.655   8.824 -0.08 +0.00    +0.038 C  
DOCKED: BRANCH  12  13
DOCKED: ATOM     13  C   UNL     1     -59.111 -34.977   7.559 -0.19 +0.00    +0.038 C  
DOCKED: BRANCH  13  14
DOCKED: ATOM     14  C   UNL     1     -58.157 -33.834   7.903 -0.08 +0.00    +0.251 C  
DOCKED: BRANCH  14  15
DOCKED: ATOM     15  N   UNL     1     -56.865 -34.042   7.261 -0.12 +0.00    +0.141 N  
DOCKED: ATOM     16  C   UNL     1     -56.714 -35.437   6.843 -0.13 +0.00    +0.285 C  
DOCKED: ATOM     17  C   UNL     1     -56.709 -33.148   6.112 -0.07 +0.00    +0.285 C  
DOCKED: ENDBRANCH  14  15
DOCKED: ENDBRANCH  13  14
DOCKED: ENDBRANCH  12  13
DOCKED: ENDBRANCH   2  12
DOCKED: BRANCH   2  18
DOCKED: ATOM     18  C   UNL     1     -60.281 -37.931   9.594 -0.10 +0.00    +0.006 A  
DOCKED: ATOM     19  C   UNL     1     -61.271 -38.898   9.766 -0.14 +0.00    +0.001 A  
DOCKED: ATOM     20  C   UNL     1     -61.157 -39.834  10.795 -0.12 +0.00    +0.029 A  
DOCKED: ATOM     21  C   UNL     1     -60.055 -39.801  11.649 -0.02 +0.00    +0.140 A  
DOCKED: ATOM     22  C   UNL     1     -59.066 -38.833  11.475 -0.13 +0.00    +0.029 A  
DOCKED: ATOM     23  F   UNL     1     -59.945 -40.700  12.636 -0.05 -0.00    -0.204 F  
DOCKED: ATOM     24  C   UNL     1     -59.179 -37.897  10.447 -0.10 +0.00    +0.001 A  
DOCKED: ENDBRANCH   2  18
DOCKED: TORSDOF 5
DOCKED: TER
DOCKED: ENDMDL
________________________________________________________________________________


    FINAL DOCKED STATE:
    ________________________


Run:   10 / 512
Time taken for this run:   0.002s

DOCKED: MODEL        10
DOCKED: USER    Run = 10
DOCKED: USER
DOCKED: USER    Estimated Free Energy of Binding    =  -4.07 kcal/mol  [=(1)+(2)+(3)-(4)]
DOCKED: USER
DOCKED: USER    (1) Final Intermolecular Energy     =  -5.56 kcal/mol
DOCKED: USER        vdW + Hbond + desolv Energy     =  -5.56 kcal/mol
DOCKED: USER        Electrostatic Energy            =  +0.00 kcal/mol
DOCKED: USER        Moving Ligand-Fixed Receptor    =  -5.56 kcal/mol
DOCKED: USER        Moving Ligand-Moving Receptor   =  +0.00 kcal/mol
DOCKED: USER    (2) Final Total Internal Energy     =  -1.13 kcal/mol
DOCKED: USER    (3) Torsional Free Energy           =  +1.49 kcal/mol
DOCKED: USER    (4) Unbound System's Energy         =  -1.13 kcal/mol
DOCKED: USER
DOCKED: USER
DOCKED: REMARK  5 active torsions:
DOCKED: REMARK  status: ('A' for Active; 'I' for Inactive)
DOCKED: REMARK    1  A    between atoms: C_2  and  C_19 
DOCKED: REMARK    2  A    between atoms: C_2  and  C_11 
DOCKED: REMARK    3  A    between atoms: C_19  and  C_20 
DOCKED: REMARK    4  A    between atoms: C_20  and  C_21 
DOCKED: REMARK    5  A    between atoms: C_21  and  N_22 
DOCKED: USER                              x       y       z     vdW  Elec       q    Type
DOCKED: USER                           _______ _______ _______ _____ _____    ______ ____
DOCKED: ROOT
DOCKED: ATOM      1  O   UNL     1     -55.259 -36.020   9.012 -0.05 -0.00    -0.346 OA 
DOCKED: ATOM      2  C   UNL     1     -56.203 -35.137   8.326 -0.11 +0.00    +0.130 C  
DOCKED: ATOM      3  C   UNL     1     -57.094 -36.080   7.571 -0.20 +0.00    +0.004 A  
DOCKED: ATOM      4  C   UNL     1     -56.760 -37.390   7.884 -0.24 +0.00    +0.006 A  
DOCKED: ATOM      5  C   UNL     1     -55.650 -37.405   8.863 -0.16 +0.00    +0.169 C  
DOCKED: ATOM      6  C   UNL     1     -58.126 -35.802   6.686 -0.27 -0.00    -0.001 A  
DOCKED: ATOM      7  C   UNL     1     -57.436 -38.460   7.325 -0.33 +0.00    +0.008 A  
DOCKED: ATOM      8  C   UNL     1     -58.815 -36.870   6.110 -0.31 +0.00    +0.010 A  
DOCKED: ATOM      9  C   UNL     1     -58.472 -38.193   6.428 -0.29 +0.00    +0.068 A  
DOCKED: ATOM     10  N   UNL     1     -59.776 -40.152   5.345 -2.56 -0.00    -0.191 NA 
DOCKED: ATOM     11  C   UNL     1     -59.191 -39.273   5.831 -0.34 +0.00    +0.101 C  
DOCKED: ENDROOT
DOCKED: BRANCH   2  12
DOCKED: ATOM     12  C   UNL     1     -56.953 -34.324   9.375 -0.04 +0.00    +0.038 C  
DOCKED: BRANCH  12  13
DOCKED: ATOM     13  C   UNL     1     -57.539 -33.047   8.776 -0.04 +0.00    +0.038 C  
DOCKED: BRANCH  13  14
DOCKED: ATOM     14  C   UNL     1     -57.528 -31.908   9.794 -0.00 +0.00    +0.251 C  
DOCKED: BRANCH  14  15
DOCKED: ATOM     15  N   UNL     1     -56.187 -31.349   9.914 -0.00 +0.00    +0.141 N  
DOCKED: ATOM     16  C   UNL     1     -55.947 -30.354   8.868 -0.00 +0.00    +0.285 C  
DOCKED: ATOM     17  C   UNL     1     -55.995 -30.751  11.237 +0.00 +0.00    +0.285 C  
DOCKED: ENDBRANCH  14  15
DOCKED: ENDBRANCH  13  14
DOCKED: ENDBRANCH  12  13
DOCKED: ENDBRANCH   2  12
DOCKED: BRANCH   2  18
DOCKED: ATOM     18  C   UNL     1     -55.402 -34.252   7.431 -0.13 +0.00    +0.006 A  
DOCKED: ATOM     19  C   UNL     1     -54.282 -33.588   7.930 -0.07 +0.00    +0.001 A  
DOCKED: ATOM     20  C   UNL     1     -53.533 -32.760   7.092 -0.05 +0.00    +0.029 A  
DOCKED: ATOM     21  C   UNL     1     -53.905 -32.598   5.758 -0.06 +0.00    +0.140 A  
DOCKED: ATOM     22  C   UNL     1     -55.026 -33.263   5.260 -0.14 +0.00    +0.029 A  
DOCKED: ATOM     23  F   UNL     1     -53.186 -31.805   4.953 -0.00 -0.00    -0.204 F  
DOCKED: ATOM     24  C   UNL     1     -55.775 -34.091   6.098 -0.15 +0.00    +0.001 A  
DOCKED: ENDBRANCH   2  18
DOCKED: TORSDOF 5
DOCKED: TER
DOCKED: ENDMDL
________________________________________________________________________________


    FINAL DOCKED STATE:
    ________________________


Run:   11 / 512
Time taken for this run:   0.002s

DOCKED: MODEL        11
DOCKED: USER    Run = 11
DOCKED: USER
DOCKED: USER    Estimated Free Energy of Binding    =  -3.09 kcal/mol  [=(1)+(2)+(3)-(4)]
DOCKED: USER
DOCKED: USER    (1) Final Intermolecular Energy     =  -4.58 kcal/mol
DOCKED: USER        vdW + Hbond + desolv Energy     =  -4.58 kcal/mol
DOCKED: USER        Electrostatic Energy            =  +0.00 kcal/mol
DOCKED: USER        Moving Ligand-Fixed Receptor    =  -4.58 kcal/mol
DOCKED: USER        Moving Ligand-Moving Receptor   =  +0.00 kcal/mol
DOCKED: USER    (2) Final Total Internal Energy     =  -1.43 kcal/mol
DOCKED: USER    (3) Torsional Free Energy           =  +1.49 kcal/mol
DOCKED: USER    (4) Unbound System's Energy         =  -1.43 kcal/mol
DOCKED: USER
DOCKED: USER
DOCKED: REMARK  5 active torsions:
DOCKED: REMARK  status: ('A' for Active; 'I' for Inactive)
DOCKED: REMARK    1  A    between atoms: C_2  and  C_19 
DOCKED: REMARK    2  A    between atoms: C_2  and  C_11 
DOCKED: REMARK    3  A    between atoms: C_19  and  C_20 
DOCKED: REMARK    4  A    between atoms: C_20  and  C_21 
DOCKED: REMARK    5  A    between atoms: C_21  and  N_22 
DOCKED: USER                              x       y       z     vdW  Elec       q    Type
DOCKED: USER                           _______ _______ _______ _____ _____    ______ ____
DOCKED: ROOT
DOCKED: ATOM      1  O   UNL     1     -51.255 -27.953  -0.555 -0.04 -0.00    -0.346 OA 
DOCKED: ATOM      2  C   UNL     1     -52.048 -29.170  -0.376 -0.08 +0.00    +0.130 C  
DOCKED: ATOM      3  C   UNL     1     -53.269 -28.931  -1.217 -0.16 +0.00    +0.004 A  
DOCKED: ATOM      4  C   UNL     1     -53.136 -27.732  -1.903 -0.16 +0.00    +0.006 A  
DOCKED: ATOM      5  C   UNL     1     -51.832 -27.111  -1.580 -0.10 +0.00    +0.169 C  
DOCKED: ATOM      6  C   UNL     1     -54.402 -29.716  -1.370 -0.24 -0.00    -0.001 A  
DOCKED: ATOM      7  C   UNL     1     -54.125 -27.278  -2.759 -0.26 +0.00    +0.008 A  
DOCKED: ATOM      8  C   UNL     1     -55.410 -29.270  -2.226 -0.11 +0.00    +0.010 A  
DOCKED: ATOM      9  C   UNL     1     -55.272 -28.057  -2.917 -0.31 +0.00    +0.068 A  
DOCKED: ATOM     10  N   UNL     1     -57.161 -27.259  -4.501 -2.24 -0.00    -0.191 NA 
DOCKED: ATOM     11  C   UNL     1     -56.314 -27.616  -3.790 -0.36 +0.00    +0.101 C  
DOCKED: ENDROOT
DOCKED: BRANCH   2  12
DOCKED: ATOM     12  C   UNL     1     -51.223 -30.359  -0.853 -0.03 +0.00    +0.038 C  
DOCKED: BRANCH  12  13
DOCKED: ATOM     13  C   UNL     1     -50.282 -30.859   0.241 -0.01 +0.00    +0.038 C  
DOCKED: BRANCH  13  14
DOCKED: ATOM     14  C   UNL     1     -49.003 -30.026   0.290 -0.00 +0.00    +0.251 C  
DOCKED: BRANCH  14  15
DOCKED: ATOM     15  N   UNL     1     -48.515 -29.925   1.660 -0.00 +0.00    +0.141 N  
DOCKED: ATOM     16  C   UNL     1     -48.417 -28.524   2.072 -0.01 +0.00    +0.285 C  
DOCKED: ATOM     17  C   UNL     1     -49.388 -30.664   2.574 -0.00 +0.00    +0.285 C  
DOCKED: ENDBRANCH  14  15
DOCKED: ENDBRANCH  13  14
DOCKED: ENDBRANCH  12  13
DOCKED: ENDBRANCH   2  12
DOCKED: BRANCH   2  18
DOCKED: ATOM     18  C   UNL     1     -52.357 -29.279   1.080 -0.11 +0.00    +0.006 A  
DOCKED: ATOM     19  C   UNL     1     -51.874 -28.319   1.968 -0.06 +0.00    +0.001 A  
DOCKED: ATOM     20  C   UNL     1     -52.164 -28.422   3.329 -0.07 +0.00    +0.029 A  
DOCKED: ATOM     21  C   UNL     1     -52.935 -29.484   3.800 -0.07 +0.00    +0.140 A  
DOCKED: ATOM     22  C   UNL     1     -53.417 -30.444   2.911 -0.07 +0.00    +0.029 A  
DOCKED: ATOM     23  F   UNL     1     -53.214 -29.582   5.106 -0.01 -0.00    -0.204 F  
DOCKED: ATOM     24  C   UNL     1     -53.128 -30.342   1.549 -0.08 +0.00    +0.001 A  
DOCKED: ENDBRANCH   2  18
DOCKED: TORSDOF 5
DOCKED: TER
DOCKED: ENDMDL
________________________________________________________________________________


    FINAL DOCKED STATE:
    ________________________


Run:   12 / 512
Time taken for this run:   0.002s

DOCKED: MODEL        12
DOCKED: USER    Run = 12
DOCKED: USER
DOCKED: USER    Estimated Free Energy of Binding    =  -4.83 kcal/mol  [=(1)+(2)+(3)-(4)]
DOCKED: USER
DOCKED: USER    (1) Final Intermolecular Energy     =  -6.32 kcal/mol
DOCKED: USER        vdW + Hbond + desolv Energy     =  -6.32 kcal/mol
DOCKED: USER        Electrostatic Energy            =  +0.00 kcal/mol
DOCKED: USER        Moving Ligand-Fixed Receptor    =  -6.32 kcal/mol
DOCKED: USER        Moving Ligand-Moving Receptor   =  +0.00 kcal/mol
DOCKED: USER    (2) Final Total Internal Energy     =  -1.09 kcal/mol
DOCKED: USER    (3) Torsional Free Energy           =  +1.49 kcal/mol
DOCKED: USER    (4) Unbound System's Energy         =  -1.09 kcal/mol
DOCKED: USER
DOCKED: USER
DOCKED: REMARK  5 active torsions:
DOCKED: REMARK  status: ('A' for Active; 'I' for Inactive)
DOCKED: REMARK    1  A    between atoms: C_2  and  C_19 
DOCKED: REMARK    2  A    between atoms: C_2  and  C_11 
DOCKED: REMARK    3  A    between atoms: C_19  and  C_20 
DOCKED: REMARK    4  A    between atoms: C_20  and  C_21 
DOCKED: REMARK    5  A    between atoms: C_21  and  N_22 
DOCKED: USER                              x       y       z     vdW  Elec       q    Type
DOCKED: USER                           _______ _______ _______ _____ _____    ______ ____
DOCKED: ROOT
DOCKED: ATOM      1  O   UNL     1     -57.963 -36.198   9.061 -0.01 -0.00    -0.346 OA 
DOCKED: ATOM      2  C   UNL     1     -57.256 -37.475   8.953 -0.14 +0.00    +0.130 C  
DOCKED: ATOM      3  C   UNL     1     -57.630 -37.978   7.589 -0.28 +0.00    +0.004 A  
DOCKED: ATOM      4  C   UNL     1     -58.393 -37.023   6.932 -0.27 +0.00    +0.006 A  
DOCKED: ATOM      5  C   UNL     1     -58.564 -35.834   7.797 -0.12 +0.00    +0.169 C  
DOCKED: ATOM      6  C   UNL     1     -57.310 -39.180   6.974 -0.41 -0.00    -0.001 A  
DOCKED: ATOM      7  C   UNL     1     -58.864 -37.236   5.648 -0.34 +0.00    +0.008 A  
DOCKED: ATOM      8  C   UNL     1     -57.782 -39.411   5.681 -0.39 +0.00    +0.010 A  
DOCKED: ATOM      9  C   UNL     1     -58.555 -38.444   5.021 -0.37 +0.00    +0.068 A  
DOCKED: ATOM     10  N   UNL     1     -59.410 -38.904   2.619 -1.94 -0.00    -0.191 NA 
DOCKED: ATOM     11  C   UNL     1     -59.027 -38.698   3.697 -0.52 +0.00    +0.101 C  
DOCKED: ENDROOT
DOCKED: BRANCH   2  12
DOCKED: ATOM     12  C   UNL     1     -55.762 -37.213   9.100 -0.19 +0.00    +0.038 C  
DOCKED: BRANCH  12  13
DOCKED: ATOM     13  C   UNL     1     -55.252 -36.267   8.013 -0.14 +0.00    +0.038 C  
DOCKED: BRANCH  13  14
DOCKED: ATOM     14  C   UNL     1     -55.187 -34.829   8.523 -0.07 +0.00    +0.251 C  
DOCKED: BRANCH  14  15
DOCKED: ATOM     15  N   UNL     1     -54.048 -34.134   7.936 -0.06 +0.00    +0.141 N  
DOCKED: ATOM     16  C   UNL     1     -54.359 -33.691   6.576 -0.08 +0.00    +0.285 C  
DOCKED: ATOM     17  C   UNL     1     -53.658 -32.992   8.765 -0.01 +0.00    +0.285 C  
DOCKED: ENDBRANCH  14  15
DOCKED: ENDBRANCH  13  14
DOCKED: ENDBRANCH  12  13
DOCKED: ENDBRANCH   2  12
DOCKED: BRANCH   2  18
DOCKED: ATOM     18  C   UNL     1     -57.760 -38.348  10.053 -0.16 +0.00    +0.006 A  
DOCKED: ATOM     19  C   UNL     1     -56.860 -39.045  10.858 -0.13 +0.00    +0.001 A  
DOCKED: ATOM     20  C   UNL     1     -57.333 -39.861  11.886 -0.24 +0.00    +0.029 A  
DOCKED: ATOM     21  C   UNL     1     -58.704 -39.978  12.108 -0.11 +0.00    +0.140 A  
DOCKED: ATOM     22  C   UNL     1     -59.604 -39.280  11.303 -0.14 +0.00    +0.029 A  
DOCKED: ATOM     23  F   UNL     1     -59.157 -40.760  13.097 -0.05 -0.00    -0.204 F  
DOCKED: ATOM     24  C   UNL     1     -59.132 -38.464  10.274 -0.14 +0.00    +0.001 A  
DOCKED: ENDBRANCH   2  18
DOCKED: TORSDOF 5
DOCKED: TER
DOCKED: ENDMDL
________________________________________________________________________________


    FINAL DOCKED STATE:
    ________________________


Run:   13 / 512
Time taken for this run:   0.002s

DOCKED: MODEL        13
DOCKED: USER    Run = 13
DOCKED: USER
DOCKED: USER    Estimated Free Energy of Binding    =  -5.62 kcal/mol  [=(1)+(2)+(3)-(4)]
DOCKED: USER
DOCKED: USER    (1) Final Intermolecular Energy     =  -7.12 kcal/mol
DOCKED: USER        vdW + Hbond + desolv Energy     =  -7.12 kcal/mol
DOCKED: USER        Electrostatic Energy            =  +0.00 kcal/mol
DOCKED: USER        Moving Ligand-Fixed Receptor    =  -7.12 kcal/mol
DOCKED: USER        Moving Ligand-Moving Receptor   =  +0.00 kcal/mol
DOCKED: USER    (2) Final Total Internal Energy     =  -1.30 kcal/mol
DOCKED: USER    (3) Torsional Free Energy           =  +1.49 kcal/mol
DOCKED: USER    (4) Unbound System's Energy         =  -1.30 kcal/mol
DOCKED: USER
DOCKED: USER
DOCKED: REMARK  5 active torsions:
DOCKED: REMARK  status: ('A' for Active; 'I' for Inactive)
DOCKED: REMARK    1  A    between atoms: C_2  and  C_19 
DOCKED: REMARK    2  A    between atoms: C_2  and  C_11 
DOCKED: REMARK    3  A    between atoms: C_19  and  C_20 
DOCKED: REMARK    4  A    between atoms: C_20  and  C_21 
DOCKED: REMARK    5  A    between atoms: C_21  and  N_22 
DOCKED: USER                              x       y       z     vdW  Elec       q    Type
DOCKED: USER                           _______ _______ _______ _____ _____    ______ ____
DOCKED: ROOT
DOCKED: ATOM      1  O   UNL     1     -58.033 -36.083   8.010 -0.03 -0.00    -0.346 OA 
DOCKED: ATOM      2  C   UNL     1     -57.532 -37.458   8.001 -0.20 +0.00    +0.130 C  
DOCKED: ATOM      3  C   UNL     1     -57.959 -37.987   6.662 -0.33 +0.00    +0.004 A  
DOCKED: ATOM      4  C   UNL     1     -58.554 -36.971   5.927 -0.34 +0.00    +0.006 A  
DOCKED: ATOM      5  C   UNL     1     -58.550 -35.716   6.711 -0.22 +0.00    +0.169 C  
DOCKED: ATOM      6  C   UNL     1     -57.822 -39.262   6.132 -0.42 -0.00    -0.001 A  
DOCKED: ATOM      7  C   UNL     1     -59.033 -37.193   4.647 +0.07 +0.00    +0.008 A  
DOCKED: ATOM      8  C   UNL     1     -58.304 -39.503   4.845 -0.45 +0.00    +0.010 A  
DOCKED: ATOM      9  C   UNL     1     -58.906 -38.474   4.106 -0.42 +0.00    +0.068 A  
DOCKED: ATOM     10  N   UNL     1     -59.786 -38.954   1.717 -2.78 -0.00    -0.191 NA 
DOCKED: ATOM     11  C   UNL     1     -59.392 -38.738   2.789 -0.44 +0.00    +0.101 C  
DOCKED: ENDROOT
DOCKED: BRANCH   2  12
DOCKED: ATOM     12  C   UNL     1     -56.018 -37.421   8.169 -0.25 +0.00    +0.038 C  
DOCKED: BRANCH  12  13
DOCKED: ATOM     13  C   UNL     1     -55.528 -36.012   8.497 -0.16 +0.00    +0.038 C  
DOCKED: BRANCH  13  14
DOCKED: ATOM     14  C   UNL     1     -55.393 -35.168   7.231 -0.01 +0.00    +0.251 C  
DOCKED: BRANCH  14  15
DOCKED: ATOM     15  N   UNL     1     -55.594 -33.757   7.539 -0.08 +0.00    +0.141 N  
DOCKED: ATOM     16  C   UNL     1     -56.231 -33.069   6.414 -0.10 +0.00    +0.285 C  
DOCKED: ATOM     17  C   UNL     1     -56.402 -33.603   8.750 -0.02 +0.00    +0.285 C  
DOCKED: ENDBRANCH  14  15
DOCKED: ENDBRANCH  13  14
DOCKED: ENDBRANCH  12  13
DOCKED: ENDBRANCH   2  12
DOCKED: BRANCH   2  18
DOCKED: ATOM     18  C   UNL     1     -58.183 -38.168   9.141 -0.17 +0.00    +0.006 A  
DOCKED: ATOM     19  C   UNL     1     -59.543 -38.470   9.088 -0.16 +0.00    +0.001 A  
DOCKED: ATOM     20  C   UNL     1     -60.151 -39.133  10.155 -0.15 +0.00    +0.029 A  
DOCKED: ATOM     21  C   UNL     1     -59.398 -39.494  11.271 -0.06 +0.00    +0.140 A  
DOCKED: ATOM     22  C   UNL     1     -58.038 -39.191  11.323 -0.19 +0.00    +0.029 A  
DOCKED: ATOM     23  F   UNL     1     -59.981 -40.132  12.294 -0.04 -0.00    -0.204 F  
DOCKED: ATOM     24  C   UNL     1     -57.429 -38.527  10.257 -0.18 +0.00    +0.001 A  
DOCKED: ENDBRANCH   2  18
DOCKED: TORSDOF 5
DOCKED: TER
DOCKED: ENDMDL
________________________________________________________________________________


    FINAL DOCKED STATE:
    ________________________


Run:   14 / 512
Time taken for this run:   0.002s

DOCKED: MODEL        14
DOCKED: USER    Run = 14
DOCKED: USER
DOCKED: USER    Estimated Free Energy of Binding    =  -4.20 kcal/mol  [=(1)+(2)+(3)-(4)]
DOCKED: USER
DOCKED: USER    (1) Final Intermolecular Energy     =  -5.69 kcal/mol
DOCKED: USER        vdW + Hbond + desolv Energy     =  -5.69 kcal/mol
DOCKED: USER        Electrostatic Energy            =  +0.00 kcal/mol
DOCKED: USER        Moving Ligand-Fixed Receptor    =  -5.69 kcal/mol
DOCKED: USER        Moving Ligand-Moving Receptor   =  +0.00 kcal/mol
DOCKED: USER    (2) Final Total Internal Energy     =  -1.38 kcal/mol
DOCKED: USER    (3) Torsional Free Energy           =  +1.49 kcal/mol
DOCKED: USER    (4) Unbound System's Energy         =  -1.38 kcal/mol
DOCKED: USER
DOCKED: USER
DOCKED: REMARK  5 active torsions:
DOCKED: REMARK  status: ('A' for Active; 'I' for Inactive)
DOCKED: REMARK    1  A    between atoms: C_2  and  C_19 
DOCKED: REMARK    2  A    between atoms: C_2  and  C_11 
DOCKED: REMARK    3  A    between atoms: C_19  and  C_20 
DOCKED: REMARK    4  A    between atoms: C_20  and  C_21 
DOCKED: REMARK    5  A    between atoms: C_21  and  N_22 
DOCKED: USER                              x       y       z     vdW  Elec       q    Type
DOCKED: USER                           _______ _______ _______ _____ _____    ______ ____
DOCKED: ROOT
DOCKED: ATOM      1  O   UNL     1     -55.494 -35.353   8.560 -0.05 -0.00    -0.346 OA 
DOCKED: ATOM      2  C   UNL     1     -56.470 -34.670   7.710 -0.13 +0.00    +0.130 C  
DOCKED: ATOM      3  C   UNL     1     -57.230 -35.791   7.062 -0.23 +0.00    +0.004 A  
DOCKED: ATOM      4  C   UNL     1     -56.801 -37.005   7.580 -0.24 +0.00    +0.006 A  
DOCKED: ATOM      5  C   UNL     1     -55.754 -36.775   8.600 -0.15 +0.00    +0.169 C  
DOCKED: ATOM      6  C   UNL     1     -58.228 -35.740   6.101 -0.24 -0.00    -0.001 A  
DOCKED: ATOM      7  C   UNL     1     -57.349 -38.204   7.155 -0.33 +0.00    +0.008 A  
DOCKED: ATOM      8  C   UNL     1     -58.787 -36.940   5.658 -0.31 +0.00    +0.010 A  
DOCKED: ATOM      9  C   UNL     1     -58.350 -38.166   6.183 -0.31 +0.00    +0.068 A  
DOCKED: ATOM     10  N   UNL     1     -59.413 -40.374   5.344 -2.61 -0.00    -0.191 NA 
DOCKED: ATOM     11  C   UNL     1     -58.936 -39.384   5.720 -0.32 +0.00    +0.101 C  
DOCKED: ENDROOT
DOCKED: BRANCH   2  12
DOCKED: ATOM     12  C   UNL     1     -57.347 -33.790   8.592 -0.06 +0.00    +0.038 C  
DOCKED: BRANCH  12  13
DOCKED: ATOM     13  C   UNL     1     -56.506 -32.850   9.453 -0.02 +0.00    +0.038 C  
DOCKED: BRANCH  13  14
DOCKED: ATOM     14  C   UNL     1     -56.603 -33.224  10.931 -0.00 +0.00    +0.251 C  
DOCKED: BRANCH  14  15
DOCKED: ATOM     15  N   UNL     1     -56.361 -34.650  11.110 -0.01 +0.00    +0.141 N  
DOCKED: ATOM     16  C   UNL     1     -55.301 -34.874  12.095 -0.00 +0.00    +0.285 C  
DOCKED: ATOM     17  C   UNL     1     -57.589 -35.334  11.521 -0.00 +0.00    +0.285 C  
DOCKED: ENDBRANCH  14  15
DOCKED: ENDBRANCH  13  14
DOCKED: ENDBRANCH  12  13
DOCKED: ENDBRANCH   2  12
DOCKED: BRANCH   2  18
DOCKED: ATOM     18  C   UNL     1     -55.697 -33.850   6.731 -0.15 +0.00    +0.006 A  
DOCKED: ATOM     19  C   UNL     1     -54.333 -34.076   6.556 -0.11 +0.00    +0.001 A  
DOCKED: ATOM     20  C   UNL     1     -53.612 -33.309   5.640 -0.10 +0.00    +0.029 A  
DOCKED: ATOM     21  C   UNL     1     -54.255 -32.317   4.902 -0.07 +0.00    +0.140 A  
DOCKED: ATOM     22  C   UNL     1     -55.620 -32.091   5.077 -0.10 +0.00    +0.029 A  
DOCKED: ATOM     23  F   UNL     1     -53.563 -31.582   4.022 -0.00 -0.00    -0.204 F  
DOCKED: ATOM     24  C   UNL     1     -56.343 -32.858   5.993 -0.11 +0.00    +0.001 A  
DOCKED: ENDBRANCH   2  18
DOCKED: TORSDOF 5
DOCKED: TER
DOCKED: ENDMDL
________________________________________________________________________________


    FINAL DOCKED STATE:
    ________________________


Run:   15 / 512
Time taken for this run:   0.002s

DOCKED: MODEL        15
DOCKED: USER    Run = 15
DOCKED: USER
DOCKED: USER    Estimated Free Energy of Binding    =  -3.89 kcal/mol  [=(1)+(2)+(3)-(4)]
DOCKED: USER
DOCKED: USER    (1) Final Intermolecular Energy     =  -5.38 kcal/mol
DOCKED: USER        vdW + Hbond + desolv Energy     =  -5.38 kcal/mol
DOCKED: USER        Electrostatic Energy            =  +0.00 kcal/mol
DOCKED: USER        Moving Ligand-Fixed Receptor    =  -5.38 kcal/mol
DOCKED: USER        Moving Ligand-Moving Receptor   =  +0.00 kcal/mol
DOCKED: USER    (2) Final Total Internal Energy     =  -1.10 kcal/mol
DOCKED: USER    (3) Torsional Free Energy           =  +1.49 kcal/mol
DOCKED: USER    (4) Unbound System's Energy         =  -1.10 kcal/mol
DOCKED: USER
DOCKED: USER
DOCKED: REMARK  5 active torsions:
DOCKED: REMARK  status: ('A' for Active; 'I' for Inactive)
DOCKED: REMARK    1  A    between atoms: C_2  and  C_19 
DOCKED: REMARK    2  A    between atoms: C_2  and  C_11 
DOCKED: REMARK    3  A    between atoms: C_19  and  C_20 
DOCKED: REMARK    4  A    between atoms: C_20  and  C_21 
DOCKED: REMARK    5  A    between atoms: C_21  and  N_22 
DOCKED: USER                              x       y       z     vdW  Elec       q    Type
DOCKED: USER                           _______ _______ _______ _____ _____    ______ ____
DOCKED: ROOT
DOCKED: ATOM      1  O   UNL     1     -53.855 -29.898   0.882 -0.05 -0.00    -0.346 OA 
DOCKED: ATOM      2  C   UNL     1     -55.228 -29.985   0.384 -0.23 +0.00    +0.130 C  
DOCKED: ATOM      3  C   UNL     1     -55.223 -29.112  -0.838 -0.26 +0.00    +0.004 A  
DOCKED: ATOM      4  C   UNL     1     -53.935 -28.656  -1.081 -0.13 +0.00    +0.006 A  
DOCKED: ATOM      5  C   UNL     1     -53.010 -29.196  -0.060 -0.12 +0.00    +0.169 C  
DOCKED: ATOM      6  C   UNL     1     -56.272 -28.760  -1.675 -0.30 -0.00    -0.001 A  
DOCKED: ATOM      7  C   UNL     1     -53.653 -27.834  -2.159 -0.20 +0.00    +0.008 A  
DOCKED: ATOM      8  C   UNL     1     -56.005 -27.928  -2.763 -0.39 +0.00    +0.010 A  
DOCKED: ATOM      9  C   UNL     1     -54.702 -27.468  -3.004 -0.29 +0.00    +0.068 A  
DOCKED: ATOM     10  N   UNL     1     -54.239 -25.928  -5.036 -0.69 -0.00    -0.191 NA 
DOCKED: ATOM     11  C   UNL     1     -54.447 -26.618  -4.124 -0.36 +0.00    +0.101 C  
DOCKED: ENDROOT
DOCKED: BRANCH   2  12
DOCKED: ATOM     12  C   UNL     1     -55.537 -31.444   0.070 -0.24 +0.00    +0.038 C  
DOCKED: BRANCH  12  13
DOCKED: ATOM     13  C   UNL     1     -55.661 -32.273   1.346 -0.21 +0.00    +0.038 C  
DOCKED: BRANCH  13  14
DOCKED: ATOM     14  C   UNL     1     -54.285 -32.637   1.902 -0.10 +0.00    +0.251 C  
DOCKED: BRANCH  14  15
DOCKED: ATOM     15  N   UNL     1     -54.167 -34.082   2.059 -0.19 +0.00    +0.141 N  
DOCKED: ATOM     16  C   UNL     1     -54.459 -34.763   0.797 -0.19 +0.00    +0.285 C  
DOCKED: ATOM     17  C   UNL     1     -52.829 -34.441   2.531 -0.10 +0.00    +0.285 C  
DOCKED: ENDBRANCH  14  15
DOCKED: ENDBRANCH  13  14
DOCKED: ENDBRANCH  12  13
DOCKED: ENDBRANCH   2  12
DOCKED: BRANCH   2  18
DOCKED: ATOM     18  C   UNL     1     -56.118 -29.467   1.464 -0.27 +0.00    +0.006 A  
DOCKED: ATOM     19  C   UNL     1     -55.583 -29.140   2.710 -0.21 +0.00    +0.001 A  
DOCKED: ATOM     20  C   UNL     1     -56.416 -28.656   3.720 -0.17 +0.00    +0.029 A  
DOCKED: ATOM     21  C   UNL     1     -57.781 -28.499   3.482 -0.14 +0.00    +0.140 A  
DOCKED: ATOM     22  C   UNL     1     -58.314 -28.825   2.236 -0.27 +0.00    +0.029 A  
DOCKED: ATOM     23  F   UNL     1     -58.579 -28.033   4.451 +0.00 -0.00    -0.204 F  
DOCKED: ATOM     24  C   UNL     1     -57.482 -29.310   1.225 -0.28 +0.00    +0.001 A  
DOCKED: ENDBRANCH   2  18
DOCKED: TORSDOF 5
DOCKED: TER
DOCKED: ENDMDL
________________________________________________________________________________


    FINAL DOCKED STATE:
    ________________________


Run:   16 / 512
Time taken for this run:   0.002s

DOCKED: MODEL        16
DOCKED: USER    Run = 16
DOCKED: USER
DOCKED: USER    Estimated Free Energy of Binding    =  -4.09 kcal/mol  [=(1)+(2)+(3)-(4)]
DOCKED: USER
DOCKED: USER    (1) Final Intermolecular Energy     =  -5.58 kcal/mol
DOCKED: USER        vdW + Hbond + desolv Energy     =  -5.58 kcal/mol
DOCKED: USER        Electrostatic Energy            =  +0.00 kcal/mol
DOCKED: USER        Moving Ligand-Fixed Receptor    =  -5.58 kcal/mol
DOCKED: USER        Moving Ligand-Moving Receptor   =  +0.00 kcal/mol
DOCKED: USER    (2) Final Total Internal Energy     =  -1.33 kcal/mol
DOCKED: USER    (3) Torsional Free Energy           =  +1.49 kcal/mol
DOCKED: USER    (4) Unbound System's Energy         =  -1.33 kcal/mol
DOCKED: USER
DOCKED: USER
DOCKED: REMARK  5 active torsions:
DOCKED: REMARK  status: ('A' for Active; 'I' for Inactive)
DOCKED: REMARK    1  A    between atoms: C_2  and  C_19 
DOCKED: REMARK    2  A    between atoms: C_2  and  C_11 
DOCKED: REMARK    3  A    between atoms: C_19  and  C_20 
DOCKED: REMARK    4  A    between atoms: C_20  and  C_21 
DOCKED: REMARK    5  A    between atoms: C_21  and  N_22 
DOCKED: USER                              x       y       z     vdW  Elec       q    Type
DOCKED: USER                           _______ _______ _______ _____ _____    ______ ____
DOCKED: ROOT
DOCKED: ATOM      1  O   UNL     1     -51.587 -29.793  -1.314 +0.00 -0.00    -0.346 OA 
DOCKED: ATOM      2  C   UNL     1     -52.854 -30.075  -0.637 -0.08 +0.00    +0.130 C  
DOCKED: ATOM      3  C   UNL     1     -53.879 -29.389  -1.493 -0.20 +0.00    +0.004 A  
DOCKED: ATOM      4  C   UNL     1     -53.267 -28.856  -2.619 -0.16 +0.00    +0.006 A  
DOCKED: ATOM      5  C   UNL     1     -51.819 -29.159  -2.593 -0.04 +0.00    +0.169 C  
DOCKED: ATOM      6  C   UNL     1     -55.246 -29.257  -1.297 -0.30 -0.00    -0.001 A  
DOCKED: ATOM      7  C   UNL     1     -53.994 -28.174  -3.579 -0.23 +0.00    +0.008 A  
DOCKED: ATOM      8  C   UNL     1     -55.992 -28.568  -2.254 -0.30 +0.00    +0.010 A  
DOCKED: ATOM      9  C   UNL     1     -55.369 -28.030  -3.390 -0.26 +0.00    +0.068 A  
DOCKED: ATOM     10  N   UNL     1     -56.785 -26.761  -5.150 -2.48 -0.00    -0.191 NA 
DOCKED: ATOM     11  C   UNL     1     -56.150 -27.329  -4.360 -0.38 +0.00    +0.101 C  
DOCKED: ENDROOT
DOCKED: BRANCH   2  12
DOCKED: ATOM     12  C   UNL     1     -53.044 -31.586  -0.579 -0.10 +0.00    +0.038 C  
DOCKED: BRANCH  12  13
DOCKED: ATOM     13  C   UNL     1     -51.742 -32.323  -0.887 -0.05 +0.00    +0.038 C  
DOCKED: BRANCH  13  14
DOCKED: ATOM     14  C   UNL     1     -51.921 -33.287  -2.059 -0.09 +0.00    +0.251 C  
DOCKED: BRANCH  14  15
DOCKED: ATOM     15  N   UNL     1     -52.252 -32.552  -3.274 -0.09 +0.00    +0.141 N  
DOCKED: ATOM     16  C   UNL     1     -51.080 -32.441  -4.144 -0.02 +0.00    +0.285 C  
DOCKED: ATOM     17  C   UNL     1     -53.353 -33.202  -3.986 -0.16 +0.00    +0.285 C  
DOCKED: ENDBRANCH  14  15
DOCKED: ENDBRANCH  13  14
DOCKED: ENDBRANCH  12  13
DOCKED: ENDBRANCH   2  12
DOCKED: BRANCH   2  18
DOCKED: ATOM     18  C   UNL     1     -52.756 -29.491   0.733 -0.12 +0.00    +0.006 A  
DOCKED: ATOM     19  C   UNL     1     -53.848 -29.556   1.598 -0.15 +0.00    +0.001 A  
DOCKED: ATOM     20  C   UNL     1     -53.755 -29.010   2.878 -0.13 +0.00    +0.029 A  
DOCKED: ATOM     21  C   UNL     1     -52.571 -28.400   3.292 -0.03 +0.00    +0.140 A  
DOCKED: ATOM     22  C   UNL     1     -51.479 -28.336   2.427 -0.08 +0.00    +0.029 A  
DOCKED: ATOM     23  F   UNL     1     -52.482 -27.878   4.522 -0.04 -0.00    -0.204 F  
DOCKED: ATOM     24  C   UNL     1     -51.571 -28.882   1.146 -0.10 +0.00    +0.001 A  
DOCKED: ENDBRANCH   2  18
DOCKED: TORSDOF 5
DOCKED: TER
DOCKED: ENDMDL
________________________________________________________________________________


    FINAL DOCKED STATE:
    ________________________


Run:   17 / 512
Time taken for this run:   0.002s

DOCKED: MODEL        17
DOCKED: USER    Run = 17
DOCKED: USER
DOCKED: USER    Estimated Free Energy of Binding    =  -4.46 kcal/mol  [=(1)+(2)+(3)-(4)]
DOCKED: USER
DOCKED: USER    (1) Final Intermolecular Energy     =  -5.95 kcal/mol
DOCKED: USER        vdW + Hbond + desolv Energy     =  -5.95 kcal/mol
DOCKED: USER        Electrostatic Energy            =  +0.00 kcal/mol
DOCKED: USER        Moving Ligand-Fixed Receptor    =  -5.95 kcal/mol
DOCKED: USER        Moving Ligand-Moving Receptor   =  +0.00 kcal/mol
DOCKED: USER    (2) Final Total Internal Energy     =  -1.47 kcal/mol
DOCKED: USER    (3) Torsional Free Energy           =  +1.49 kcal/mol
DOCKED: USER    (4) Unbound System's Energy         =  -1.47 kcal/mol
DOCKED: USER
DOCKED: USER
DOCKED: REMARK  5 active torsions:
DOCKED: REMARK  status: ('A' for Active; 'I' for Inactive)
DOCKED: REMARK    1  A    between atoms: C_2  and  C_19 
DOCKED: REMARK    2  A    between atoms: C_2  and  C_11 
DOCKED: REMARK    3  A    between atoms: C_19  and  C_20 
DOCKED: REMARK    4  A    between atoms: C_20  and  C_21 
DOCKED: REMARK    5  A    between atoms: C_21  and  N_22 
DOCKED: USER                              x       y       z     vdW  Elec       q    Type
DOCKED: USER                           _______ _______ _______ _____ _____    ______ ____
DOCKED: ROOT
DOCKED: ATOM      1  O   UNL     1     -57.343 -33.599   6.867 -0.07 -0.00    -0.346 OA 
DOCKED: ATOM      2  C   UNL     1     -58.705 -33.694   7.395 -0.15 +0.00    +0.130 C  
DOCKED: ATOM      3  C   UNL     1     -59.142 -35.079   7.016 -0.22 +0.00    +0.004 A  
DOCKED: ATOM      4  C   UNL     1     -58.086 -35.756   6.422 -0.27 +0.00    +0.006 A  
DOCKED: ATOM      5  C   UNL     1     -56.891 -34.884   6.379 -0.16 +0.00    +0.169 C  
DOCKED: ATOM      6  C   UNL     1     -60.372 -35.695   7.193 -0.21 -0.00    -0.001 A  
DOCKED: ATOM      7  C   UNL     1     -58.223 -37.062   5.983 -0.34 +0.00    +0.008 A  
DOCKED: ATOM      8  C   UNL     1     -60.528 -37.010   6.751 -0.22 +0.00    +0.010 A  
DOCKED: ATOM      9  C   UNL     1     -59.458 -37.690   6.150 -0.25 +0.00    +0.068 A  
DOCKED: ATOM     10  N   UNL     1     -59.779 -40.132   5.347 -2.56 -0.00    -0.191 NA 
DOCKED: ATOM     11  C   UNL     1     -59.635 -39.037   5.707 -0.36 +0.00    +0.101 C  
DOCKED: ENDROOT
DOCKED: BRANCH   2  12
DOCKED: ATOM     12  C   UNL     1     -58.654 -33.479   8.903 -0.05 +0.00    +0.038 C  
DOCKED: BRANCH  12  13
DOCKED: ATOM     13  C   UNL     1     -58.370 -32.019   9.248 -0.02 +0.00    +0.038 C  
DOCKED: BRANCH  13  14
DOCKED: ATOM     14  C   UNL     1     -56.871 -31.728   9.214 -0.01 +0.00    +0.251 C  
DOCKED: BRANCH  14  15
DOCKED: ATOM     15  N   UNL     1     -56.502 -31.114   7.944 -0.01 +0.00    +0.141 N  
DOCKED: ATOM     16  C   UNL     1     -56.684 -29.663   7.999 -0.00 +0.00    +0.285 C  
DOCKED: ATOM     17  C   UNL     1     -55.118 -31.439   7.597 -0.01 +0.00    +0.285 C  
DOCKED: ENDBRANCH  14  15
DOCKED: ENDBRANCH  13  14
DOCKED: ENDBRANCH  12  13
DOCKED: ENDBRANCH   2  12
DOCKED: BRANCH   2  18
DOCKED: ATOM     18  C   UNL     1     -59.507 -32.627   6.726 -0.20 +0.00    +0.006 A  
DOCKED: ATOM     19  C   UNL     1     -60.894 -32.609   6.865 -0.21 +0.00    +0.001 A  
DOCKED: ATOM     20  C   UNL     1     -61.643 -31.611   6.239 -0.17 +0.00    +0.029 A  
DOCKED: ATOM     21  C   UNL     1     -61.004 -30.635   5.476 -0.11 +0.00    +0.140 A  
DOCKED: ATOM     22  C   UNL     1     -59.616 -30.654   5.338 -0.16 +0.00    +0.029 A  
DOCKED: ATOM     23  F   UNL     1     -61.722 -29.676   4.877 -0.02 -0.00    -0.204 F  
DOCKED: ATOM     24  C   UNL     1     -58.866 -31.651   5.964 -0.16 +0.00    +0.001 A  
DOCKED: ENDBRANCH   2  18
DOCKED: TORSDOF 5
DOCKED: TER
DOCKED: ENDMDL
________________________________________________________________________________


    FINAL DOCKED STATE:
    ________________________


Run:   18 / 512
Time taken for this run:   0.002s

DOCKED: MODEL        18
DOCKED: USER    Run = 18
DOCKED: USER
DOCKED: USER    Estimated Free Energy of Binding    =  -5.88 kcal/mol  [=(1)+(2)+(3)-(4)]
DOCKED: USER
DOCKED: USER    (1) Final Intermolecular Energy     =  -7.37 kcal/mol
DOCKED: USER        vdW + Hbond + desolv Energy     =  -7.37 kcal/mol
DOCKED: USER        Electrostatic Energy            =  +0.00 kcal/mol
DOCKED: USER        Moving Ligand-Fixed Receptor    =  -7.37 kcal/mol
DOCKED: USER        Moving Ligand-Moving Receptor   =  +0.00 kcal/mol
DOCKED: USER    (2) Final Total Internal Energy     =  -1.01 kcal/mol
DOCKED: USER    (3) Torsional Free Energy           =  +1.49 kcal/mol
DOCKED: USER    (4) Unbound System's Energy         =  -1.01 kcal/mol
DOCKED: USER
DOCKED: USER
DOCKED: REMARK  5 active torsions:
DOCKED: REMARK  status: ('A' for Active; 'I' for Inactive)
DOCKED: REMARK    1  A    between atoms: C_2  and  C_19 
DOCKED: REMARK    2  A    between atoms: C_2  and  C_11 
DOCKED: REMARK    3  A    between atoms: C_19  and  C_20 
DOCKED: REMARK    4  A    between atoms: C_20  and  C_21 
DOCKED: REMARK    5  A    between atoms: C_21  and  N_22 
DOCKED: USER                              x       y       z     vdW  Elec       q    Type
DOCKED: USER                           _______ _______ _______ _____ _____    ______ ____
DOCKED: ROOT
DOCKED: ATOM      1  O   UNL     1     -57.127 -38.933   7.859 -0.18 -0.00    -0.346 OA 
DOCKED: ATOM      2  C   UNL     1     -58.447 -38.308   7.952 -0.20 +0.00    +0.130 C  
DOCKED: ATOM      3  C   UNL     1     -58.968 -38.359   6.545 -0.31 +0.00    +0.004 A  
DOCKED: ATOM      4  C   UNL     1     -58.074 -39.050   5.740 -0.43 +0.00    +0.006 A  
DOCKED: ATOM      5  C   UNL     1     -56.923 -39.510   6.548 -0.28 +0.00    +0.169 C  
DOCKED: ATOM      6  C   UNL     1     -60.146 -37.844   6.022 -0.29 -0.00    -0.001 A  
DOCKED: ATOM      7  C   UNL     1     -58.321 -39.246   4.392 -0.40 +0.00    +0.008 A  
DOCKED: ATOM      8  C   UNL     1     -60.407 -38.029   4.663 -0.20 +0.00    +0.010 A  
DOCKED: ATOM      9  C   UNL     1     -59.499 -38.727   3.853 -0.43 +0.00    +0.068 A  
DOCKED: ATOM     10  N   UNL     1     -60.017 -39.058   1.336 -3.01 -0.00    -0.191 NA 
DOCKED: ATOM     11  C   UNL     1     -59.784 -38.909   2.464 -0.29 +0.00    +0.101 C  
DOCKED: ENDROOT
DOCKED: BRANCH   2  12
DOCKED: ATOM     12  C   UNL     1     -59.295 -39.115   8.928 -0.25 +0.00    +0.038 C  
DOCKED: BRANCH  12  13
DOCKED: ATOM     13  C   UNL     1     -58.461 -39.622  10.103 -0.19 +0.00    +0.038 C  
DOCKED: BRANCH  13  14
DOCKED: ATOM     14  C   UNL     1     -59.280 -39.638  11.392 -0.03 +0.00    +0.251 C  
DOCKED: BRANCH  14  15
DOCKED: ATOM     15  N   UNL     1     -58.501 -40.216  12.481 -0.17 +0.00    +0.141 N  
DOCKED: ATOM     16  C   UNL     1     -57.737 -39.179  13.175 -0.06 +0.00    +0.285 C  
DOCKED: ATOM     17  C   UNL     1     -59.374 -40.920  13.422 -0.17 +0.00    +0.285 C  
DOCKED: ENDBRANCH  14  15
DOCKED: ENDBRANCH  13  14
DOCKED: ENDBRANCH  12  13
DOCKED: ENDBRANCH   2  12
DOCKED: BRANCH   2  18
DOCKED: ATOM     18  C   UNL     1     -58.237 -36.915   8.445 -0.13 +0.00    +0.006 A  
DOCKED: ATOM     19  C   UNL     1     -59.315 -36.179   8.934 -0.07 +0.00    +0.001 A  
DOCKED: ATOM     20  C   UNL     1     -59.117 -34.877   9.394 -0.04 +0.00    +0.029 A  
DOCKED: ATOM     21  C   UNL     1     -57.842 -34.313   9.365 -0.02 +0.00    +0.140 A  
DOCKED: ATOM     22  C   UNL     1     -56.764 -35.050   8.876 -0.07 +0.00    +0.029 A  
DOCKED: ATOM     23  F   UNL     1     -57.652 -33.064   9.808 +0.00 -0.00    -0.204 F  
DOCKED: ATOM     24  C   UNL     1     -56.961 -36.353   8.414 -0.15 +0.00    +0.001 A  
DOCKED: ENDBRANCH   2  18
DOCKED: TORSDOF 5
DOCKED: TER
DOCKED: ENDMDL
________________________________________________________________________________


    FINAL DOCKED STATE:
    ________________________


Run:   19 / 512
Time taken for this run:   0.002s

DOCKED: MODEL        19
DOCKED: USER    Run = 19
DOCKED: USER
DOCKED: USER    Estimated Free Energy of Binding    =  -4.37 kcal/mol  [=(1)+(2)+(3)-(4)]
DOCKED: USER
DOCKED: USER    (1) Final Intermolecular Energy     =  -5.86 kcal/mol
DOCKED: USER        vdW + Hbond + desolv Energy     =  -5.86 kcal/mol
DOCKED: USER        Electrostatic Energy            =  +0.00 kcal/mol
DOCKED: USER        Moving Ligand-Fixed Receptor    =  -5.86 kcal/mol
DOCKED: USER        Moving Ligand-Moving Receptor   =  +0.00 kcal/mol
DOCKED: USER    (2) Final Total Internal Energy     =  -1.52 kcal/mol
DOCKED: USER    (3) Torsional Free Energy           =  +1.49 kcal/mol
DOCKED: USER    (4) Unbound System's Energy         =  -1.52 kcal/mol
DOCKED: USER
DOCKED: USER
DOCKED: REMARK  5 active torsions:
DOCKED: REMARK  status: ('A' for Active; 'I' for Inactive)
DOCKED: REMARK    1  A    between atoms: C_2  and  C_19 
DOCKED: REMARK    2  A    between atoms: C_2  and  C_11 
DOCKED: REMARK    3  A    between atoms: C_19  and  C_20 
DOCKED: REMARK    4  A    between atoms: C_20  and  C_21 
DOCKED: REMARK    5  A    between atoms: C_21  and  N_22 
DOCKED: USER                              x       y       z     vdW  Elec       q    Type
DOCKED: USER                           _______ _______ _______ _____ _____    ______ ____
DOCKED: ROOT
DOCKED: ATOM      1  O   UNL     1     -59.107 -36.139   8.611 -0.01 -0.00    -0.346 OA 
DOCKED: ATOM      2  C   UNL     1     -58.061 -37.157   8.510 -0.12 +0.00    +0.130 C  
DOCKED: ATOM      3  C   UNL     1     -58.285 -37.771   7.158 -0.27 +0.00    +0.004 A  
DOCKED: ATOM      4  C   UNL     1     -59.299 -37.090   6.499 -0.27 +0.00    +0.006 A  
DOCKED: ATOM      5  C   UNL     1     -59.800 -35.987   7.350 -0.16 +0.00    +0.169 C  
DOCKED: ATOM      6  C   UNL     1     -57.637 -38.839   6.556 -0.40 -0.00    -0.001 A  
DOCKED: ATOM      7  C   UNL     1     -59.700 -37.453   5.225 -0.13 +0.00    +0.008 A  
DOCKED: ATOM      8  C   UNL     1     -58.033 -39.220   5.273 -0.40 +0.00    +0.010 A  
DOCKED: ATOM      9  C   UNL     1     -59.059 -38.530   4.611 -0.41 +0.00    +0.068 A  
DOCKED: ATOM     10  N   UNL     1     -59.766 -39.260   2.227 -2.10 -0.00    -0.191 NA 
DOCKED: ATOM     11  C   UNL     1     -59.450 -38.933   3.297 -0.51 +0.00    +0.101 C  
DOCKED: ENDROOT
DOCKED: BRANCH   2  12
DOCKED: ATOM     12  C   UNL     1     -56.706 -36.471   8.632 -0.16 +0.00    +0.038 C  
DOCKED: BRANCH  12  13
DOCKED: ATOM     13  C   UNL     1     -56.417 -36.062  10.075 -0.07 +0.00    +0.038 C  
DOCKED: BRANCH  13  14
DOCKED: ATOM     14  C   UNL     1     -57.047 -34.709  10.400 -0.01 +0.00    +0.251 C  
DOCKED: BRANCH  14  15
DOCKED: ATOM     15  N   UNL     1     -58.353 -34.893  11.021 -0.01 +0.00    +0.141 N  
DOCKED: ATOM     16  C   UNL     1     -58.231 -34.928  12.479 -0.00 +0.00    +0.285 C  
DOCKED: ATOM     17  C   UNL     1     -59.273 -33.829  10.614 -0.00 +0.00    +0.285 C  
DOCKED: ENDBRANCH  14  15
DOCKED: ENDBRANCH  13  14
DOCKED: ENDBRANCH  12  13
DOCKED: ENDBRANCH   2  12
DOCKED: BRANCH   2  18
DOCKED: ATOM     18  C   UNL     1     -58.280 -38.120   9.629 -0.15 +0.00    +0.006 A  
DOCKED: ATOM     19  C   UNL     1     -57.333 -39.109   9.893 -0.14 +0.00    +0.001 A  
DOCKED: ATOM     20  C   UNL     1     -57.539 -40.009  10.939 -0.23 +0.00    +0.029 A  
DOCKED: ATOM     21  C   UNL     1     -58.690 -39.917  11.721 -0.04 +0.00    +0.140 A  
DOCKED: ATOM     22  C   UNL     1     -59.636 -38.927  11.457 -0.13 +0.00    +0.029 A  
DOCKED: ATOM     23  F   UNL     1     -58.887 -40.780  12.727 -0.05 -0.00    -0.204 F  
DOCKED: ATOM     24  C   UNL     1     -59.431 -38.027  10.410 -0.10 +0.00    +0.001 A  
DOCKED: ENDBRANCH   2  18
DOCKED: TORSDOF 5
DOCKED: TER
DOCKED: ENDMDL
________________________________________________________________________________


    FINAL DOCKED STATE:
    ________________________


Run:   20 / 512
Time taken for this run:   0.002s

DOCKED: MODEL        20
DOCKED: USER    Run = 20
DOCKED: USER
DOCKED: USER    Estimated Free Energy of Binding    =  -5.57 kcal/mol  [=(1)+(2)+(3)-(4)]
DOCKED: USER
DOCKED: USER    (1) Final Intermolecular Energy     =  -7.06 kcal/mol
DOCKED: USER        vdW + Hbond + desolv Energy     =  -7.06 kcal/mol
DOCKED: USER        Electrostatic Energy            =  +0.00 kcal/mol
DOCKED: USER        Moving Ligand-Fixed Receptor    =  -7.06 kcal/mol
DOCKED: USER        Moving Ligand-Moving Receptor   =  +0.00 kcal/mol
DOCKED: USER    (2) Final Total Internal Energy     =  -1.53 kcal/mol
DOCKED: USER    (3) Torsional Free Energy           =  +1.49 kcal/mol
DOCKED: USER    (4) Unbound System's Energy         =  -1.53 kcal/mol
DOCKED: USER
DOCKED: USER
DOCKED: REMARK  5 active torsions:
DOCKED: REMARK  status: ('A' for Active; 'I' for Inactive)
DOCKED: REMARK    1  A    between atoms: C_2  and  C_19 
DOCKED: REMARK    2  A    between atoms: C_2  and  C_11 
DOCKED: REMARK    3  A    between atoms: C_19  and  C_20 
DOCKED: REMARK    4  A    between atoms: C_20  and  C_21 
DOCKED: REMARK    5  A    between atoms: C_21  and  N_22 
DOCKED: USER                              x       y       z     vdW  Elec       q    Type
DOCKED: USER                           _______ _______ _______ _____ _____    ______ ____
DOCKED: ROOT
DOCKED: ATOM      1  O   UNL     1     -57.961 -37.687   8.083 -0.05 -0.00    -0.346 OA 
DOCKED: ATOM      2  C   UNL     1     -59.287 -38.307   8.071 -0.16 +0.00    +0.130 C  
DOCKED: ATOM      3  C   UNL     1     -59.608 -38.440   6.611 -0.27 +0.00    +0.004 A  
DOCKED: ATOM      4  C   UNL     1     -58.518 -38.035   5.854 -0.38 +0.00    +0.006 A  
DOCKED: ATOM      5  C   UNL     1     -57.411 -37.624   6.746 -0.25 +0.00    +0.169 C  
DOCKED: ATOM      6  C   UNL     1     -60.769 -38.894   6.001 -0.28 -0.00    -0.001 A  
DOCKED: ATOM      7  C   UNL     1     -58.550 -38.065   4.470 -0.32 +0.00    +0.008 A  
DOCKED: ATOM      8  C   UNL     1     -60.818 -38.927   4.606 -0.32 +0.00    +0.010 A  
DOCKED: ATOM      9  C   UNL     1     -59.714 -38.515   3.845 -0.40 +0.00    +0.068 A  
DOCKED: ATOM     10  N   UNL     1     -59.838 -38.592   1.258 -3.14 -0.00    -0.191 NA 
DOCKED: ATOM     11  C   UNL     1     -59.783 -38.557   2.418 -0.27 +0.00    +0.101 C  
DOCKED: ENDROOT
DOCKED: BRANCH   2  12
DOCKED: ATOM     12  C   UNL     1     -59.197 -39.651   8.784 -0.28 +0.00    +0.038 C  
DOCKED: BRANCH  12  13
DOCKED: ATOM     13  C   UNL     1     -57.928 -39.751   9.628 -0.27 +0.00    +0.038 C  
DOCKED: BRANCH  13  14
DOCKED: ATOM     14  C   UNL     1     -58.051 -38.921  10.905 -0.12 +0.00    +0.251 C  
DOCKED: BRANCH  14  15
DOCKED: ATOM     15  N   UNL     1     -57.169 -37.761  10.843 -0.08 +0.00    +0.141 N  
DOCKED: ATOM     16  C   UNL     1     -57.767 -36.621  11.540 -0.01 +0.00    +0.285 C  
DOCKED: ATOM     17  C   UNL     1     -55.860 -38.077  11.416 -0.07 +0.00    +0.285 C  
DOCKED: ENDBRANCH  14  15
DOCKED: ENDBRANCH  13  14
DOCKED: ENDBRANCH  12  13
DOCKED: ENDBRANCH   2  12
DOCKED: BRANCH   2  18
DOCKED: ATOM     18  C   UNL     1     -60.209 -37.378   8.787 -0.10 +0.00    +0.006 A  
DOCKED: ATOM     19  C   UNL     1     -61.153 -37.884   9.679 -0.09 +0.00    +0.001 A  
DOCKED: ATOM     20  C   UNL     1     -62.016 -37.014  10.348 -0.05 +0.00    +0.029 A  
DOCKED: ATOM     21  C   UNL     1     -61.932 -35.641  10.124 -0.01 +0.00    +0.140 A  
DOCKED: ATOM     22  C   UNL     1     -60.987 -35.135   9.232 -0.05 +0.00    +0.029 A  
DOCKED: ATOM     23  F   UNL     1     -62.759 -34.806  10.768 +0.01 -0.00    -0.204 F  
DOCKED: ATOM     24  C   UNL     1     -60.125 -36.004   8.562 -0.09 +0.00    +0.001 A  
DOCKED: ENDBRANCH   2  18
DOCKED: TORSDOF 5
DOCKED: TER
DOCKED: ENDMDL
________________________________________________________________________________


    FINAL DOCKED STATE:
    ________________________


Run:   21 / 512
Time taken for this run:   0.002s

DOCKED: MODEL        21
DOCKED: USER    Run = 21
DOCKED: USER
DOCKED: USER    Estimated Free Energy of Binding    =  -4.23 kcal/mol  [=(1)+(2)+(3)-(4)]
DOCKED: USER
DOCKED: USER    (1) Final Intermolecular Energy     =  -5.72 kcal/mol
DOCKED: USER        vdW + Hbond + desolv Energy     =  -5.72 kcal/mol
DOCKED: USER        Electrostatic Energy            =  +0.00 kcal/mol
DOCKED: USER        Moving Ligand-Fixed Receptor    =  -5.72 kcal/mol
DOCKED: USER        Moving Ligand-Moving Receptor   =  +0.00 kcal/mol
DOCKED: USER    (2) Final Total Internal Energy     =  -1.32 kcal/mol
DOCKED: USER    (3) Torsional Free Energy           =  +1.49 kcal/mol
DOCKED: USER    (4) Unbound System's Energy         =  -1.32 kcal/mol
DOCKED: USER
DOCKED: USER
DOCKED: REMARK  5 active torsions:
DOCKED: REMARK  status: ('A' for Active; 'I' for Inactive)
DOCKED: REMARK    1  A    between atoms: C_2  and  C_19 
DOCKED: REMARK    2  A    between atoms: C_2  and  C_11 
DOCKED: REMARK    3  A    between atoms: C_19  and  C_20 
DOCKED: REMARK    4  A    between atoms: C_20  and  C_21 
DOCKED: REMARK    5  A    between atoms: C_21  and  N_22 
DOCKED: USER                              x       y       z     vdW  Elec       q    Type
DOCKED: USER                           _______ _______ _______ _____ _____    ______ ____
DOCKED: ROOT
DOCKED: ATOM      1  O   UNL     1     -54.745 -36.269   8.671 -0.08 -0.00    -0.346 OA 
DOCKED: ATOM      2  C   UNL     1     -55.622 -35.313   7.995 -0.13 +0.00    +0.130 C  
DOCKED: ATOM      3  C   UNL     1     -56.639 -36.179   7.309 -0.19 +0.00    +0.004 A  
DOCKED: ATOM      4  C   UNL     1     -56.428 -37.507   7.653 -0.25 +0.00    +0.006 A  
DOCKED: ATOM      5  C   UNL     1     -55.284 -37.609   8.586 -0.11 +0.00    +0.169 C  
DOCKED: ATOM      6  C   UNL     1     -57.674 -35.820   6.459 -0.28 -0.00    -0.001 A  
DOCKED: ATOM      7  C   UNL     1     -57.237 -38.517   7.159 -0.35 +0.00    +0.008 A  
DOCKED: ATOM      8  C   UNL     1     -58.495 -36.827   5.948 -0.33 +0.00    +0.010 A  
DOCKED: ATOM      9  C   UNL     1     -58.278 -38.168   6.298 -0.31 +0.00    +0.068 A  
DOCKED: ATOM     10  N   UNL     1     -59.824 -40.012   5.337 -2.53 -0.00    -0.191 NA 
DOCKED: ATOM     11  C   UNL     1     -59.130 -39.185   5.767 -0.37 +0.00    +0.101 C  
DOCKED: ENDROOT
DOCKED: BRANCH   2  12
DOCKED: ATOM     12  C   UNL     1     -56.236 -34.395   9.045 -0.06 +0.00    +0.038 C  
DOCKED: BRANCH  12  13
DOCKED: ATOM     13  C   UNL     1     -57.673 -34.800   9.367 -0.05 +0.00    +0.038 C  
DOCKED: BRANCH  13  14
DOCKED: ATOM     14  C   UNL     1     -57.725 -35.719  10.586 -0.01 +0.00    +0.251 C  
DOCKED: BRANCH  14  15
DOCKED: ATOM     15  N   UNL     1     -58.660 -36.814  10.358 -0.03 +0.00    +0.141 N  
DOCKED: ATOM     16  C   UNL     1     -59.424 -37.102  11.572 -0.01 +0.00    +0.285 C  
DOCKED: ATOM     17  C   UNL     1     -59.566 -36.496   9.252 -0.02 +0.00    +0.285 C  
DOCKED: ENDBRANCH  14  15
DOCKED: ENDBRANCH  13  14
DOCKED: ENDBRANCH  12  13
DOCKED: ENDBRANCH   2  12
DOCKED: BRANCH   2  18
DOCKED: ATOM     18  C   UNL     1     -54.774 -34.544   7.038 -0.09 +0.00    +0.006 A  
DOCKED: ATOM     19  C   UNL     1     -55.359 -33.613   6.180 -0.16 +0.00    +0.001 A  
DOCKED: ATOM     20  C   UNL     1     -54.564 -32.896   5.285 -0.12 +0.00    +0.029 A  
DOCKED: ATOM     21  C   UNL     1     -53.187 -33.108   5.250 -0.07 +0.00    +0.140 A  
DOCKED: ATOM     22  C   UNL     1     -52.602 -34.039   6.108 -0.10 +0.00    +0.029 A  
DOCKED: ATOM     23  F   UNL     1     -52.424 -32.418   4.392 -0.00 -0.00    -0.204 F  
DOCKED: ATOM     24  C   UNL     1     -53.396 -34.758   7.003 -0.08 +0.00    +0.001 A  
DOCKED: ENDBRANCH   2  18
DOCKED: TORSDOF 5
DOCKED: TER
DOCKED: ENDMDL
________________________________________________________________________________


    FINAL DOCKED STATE:
    ________________________


Run:   22 / 512
Time taken for this run:   0.002s

DOCKED: MODEL        22
DOCKED: USER    Run = 22
DOCKED: USER
DOCKED: USER    Estimated Free Energy of Binding    =  -3.48 kcal/mol  [=(1)+(2)+(3)-(4)]
DOCKED: USER
DOCKED: USER    (1) Final Intermolecular Energy     =  -4.97 kcal/mol
DOCKED: USER        vdW + Hbond + desolv Energy     =  -4.97 kcal/mol
DOCKED: USER        Electrostatic Energy            =  +0.00 kcal/mol
DOCKED: USER        Moving Ligand-Fixed Receptor    =  -4.97 kcal/mol
DOCKED: USER        Moving Ligand-Moving Receptor   =  +0.00 kcal/mol
DOCKED: USER    (2) Final Total Internal Energy     =  -1.46 kcal/mol
DOCKED: USER    (3) Torsional Free Energy           =  +1.49 kcal/mol
DOCKED: USER    (4) Unbound System's Energy         =  -1.46 kcal/mol
DOCKED: USER
DOCKED: USER
DOCKED: REMARK  5 active torsions:
DOCKED: REMARK  status: ('A' for Active; 'I' for Inactive)
DOCKED: REMARK    1  A    between atoms: C_2  and  C_19 
DOCKED: REMARK    2  A    between atoms: C_2  and  C_11 
DOCKED: REMARK    3  A    between atoms: C_19  and  C_20 
DOCKED: REMARK    4  A    between atoms: C_20  and  C_21 
DOCKED: REMARK    5  A    between atoms: C_21  and  N_22 
DOCKED: USER                              x       y       z     vdW  Elec       q    Type
DOCKED: USER                           _______ _______ _______ _____ _____    ______ ____
DOCKED: ROOT
DOCKED: ATOM      1  O   UNL     1     -53.312 -34.587   1.145 -0.05 -0.00    -0.346 OA 
DOCKED: ATOM      2  C   UNL     1     -52.317 -34.445   2.209 -0.11 +0.00    +0.130 C  
DOCKED: ATOM      3  C   UNL     1     -52.100 -35.851   2.688 -0.19 +0.00    +0.004 A  
DOCKED: ATOM      4  C   UNL     1     -52.823 -36.731   1.896 -0.31 +0.00    +0.006 A  
DOCKED: ATOM      5  C   UNL     1     -53.547 -35.982   0.845 -0.17 +0.00    +0.169 C  
DOCKED: ATOM      6  C   UNL     1     -51.317 -36.315   3.735 -0.16 -0.00    -0.001 A  
DOCKED: ATOM      7  C   UNL     1     -52.792 -38.097   2.122 -0.29 +0.00    +0.008 A  
DOCKED: ATOM      8  C   UNL     1     -51.279 -37.689   3.979 -0.21 +0.00    +0.010 A  
DOCKED: ATOM      9  C   UNL     1     -52.012 -38.575   3.176 -0.23 +0.00    +0.068 A  
DOCKED: ATOM     10  N   UNL     1     -51.916 -41.120   3.653 -2.19 -0.00    -0.191 NA 
DOCKED: ATOM     11  C   UNL     1     -51.960 -39.979   3.440 -0.39 +0.00    +0.101 C  
DOCKED: ENDROOT
DOCKED: BRANCH   2  12
DOCKED: ATOM     12  C   UNL     1     -51.060 -33.820   1.614 -0.04 +0.00    +0.038 C  
DOCKED: BRANCH  12  13
DOCKED: ATOM     13  C   UNL     1     -50.029 -34.886   1.246 -0.03 +0.00    +0.038 C  
DOCKED: BRANCH  13  14
DOCKED: ATOM     14  C   UNL     1     -50.303 -35.458  -0.143 -0.04 +0.00    +0.251 C  
DOCKED: BRANCH  14  15
DOCKED: ATOM     15  N   UNL     1     -49.717 -36.787  -0.269 -0.05 +0.00    +0.141 N  
DOCKED: ATOM     16  C   UNL     1     -49.093 -37.197   0.990 -0.00 +0.00    +0.285 C  
DOCKED: ATOM     17  C   UNL     1     -50.731 -37.762  -0.674 -0.03 +0.00    +0.285 C  
DOCKED: ENDBRANCH  14  15
DOCKED: ENDBRANCH  13  14
DOCKED: ENDBRANCH  12  13
DOCKED: ENDBRANCH   2  12
DOCKED: BRANCH   2  18
DOCKED: ATOM     18  C   UNL     1     -52.915 -33.561   3.252 -0.11 +0.00    +0.006 A  
DOCKED: ATOM     19  C   UNL     1     -52.159 -32.532   3.811 -0.04 +0.00    +0.001 A  
DOCKED: ATOM     20  C   UNL     1     -52.720 -31.706   4.786 -0.03 +0.00    +0.029 A  
DOCKED: ATOM     21  C   UNL     1     -54.036 -31.910   5.200 -0.05 +0.00    +0.140 A  
DOCKED: ATOM     22  C   UNL     1     -54.792 -32.940   4.639 -0.13 +0.00    +0.029 A  
DOCKED: ATOM     23  F   UNL     1     -54.575 -31.116   6.134 -0.00 -0.00    -0.204 F  
DOCKED: ATOM     24  C   UNL     1     -54.231 -33.766   3.664 -0.12 +0.00    +0.001 A  
DOCKED: ENDBRANCH   2  18
DOCKED: TORSDOF 5
DOCKED: TER
DOCKED: ENDMDL
________________________________________________________________________________


    FINAL DOCKED STATE:
    ________________________


Run:   23 / 512
Time taken for this run:   0.002s

DOCKED: MODEL        23
DOCKED: USER    Run = 23
DOCKED: USER
DOCKED: USER    Estimated Free Energy of Binding    =  -4.34 kcal/mol  [=(1)+(2)+(3)-(4)]
DOCKED: USER
DOCKED: USER    (1) Final Intermolecular Energy     =  -5.84 kcal/mol
DOCKED: USER        vdW + Hbond + desolv Energy     =  -5.84 kcal/mol
DOCKED: USER        Electrostatic Energy            =  +0.00 kcal/mol
DOCKED: USER        Moving Ligand-Fixed Receptor    =  -5.84 kcal/mol
DOCKED: USER        Moving Ligand-Moving Receptor   =  +0.00 kcal/mol
DOCKED: USER    (2) Final Total Internal Energy     =  -1.17 kcal/mol
DOCKED: USER    (3) Torsional Free Energy           =  +1.49 kcal/mol
DOCKED: USER    (4) Unbound System's Energy         =  -1.17 kcal/mol
DOCKED: USER
DOCKED: USER
DOCKED: REMARK  5 active torsions:
DOCKED: REMARK  status: ('A' for Active; 'I' for Inactive)
DOCKED: REMARK    1  A    between atoms: C_2  and  C_19 
DOCKED: REMARK    2  A    between atoms: C_2  and  C_11 
DOCKED: REMARK    3  A    between atoms: C_19  and  C_20 
DOCKED: REMARK    4  A    between atoms: C_20  and  C_21 
DOCKED: REMARK    5  A    between atoms: C_21  and  N_22 
DOCKED: USER                              x       y       z     vdW  Elec       q    Type
DOCKED: USER                           _______ _______ _______ _____ _____    ______ ____
DOCKED: ROOT
DOCKED: ATOM      1  O   UNL     1     -57.695 -33.378   6.929 -0.07 -0.00    -0.346 OA 
DOCKED: ATOM      2  C   UNL     1     -59.097 -33.507   7.328 -0.16 +0.00    +0.130 C  
DOCKED: ATOM      3  C   UNL     1     -59.454 -34.913   6.941 -0.23 +0.00    +0.004 A  
DOCKED: ATOM      4  C   UNL     1     -58.325 -35.567   6.465 -0.26 +0.00    +0.006 A  
DOCKED: ATOM      5  C   UNL     1     -57.159 -34.657   6.516 -0.19 +0.00    +0.169 C  
DOCKED: ATOM      6  C   UNL     1     -60.676 -35.566   7.014 -0.22 -0.00    -0.001 A  
DOCKED: ATOM      7  C   UNL     1     -58.379 -36.885   6.045 -0.33 +0.00    +0.008 A  
DOCKED: ATOM      8  C   UNL     1     -60.747 -36.894   6.590 -0.23 +0.00    +0.010 A  
DOCKED: ATOM      9  C   UNL     1     -59.605 -37.550   6.108 -0.25 +0.00    +0.068 A  
DOCKED: ATOM     10  N   UNL     1     -59.772 -40.017   5.334 -2.55 -0.00    -0.191 NA 
DOCKED: ATOM     11  C   UNL     1     -59.697 -38.910   5.681 -0.36 +0.00    +0.101 C  
DOCKED: ENDROOT
DOCKED: BRANCH   2  12
DOCKED: ATOM     12  C   UNL     1     -59.197 -33.262   8.829 -0.05 +0.00    +0.038 C  
DOCKED: BRANCH  12  13
DOCKED: ATOM     13  C   UNL     1     -58.478 -31.976   9.232 -0.02 +0.00    +0.038 C  
DOCKED: BRANCH  13  14
DOCKED: ATOM     14  C   UNL     1     -57.631 -32.189  10.484 -0.00 +0.00    +0.251 C  
DOCKED: BRANCH  14  15
DOCKED: ATOM     15  N   UNL     1     -56.214 -32.045  10.169 -0.00 +0.00    +0.141 N  
DOCKED: ATOM     16  C   UNL     1     -55.422 -31.928  11.394 -0.00 +0.00    +0.285 C  
DOCKED: ATOM     17  C   UNL     1     -55.746 -33.178   9.368 -0.01 +0.00    +0.285 C  
DOCKED: ENDBRANCH  14  15
DOCKED: ENDBRANCH  13  14
DOCKED: ENDBRANCH  12  13
DOCKED: ENDBRANCH   2  12
DOCKED: BRANCH   2  18
DOCKED: ATOM     18  C   UNL     1     -59.865 -32.481   6.562 -0.21 +0.00    +0.006 A  
DOCKED: ATOM     19  C   UNL     1     -61.251 -32.410   6.690 -0.21 +0.00    +0.001 A  
DOCKED: ATOM     20  C   UNL     1     -61.967 -31.450   5.973 -0.13 +0.00    +0.029 A  
DOCKED: ATOM     21  C   UNL     1     -61.296 -30.564   5.132 -0.04 +0.00    +0.140 A  
DOCKED: ATOM     22  C   UNL     1     -59.909 -30.636   5.005 -0.13 +0.00    +0.029 A  
DOCKED: ATOM     23  F   UNL     1     -61.984 -29.642   4.445 -0.03 -0.00    -0.204 F  
DOCKED: ATOM     24  C   UNL     1     -59.192 -31.596   5.721 -0.15 +0.00    +0.001 A  
DOCKED: ENDBRANCH   2  18
DOCKED: TORSDOF 5
DOCKED: TER
DOCKED: ENDMDL
________________________________________________________________________________


    FINAL DOCKED STATE:
    ________________________


Run:   24 / 512
Time taken for this run:   0.002s

DOCKED: MODEL        24
DOCKED: USER    Run = 24
DOCKED: USER
DOCKED: USER    Estimated Free Energy of Binding    =  -3.88 kcal/mol  [=(1)+(2)+(3)-(4)]
DOCKED: USER
DOCKED: USER    (1) Final Intermolecular Energy     =  -5.37 kcal/mol
DOCKED: USER        vdW + Hbond + desolv Energy     =  -5.37 kcal/mol
DOCKED: USER        Electrostatic Energy            =  +0.00 kcal/mol
DOCKED: USER        Moving Ligand-Fixed Receptor    =  -5.37 kcal/mol
DOCKED: USER        Moving Ligand-Moving Receptor   =  +0.00 kcal/mol
DOCKED: USER    (2) Final Total Internal Energy     =  -1.15 kcal/mol
DOCKED: USER    (3) Torsional Free Energy           =  +1.49 kcal/mol
DOCKED: USER    (4) Unbound System's Energy         =  -1.15 kcal/mol
DOCKED: USER
DOCKED: USER
DOCKED: REMARK  5 active torsions:
DOCKED: REMARK  status: ('A' for Active; 'I' for Inactive)
DOCKED: REMARK    1  A    between atoms: C_2  and  C_19 
DOCKED: REMARK    2  A    between atoms: C_2  and  C_11 
DOCKED: REMARK    3  A    between atoms: C_19  and  C_20 
DOCKED: REMARK    4  A    between atoms: C_20  and  C_21 
DOCKED: REMARK    5  A    between atoms: C_21  and  N_22 
DOCKED: USER                              x       y       z     vdW  Elec       q    Type
DOCKED: USER                           _______ _______ _______ _____ _____    ______ ____
DOCKED: ROOT
DOCKED: ATOM      1  O   UNL     1     -49.985 -37.300  -1.573 -0.01 -0.00    -0.346 OA 
DOCKED: ATOM      2  C   UNL     1     -50.106 -36.323  -0.490 -0.07 +0.00    +0.130 C  
DOCKED: ATOM      3  C   UNL     1     -50.610 -37.133   0.670 -0.11 +0.00    +0.004 A  
DOCKED: ATOM      4  C   UNL     1     -50.667 -38.473   0.314 -0.15 +0.00    +0.006 A  
DOCKED: ATOM      5  C   UNL     1     -50.199 -38.643  -1.079 -0.10 +0.00    +0.169 C  
DOCKED: ATOM      6  C   UNL     1     -50.979 -36.718   1.941 -0.13 -0.00    -0.001 A  
DOCKED: ATOM      7  C   UNL     1     -51.094 -39.438   1.210 -0.26 +0.00    +0.008 A  
DOCKED: ATOM      8  C   UNL     1     -51.417 -37.679   2.854 -0.24 +0.00    +0.010 A  
DOCKED: ATOM      9  C   UNL     1     -51.473 -39.032   2.490 -0.29 +0.00    +0.068 A  
DOCKED: ATOM     10  N   UNL     1     -52.286 -40.791   4.210 -2.66 -0.00    -0.191 NA 
DOCKED: ATOM     11  C   UNL     1     -51.922 -40.002   3.438 -0.41 +0.00    +0.101 C  
DOCKED: ENDROOT
DOCKED: BRANCH   2  12
DOCKED: ATOM     12  C   UNL     1     -48.733 -35.712  -0.235 -0.01 +0.00    +0.038 C  
DOCKED: BRANCH  12  13
DOCKED: ATOM     13  C   UNL     1     -47.706 -36.783   0.128 -0.01 +0.00    +0.038 C  
DOCKED: BRANCH  13  14
DOCKED: ATOM     14  C   UNL     1     -47.254 -37.553  -1.111 -0.00 +0.00    +0.251 C  
DOCKED: BRANCH  14  15
DOCKED: ATOM     15  N   UNL     1     -46.440 -38.700  -0.726 -0.01 +0.00    +0.141 N  
DOCKED: ATOM     16  C   UNL     1     -46.189 -38.694   0.716 -0.01 +0.00    +0.285 C  
DOCKED: ATOM     17  C   UNL     1     -47.090 -39.950  -1.123 -0.01 +0.00    +0.285 C  
DOCKED: ENDBRANCH  14  15
DOCKED: ENDBRANCH  13  14
DOCKED: ENDBRANCH  12  13
DOCKED: ENDBRANCH   2  12
DOCKED: BRANCH   2  18
DOCKED: ATOM     18  C   UNL     1     -51.080 -35.288  -0.944 -0.11 +0.00    +0.006 A  
DOCKED: ATOM     19  C   UNL     1     -51.368 -34.196  -0.125 -0.08 +0.00    +0.001 A  
DOCKED: ATOM     20  C   UNL     1     -52.280 -33.229  -0.551 -0.10 +0.00    +0.029 A  
DOCKED: ATOM     21  C   UNL     1     -52.900 -33.354  -1.793 -0.17 +0.00    +0.140 A  
DOCKED: ATOM     22  C   UNL     1     -52.611 -34.446  -2.611 -0.21 +0.00    +0.029 A  
DOCKED: ATOM     23  F   UNL     1     -53.774 -32.425  -2.202 -0.10 -0.00    -0.204 F  
DOCKED: ATOM     24  C   UNL     1     -51.700 -35.415  -2.186 -0.13 +0.00    +0.001 A  
DOCKED: ENDBRANCH   2  18
DOCKED: TORSDOF 5
DOCKED: TER
DOCKED: ENDMDL
________________________________________________________________________________


    FINAL DOCKED STATE:
    ________________________


Run:   25 / 512
Time taken for this run:   0.002s

DOCKED: MODEL        25
DOCKED: USER    Run = 25
DOCKED: USER
DOCKED: USER    Estimated Free Energy of Binding    =  -5.56 kcal/mol  [=(1)+(2)+(3)-(4)]
DOCKED: USER
DOCKED: USER    (1) Final Intermolecular Energy     =  -7.05 kcal/mol
DOCKED: USER        vdW + Hbond + desolv Energy     =  -7.05 kcal/mol
DOCKED: USER        Electrostatic Energy            =  +0.00 kcal/mol
DOCKED: USER        Moving Ligand-Fixed Receptor    =  -7.05 kcal/mol
DOCKED: USER        Moving Ligand-Moving Receptor   =  +0.00 kcal/mol
DOCKED: USER    (2) Final Total Internal Energy     =  -1.22 kcal/mol
DOCKED: USER    (3) Torsional Free Energy           =  +1.49 kcal/mol
DOCKED: USER    (4) Unbound System's Energy         =  -1.22 kcal/mol
DOCKED: USER
DOCKED: USER
DOCKED: REMARK  5 active torsions:
DOCKED: REMARK  status: ('A' for Active; 'I' for Inactive)
DOCKED: REMARK    1  A    between atoms: C_2  and  C_19 
DOCKED: REMARK    2  A    between atoms: C_2  and  C_11 
DOCKED: REMARK    3  A    between atoms: C_19  and  C_20 
DOCKED: REMARK    4  A    between atoms: C_20  and  C_21 
DOCKED: REMARK    5  A    between atoms: C_21  and  N_22 
DOCKED: USER                              x       y       z     vdW  Elec       q    Type
DOCKED: USER                           _______ _______ _______ _____ _____    ______ ____
DOCKED: ROOT
DOCKED: ATOM      1  O   UNL     1     -57.793 -37.350   7.941 -0.05 -0.00    -0.346 OA 
DOCKED: ATOM      2  C   UNL     1     -59.094 -38.013   8.034 -0.15 +0.00    +0.130 C  
DOCKED: ATOM      3  C   UNL     1     -59.464 -38.280   6.603 -0.27 +0.00    +0.004 A  
DOCKED: ATOM      4  C   UNL     1     -58.419 -37.904   5.772 -0.38 +0.00    +0.006 A  
DOCKED: ATOM      5  C   UNL     1     -57.295 -37.382   6.583 -0.21 +0.00    +0.169 C  
DOCKED: ATOM      6  C   UNL     1     -60.629 -38.823   6.081 -0.29 -0.00    -0.001 A  
DOCKED: ATOM      7  C   UNL     1     -58.501 -38.053   4.398 -0.25 +0.00    +0.008 A  
DOCKED: ATOM      8  C   UNL     1     -60.729 -38.975   4.697 -0.35 +0.00    +0.010 A  
DOCKED: ATOM      9  C   UNL     1     -59.670 -38.592   3.860 -0.41 +0.00    +0.068 A  
DOCKED: ATOM     10  N   UNL     1     -59.887 -38.893   1.296 -3.09 -0.00    -0.191 NA 
DOCKED: ATOM     11  C   UNL     1     -59.790 -38.757   2.446 -0.25 +0.00    +0.101 C  
DOCKED: ENDROOT
DOCKED: BRANCH   2  12
DOCKED: ATOM     12  C   UNL     1     -58.929 -39.288   8.852 -0.28 +0.00    +0.038 C  
DOCKED: BRANCH  12  13
DOCKED: ATOM     13  C   UNL     1     -57.662 -39.243   9.703 -0.25 +0.00    +0.038 C  
DOCKED: BRANCH  13  14
DOCKED: ATOM     14  C   UNL     1     -57.894 -38.459  10.994 -0.10 +0.00    +0.251 C  
DOCKED: BRANCH  14  15
DOCKED: ATOM     15  N   UNL     1     -58.017 -39.370  12.126 -0.14 +0.00    +0.141 N  
DOCKED: ATOM     16  C   UNL     1     -59.405 -39.803  12.291 -0.08 +0.00    +0.285 C  
DOCKED: ATOM     17  C   UNL     1     -57.141 -40.530  11.951 -0.13 +0.00    +0.285 C  
DOCKED: ENDBRANCH  14  15
DOCKED: ENDBRANCH  13  14
DOCKED: ENDBRANCH  12  13
DOCKED: ENDBRANCH   2  12
DOCKED: BRANCH   2  18
DOCKED: ATOM     18  C   UNL     1     -60.023 -37.057   8.706 -0.09 +0.00    +0.006 A  
DOCKED: ATOM     19  C   UNL     1     -61.003 -37.534   9.575 -0.08 +0.00    +0.001 A  
DOCKED: ATOM     20  C   UNL     1     -61.871 -36.640  10.203 -0.04 +0.00    +0.029 A  
DOCKED: ATOM     21  C   UNL     1     -61.757 -35.272   9.962 -0.01 +0.00    +0.140 A  
DOCKED: ATOM     22  C   UNL     1     -60.776 -34.796   9.093 -0.05 +0.00    +0.029 A  
DOCKED: ATOM     23  F   UNL     1     -62.590 -34.414  10.566 +0.01 -0.00    -0.204 F  
DOCKED: ATOM     24  C   UNL     1     -59.908 -35.689   8.464 -0.09 +0.00    +0.001 A  
DOCKED: ENDBRANCH   2  18
DOCKED: TORSDOF 5
DOCKED: TER
DOCKED: ENDMDL
________________________________________________________________________________


    FINAL DOCKED STATE:
    ________________________


Run:   26 / 512
Time taken for this run:   0.002s

DOCKED: MODEL        26
DOCKED: USER    Run = 26
DOCKED: USER
DOCKED: USER    Estimated Free Energy of Binding    =  -4.21 kcal/mol  [=(1)+(2)+(3)-(4)]
DOCKED: USER
DOCKED: USER    (1) Final Intermolecular Energy     =  -5.70 kcal/mol
DOCKED: USER        vdW + Hbond + desolv Energy     =  -5.70 kcal/mol
DOCKED: USER        Electrostatic Energy            =  +0.00 kcal/mol
DOCKED: USER        Moving Ligand-Fixed Receptor    =  -5.70 kcal/mol
DOCKED: USER        Moving Ligand-Moving Receptor   =  +0.00 kcal/mol
DOCKED: USER    (2) Final Total Internal Energy     =  -1.23 kcal/mol
DOCKED: USER    (3) Torsional Free Energy           =  +1.49 kcal/mol
DOCKED: USER    (4) Unbound System's Energy         =  -1.23 kcal/mol
DOCKED: USER
DOCKED: USER
DOCKED: REMARK  5 active torsions:
DOCKED: REMARK  status: ('A' for Active; 'I' for Inactive)
DOCKED: REMARK    1  A    between atoms: C_2  and  C_19 
DOCKED: REMARK    2  A    between atoms: C_2  and  C_11 
DOCKED: REMARK    3  A    between atoms: C_19  and  C_20 
DOCKED: REMARK    4  A    between atoms: C_20  and  C_21 
DOCKED: REMARK    5  A    between atoms: C_21  and  N_22 
DOCKED: USER                              x       y       z     vdW  Elec       q    Type
DOCKED: USER                           _______ _______ _______ _____ _____    ______ ____
DOCKED: ROOT
DOCKED: ATOM      1  O   UNL     1     -55.247 -35.404   8.234 -0.07 -0.00    -0.346 OA 
DOCKED: ATOM      2  C   UNL     1     -56.368 -34.713   7.595 -0.14 +0.00    +0.130 C  
DOCKED: ATOM      3  C   UNL     1     -57.184 -35.825   7.002 -0.24 +0.00    +0.004 A  
DOCKED: ATOM      4  C   UNL     1     -56.639 -37.049   7.364 -0.20 +0.00    +0.006 A  
DOCKED: ATOM      5  C   UNL     1     -55.450 -36.836   8.220 -0.14 +0.00    +0.169 C  
DOCKED: ATOM      6  C   UNL     1     -58.324 -35.759   6.214 -0.25 -0.00    -0.001 A  
DOCKED: ATOM      7  C   UNL     1     -57.208 -38.242   6.952 -0.33 +0.00    +0.008 A  
DOCKED: ATOM      8  C   UNL     1     -58.907 -36.953   5.787 -0.31 +0.00    +0.010 A  
DOCKED: ATOM      9  C   UNL     1     -58.352 -38.188   6.154 -0.32 +0.00    +0.068 A  
DOCKED: ATOM     10  N   UNL     1     -59.462 -40.386   5.347 -2.61 -0.00    -0.191 NA 
DOCKED: ATOM     11  C   UNL     1     -58.963 -39.400   5.708 -0.31 +0.00    +0.101 C  
DOCKED: ENDROOT
DOCKED: BRANCH   2  12
DOCKED: ATOM     12  C   UNL     1     -57.122 -33.927   8.661 -0.06 +0.00    +0.038 C  
DOCKED: BRANCH  12  13
DOCKED: ATOM     13  C   UNL     1     -57.409 -34.788   9.889 -0.03 +0.00    +0.038 C  
DOCKED: BRANCH  13  14
DOCKED: ATOM     14  C   UNL     1     -56.250 -34.730  10.884 -0.01 +0.00    +0.251 C  
DOCKED: BRANCH  14  15
DOCKED: ATOM     15  N   UNL     1     -55.689 -33.385  10.930 -0.00 +0.00    +0.141 N  
DOCKED: ATOM     16  C   UNL     1     -56.574 -32.482  11.669 -0.00 +0.00    +0.285 C  
DOCKED: ATOM     17  C   UNL     1     -54.359 -33.402  11.540 -0.00 +0.00    +0.285 C  
DOCKED: ENDBRANCH  14  15
DOCKED: ENDBRANCH  13  14
DOCKED: ENDBRANCH  12  13
DOCKED: ENDBRANCH   2  12
DOCKED: BRANCH   2  18
DOCKED: ATOM     18  C   UNL     1     -55.789 -33.803   6.563 -0.16 +0.00    +0.006 A  
DOCKED: ATOM     19  C   UNL     1     -54.496 -34.021   6.089 -0.12 +0.00    +0.001 A  
DOCKED: ATOM     20  C   UNL     1     -53.955 -33.169   5.125 -0.12 +0.00    +0.029 A  
DOCKED: ATOM     21  C   UNL     1     -54.708 -32.102   4.637 -0.08 +0.00    +0.140 A  
DOCKED: ATOM     22  C   UNL     1     -56.001 -31.885   5.111 -0.07 +0.00    +0.029 A  
DOCKED: ATOM     23  F   UNL     1     -54.190 -31.286   3.710 -0.01 -0.00    -0.204 F  
DOCKED: ATOM     24  C   UNL     1     -56.543 -32.737   6.076 -0.12 +0.00    +0.001 A  
DOCKED: ENDBRANCH   2  18
DOCKED: TORSDOF 5
DOCKED: TER
DOCKED: ENDMDL
________________________________________________________________________________


    FINAL DOCKED STATE:
    ________________________


Run:   27 / 512
Time taken for this run:   0.002s

DOCKED: MODEL        27
DOCKED: USER    Run = 27
DOCKED: USER
DOCKED: USER    Estimated Free Energy of Binding    =  -4.19 kcal/mol  [=(1)+(2)+(3)-(4)]
DOCKED: USER
DOCKED: USER    (1) Final Intermolecular Energy     =  -5.69 kcal/mol
DOCKED: USER        vdW + Hbond + desolv Energy     =  -5.69 kcal/mol
DOCKED: USER        Electrostatic Energy            =  +0.00 kcal/mol
DOCKED: USER        Moving Ligand-Fixed Receptor    =  -5.69 kcal/mol
DOCKED: USER        Moving Ligand-Moving Receptor   =  +0.00 kcal/mol
DOCKED: USER    (2) Final Total Internal Energy     =  -1.40 kcal/mol
DOCKED: USER    (3) Torsional Free Energy           =  +1.49 kcal/mol
DOCKED: USER    (4) Unbound System's Energy         =  -1.40 kcal/mol
DOCKED: USER
DOCKED: USER
DOCKED: REMARK  5 active torsions:
DOCKED: REMARK  status: ('A' for Active; 'I' for Inactive)
DOCKED: REMARK    1  A    between atoms: C_2  and  C_19 
DOCKED: REMARK    2  A    between atoms: C_2  and  C_11 
DOCKED: REMARK    3  A    between atoms: C_19  and  C_20 
DOCKED: REMARK    4  A    between atoms: C_20  and  C_21 
DOCKED: REMARK    5  A    between atoms: C_21  and  N_22 
DOCKED: USER                              x       y       z     vdW  Elec       q    Type
DOCKED: USER                           _______ _______ _______ _____ _____    ______ ____
DOCKED: ROOT
DOCKED: ATOM      1  O   UNL     1     -49.702 -35.137   0.447 +0.01 -0.00    -0.346 OA 
DOCKED: ATOM      2  C   UNL     1     -51.160 -35.102   0.325 -0.08 +0.00    +0.130 C  
DOCKED: ATOM      3  C   UNL     1     -51.613 -36.320   1.077 -0.16 +0.00    +0.004 A  
DOCKED: ATOM      4  C   UNL     1     -50.520 -36.936   1.670 -0.10 +0.00    +0.006 A  
DOCKED: ATOM      5  C   UNL     1     -49.288 -36.173   1.367 -0.02 +0.00    +0.169 C  
DOCKED: ATOM      6  C   UNL     1     -52.891 -36.835   1.233 -0.27 -0.00    -0.001 A  
DOCKED: ATOM      7  C   UNL     1     -50.665 -38.083   2.431 -0.17 +0.00    +0.008 A  
DOCKED: ATOM      8  C   UNL     1     -53.053 -37.994   1.994 -0.23 +0.00    +0.010 A  
DOCKED: ATOM      9  C   UNL     1     -51.945 -38.614   2.590 -0.30 +0.00    +0.068 A  
DOCKED: ATOM     10  N   UNL     1     -52.282 -40.761   4.001 -2.61 -0.00    -0.191 NA 
DOCKED: ATOM     11  C   UNL     1     -52.131 -39.799   3.367 -0.32 +0.00    +0.101 C  
DOCKED: ENDROOT
DOCKED: BRANCH   2  12
DOCKED: ATOM     12  C   UNL     1     -51.665 -33.802   0.941 -0.06 +0.00    +0.038 C  
DOCKED: BRANCH  12  13
DOCKED: ATOM     13  C   UNL     1     -50.800 -33.375   2.125 -0.03 +0.00    +0.038 C  
DOCKED: BRANCH  13  14
DOCKED: ATOM     14  C   UNL     1     -51.661 -33.038   3.341 -0.02 +0.00    +0.251 C  
DOCKED: BRANCH  14  15
DOCKED: ATOM     15  N   UNL     1     -52.257 -34.250   3.891 -0.09 +0.00    +0.141 N  
DOCKED: ATOM     16  C   UNL     1     -51.446 -34.769   4.994 -0.07 +0.00    +0.285 C  
DOCKED: ATOM     17  C   UNL     1     -53.624 -33.992   4.345 -0.06 +0.00    +0.285 C  
DOCKED: ENDBRANCH  14  15
DOCKED: ENDBRANCH  13  14
DOCKED: ENDBRANCH  12  13
DOCKED: ENDBRANCH   2  12
DOCKED: BRANCH   2  18
DOCKED: ATOM     18  C   UNL     1     -51.478 -35.166  -1.132 -0.14 +0.00    +0.006 A  
DOCKED: ATOM     19  C   UNL     1     -52.378 -34.259  -1.689 -0.19 +0.00    +0.001 A  
DOCKED: ATOM     20  C   UNL     1     -52.674 -34.320  -3.051 -0.23 +0.00    +0.029 A  
DOCKED: ATOM     21  C   UNL     1     -52.070 -35.287  -3.854 -0.19 +0.00    +0.140 A  
DOCKED: ATOM     22  C   UNL     1     -51.170 -36.194  -3.296 -0.16 +0.00    +0.029 A  
DOCKED: ATOM     23  F   UNL     1     -52.354 -35.344  -5.162 -0.08 -0.00    -0.204 F  
DOCKED: ATOM     24  C   UNL     1     -50.873 -36.133  -1.933 -0.12 +0.00    +0.001 A  
DOCKED: ENDBRANCH   2  18
DOCKED: TORSDOF 5
DOCKED: TER
DOCKED: ENDMDL
________________________________________________________________________________


    FINAL DOCKED STATE:
    ________________________


Run:   28 / 512
Time taken for this run:   0.002s

DOCKED: MODEL        28
DOCKED: USER    Run = 28
DOCKED: USER
DOCKED: USER    Estimated Free Energy of Binding    =  -4.17 kcal/mol  [=(1)+(2)+(3)-(4)]
DOCKED: USER
DOCKED: USER    (1) Final Intermolecular Energy     =  -5.66 kcal/mol
DOCKED: USER        vdW + Hbond + desolv Energy     =  -5.66 kcal/mol
DOCKED: USER        Electrostatic Energy            =  +0.00 kcal/mol
DOCKED: USER        Moving Ligand-Fixed Receptor    =  -5.66 kcal/mol
DOCKED: USER        Moving Ligand-Moving Receptor   =  +0.00 kcal/mol
DOCKED: USER    (2) Final Total Internal Energy     =  -1.41 kcal/mol
DOCKED: USER    (3) Torsional Free Energy           =  +1.49 kcal/mol
DOCKED: USER    (4) Unbound System's Energy         =  -1.41 kcal/mol
DOCKED: USER
DOCKED: USER
DOCKED: REMARK  5 active torsions:
DOCKED: REMARK  status: ('A' for Active; 'I' for Inactive)
DOCKED: REMARK    1  A    between atoms: C_2  and  C_19 
DOCKED: REMARK    2  A    between atoms: C_2  and  C_11 
DOCKED: REMARK    3  A    between atoms: C_19  and  C_20 
DOCKED: REMARK    4  A    between atoms: C_20  and  C_21 
DOCKED: REMARK    5  A    between atoms: C_21  and  N_22 
DOCKED: USER                              x       y       z     vdW  Elec       q    Type
DOCKED: USER                           _______ _______ _______ _____ _____    ______ ____
DOCKED: ROOT
DOCKED: ATOM      1  O   UNL     1     -55.919 -34.869   8.216 -0.04 -0.00    -0.346 OA 
DOCKED: ATOM      2  C   UNL     1     -57.213 -34.371   7.746 -0.12 +0.00    +0.130 C  
DOCKED: ATOM      3  C   UNL     1     -57.866 -35.580   7.141 -0.23 +0.00    +0.004 A  
DOCKED: ATOM      4  C   UNL     1     -57.064 -36.694   7.344 -0.24 +0.00    +0.006 A  
DOCKED: ATOM      5  C   UNL     1     -55.850 -36.309   8.098 -0.15 +0.00    +0.169 C  
DOCKED: ATOM      6  C   UNL     1     -59.077 -35.687   6.473 -0.25 -0.00    -0.001 A  
DOCKED: ATOM      7  C   UNL     1     -57.441 -37.945   6.887 -0.32 +0.00    +0.008 A  
DOCKED: ATOM      8  C   UNL     1     -59.468 -36.941   6.002 -0.25 +0.00    +0.010 A  
DOCKED: ATOM      9  C   UNL     1     -58.654 -38.065   6.208 -0.30 +0.00    +0.068 A  
DOCKED: ATOM     10  N   UNL     1     -59.413 -40.379   5.325 -2.60 -0.00    -0.191 NA 
DOCKED: ATOM     11  C   UNL     1     -59.072 -39.341   5.721 -0.34 +0.00    +0.101 C  
DOCKED: ENDROOT
DOCKED: BRANCH   2  12
DOCKED: ATOM     12  C   UNL     1     -57.980 -33.819   8.942 -0.05 +0.00    +0.038 C  
DOCKED: BRANCH  12  13
DOCKED: ATOM     13  C   UNL     1     -57.277 -32.603   9.542 -0.02 +0.00    +0.038 C  
DOCKED: BRANCH  13  14
DOCKED: ATOM     14  C   UNL     1     -55.912 -32.984  10.114 -0.00 +0.00    +0.251 C  
DOCKED: BRANCH  14  15
DOCKED: ATOM     15  N   UNL     1     -54.918 -31.975   9.769 -0.00 +0.00    +0.141 N  
DOCKED: ATOM     16  C   UNL     1     -53.896 -32.539   8.885 -0.01 +0.00    +0.285 C  
DOCKED: ATOM     17  C   UNL     1     -55.555 -30.819   9.136 -0.00 +0.00    +0.285 C  
DOCKED: ENDBRANCH  14  15
DOCKED: ENDBRANCH  13  14
DOCKED: ENDBRANCH  12  13
DOCKED: ENDBRANCH   2  12
DOCKED: BRANCH   2  18
DOCKED: ATOM     18  C   UNL     1     -56.931 -33.300   6.746 -0.15 +0.00    +0.006 A  
DOCKED: ATOM     19  C   UNL     1     -55.698 -33.260   6.097 -0.15 +0.00    +0.001 A  
DOCKED: ATOM     20  C   UNL     1     -55.436 -32.257   5.162 -0.10 +0.00    +0.029 A  
DOCKED: ATOM     21  C   UNL     1     -56.406 -31.298   4.878 -0.06 +0.00    +0.140 A  
DOCKED: ATOM     22  C   UNL     1     -57.640 -31.339   5.527 -0.11 +0.00    +0.029 A  
DOCKED: ATOM     23  F   UNL     1     -56.155 -30.337   3.979 -0.02 -0.00    -0.204 F  
DOCKED: ATOM     24  C   UNL     1     -57.903 -32.340   6.463 -0.15 +0.00    +0.001 A  
DOCKED: ENDBRANCH   2  18
DOCKED: TORSDOF 5
DOCKED: TER
DOCKED: ENDMDL
________________________________________________________________________________


    FINAL DOCKED STATE:
    ________________________


Run:   29 / 512
Time taken for this run:   0.002s

DOCKED: MODEL        29
DOCKED: USER    Run = 29
DOCKED: USER
DOCKED: USER    Estimated Free Energy of Binding    =  -4.08 kcal/mol  [=(1)+(2)+(3)-(4)]
DOCKED: USER
DOCKED: USER    (1) Final Intermolecular Energy     =  -5.57 kcal/mol
DOCKED: USER        vdW + Hbond + desolv Energy     =  -5.57 kcal/mol
DOCKED: USER        Electrostatic Energy            =  +0.00 kcal/mol
DOCKED: USER        Moving Ligand-Fixed Receptor    =  -5.57 kcal/mol
DOCKED: USER        Moving Ligand-Moving Receptor   =  +0.00 kcal/mol
DOCKED: USER    (2) Final Total Internal Energy     =  -1.49 kcal/mol
DOCKED: USER    (3) Torsional Free Energy           =  +1.49 kcal/mol
DOCKED: USER    (4) Unbound System's Energy         =  -1.49 kcal/mol
DOCKED: USER
DOCKED: USER
DOCKED: REMARK  5 active torsions:
DOCKED: REMARK  status: ('A' for Active; 'I' for Inactive)
DOCKED: REMARK    1  A    between atoms: C_2  and  C_19 
DOCKED: REMARK    2  A    between atoms: C_2  and  C_11 
DOCKED: REMARK    3  A    between atoms: C_19  and  C_20 
DOCKED: REMARK    4  A    between atoms: C_20  and  C_21 
DOCKED: REMARK    5  A    between atoms: C_21  and  N_22 
DOCKED: USER                              x       y       z     vdW  Elec       q    Type
DOCKED: USER                           _______ _______ _______ _____ _____    ______ ____
DOCKED: ROOT
DOCKED: ATOM      1  O   UNL     1     -56.871 -34.477   8.402 -0.02 -0.00    -0.346 OA 
DOCKED: ATOM      2  C   UNL     1     -58.225 -34.175   7.934 -0.10 +0.00    +0.130 C  
DOCKED: ATOM      3  C   UNL     1     -58.672 -35.451   7.280 -0.20 +0.00    +0.004 A  
DOCKED: ATOM      4  C   UNL     1     -57.704 -36.430   7.456 -0.22 +0.00    +0.006 A  
DOCKED: ATOM      5  C   UNL     1     -56.572 -35.883   8.237 -0.13 +0.00    +0.169 C  
DOCKED: ATOM      6  C   UNL     1     -59.846 -35.726   6.595 -0.20 -0.00    -0.001 A  
DOCKED: ATOM      7  C   UNL     1     -57.873 -37.708   6.953 -0.30 +0.00    +0.008 A  
DOCKED: ATOM      8  C   UNL     1     -60.029 -37.010   6.077 -0.22 +0.00    +0.010 A  
DOCKED: ATOM      9  C   UNL     1     -59.047 -37.996   6.256 -0.27 +0.00    +0.068 A  
DOCKED: ATOM     10  N   UNL     1     -59.421 -40.369   5.287 -2.57 -0.00    -0.191 NA 
DOCKED: ATOM     11  C   UNL     1     -59.253 -39.304   5.721 -0.36 +0.00    +0.101 C  
DOCKED: ENDROOT
DOCKED: BRANCH   2  12
DOCKED: ATOM     12  C   UNL     1     -59.078 -33.795   9.138 -0.04 +0.00    +0.038 C  
DOCKED: BRANCH  12  13
DOCKED: ATOM     13  C   UNL     1     -58.541 -34.423  10.423 -0.02 +0.00    +0.038 C  
DOCKED: BRANCH  13  14
DOCKED: ATOM     14  C   UNL     1     -59.504 -35.480  10.962 -0.00 +0.00    +0.251 C  
DOCKED: BRANCH  14  15
DOCKED: ATOM     15  N   UNL     1     -59.496 -36.659  10.103 -0.03 +0.00    +0.141 N  
DOCKED: ATOM     16  C   UNL     1     -58.535 -37.648  10.594 -0.04 +0.00    +0.285 C  
DOCKED: ATOM     17  C   UNL     1     -60.833 -37.247  10.023 -0.01 +0.00    +0.285 C  
DOCKED: ENDBRANCH  14  15
DOCKED: ENDBRANCH  13  14
DOCKED: ENDBRANCH  12  13
DOCKED: ENDBRANCH   2  12
DOCKED: BRANCH   2  18
DOCKED: ATOM     18  C   UNL     1     -58.111 -33.039   6.974 -0.15 +0.00    +0.006 A  
DOCKED: ATOM     19  C   UNL     1     -59.259 -32.376   6.540 -0.19 +0.00    +0.001 A  
DOCKED: ATOM     20  C   UNL     1     -59.151 -31.313   5.642 -0.15 +0.00    +0.029 A  
DOCKED: ATOM     21  C   UNL     1     -57.898 -30.915   5.180 -0.10 +0.00    +0.140 A  
DOCKED: ATOM     22  C   UNL     1     -56.750 -31.578   5.615 -0.10 +0.00    +0.029 A  
DOCKED: ATOM     23  F   UNL     1     -57.794 -29.894   4.320 -0.03 -0.00    -0.204 F  
DOCKED: ATOM     24  C   UNL     1     -56.857 -32.642   6.513 -0.13 +0.00    +0.001 A  
DOCKED: ENDBRANCH   2  18
DOCKED: TORSDOF 5
DOCKED: TER
DOCKED: ENDMDL
________________________________________________________________________________


    FINAL DOCKED STATE:
    ________________________


Run:   30 / 512
Time taken for this run:   0.002s

DOCKED: MODEL        30
DOCKED: USER    Run = 30
DOCKED: USER
DOCKED: USER    Estimated Free Energy of Binding    =  -4.05 kcal/mol  [=(1)+(2)+(3)-(4)]
DOCKED: USER
DOCKED: USER    (1) Final Intermolecular Energy     =  -5.54 kcal/mol
DOCKED: USER        vdW + Hbond + desolv Energy     =  -5.54 kcal/mol
DOCKED: USER        Electrostatic Energy            =  +0.00 kcal/mol
DOCKED: USER        Moving Ligand-Fixed Receptor    =  -5.54 kcal/mol
DOCKED: USER        Moving Ligand-Moving Receptor   =  +0.00 kcal/mol
DOCKED: USER    (2) Final Total Internal Energy     =  -1.48 kcal/mol
DOCKED: USER    (3) Torsional Free Energy           =  +1.49 kcal/mol
DOCKED: USER    (4) Unbound System's Energy         =  -1.48 kcal/mol
DOCKED: USER
DOCKED: USER
DOCKED: REMARK  5 active torsions:
DOCKED: REMARK  status: ('A' for Active; 'I' for Inactive)
DOCKED: REMARK    1  A    between atoms: C_2  and  C_19 
DOCKED: REMARK    2  A    between atoms: C_2  and  C_11 
DOCKED: REMARK    3  A    between atoms: C_19  and  C_20 
DOCKED: REMARK    4  A    between atoms: C_20  and  C_21 
DOCKED: REMARK    5  A    between atoms: C_21  and  N_22 
DOCKED: USER                              x       y       z     vdW  Elec       q    Type
DOCKED: USER                           _______ _______ _______ _____ _____    ______ ____
DOCKED: ROOT
DOCKED: ATOM      1  O   UNL     1     -55.162 -35.450   8.249 -0.07 -0.00    -0.346 OA 
DOCKED: ATOM      2  C   UNL     1     -56.361 -34.693   7.886 -0.12 +0.00    +0.130 C  
DOCKED: ATOM      3  C   UNL     1     -57.263 -35.722   7.269 -0.22 +0.00    +0.004 A  
DOCKED: ATOM      4  C   UNL     1     -56.679 -36.977   7.370 -0.21 +0.00    +0.006 A  
DOCKED: ATOM      5  C   UNL     1     -55.375 -36.869   8.063 -0.11 +0.00    +0.169 C  
DOCKED: ATOM      6  C   UNL     1     -58.507 -35.563   6.675 -0.25 -0.00    -0.001 A  
DOCKED: ATOM      7  C   UNL     1     -57.310 -38.108   6.882 -0.33 +0.00    +0.008 A  
DOCKED: ATOM      8  C   UNL     1     -59.154 -36.693   6.174 -0.28 +0.00    +0.010 A  
DOCKED: ATOM      9  C   UNL     1     -58.559 -37.959   6.277 -0.30 +0.00    +0.068 A  
DOCKED: ATOM     10  N   UNL     1     -59.790 -40.037   5.341 -2.56 -0.00    -0.191 NA 
DOCKED: ATOM     11  C   UNL     1     -59.238 -39.105   5.760 -0.37 +0.00    +0.101 C  
DOCKED: ENDROOT
DOCKED: BRANCH   2  12
DOCKED: ATOM     12  C   UNL     1     -56.944 -34.075   9.151 -0.05 +0.00    +0.038 C  
DOCKED: BRANCH  12  13
DOCKED: ATOM     13  C   UNL     1     -57.081 -35.112  10.265 -0.03 +0.00    +0.038 C  
DOCKED: BRANCH  13  14
DOCKED: ATOM     14  C   UNL     1     -58.549 -35.441  10.531 -0.01 +0.00    +0.251 C  
DOCKED: BRANCH  14  15
DOCKED: ATOM     15  N   UNL     1     -58.986 -36.537   9.675 -0.03 +0.00    +0.141 N  
DOCKED: ATOM     16  C   UNL     1     -58.414 -37.806  10.128 -0.05 +0.00    +0.285 C  
DOCKED: ATOM     17  C   UNL     1     -60.447 -36.620   9.650 -0.01 +0.00    +0.285 C  
DOCKED: ENDBRANCH  14  15
DOCKED: ENDBRANCH  13  14
DOCKED: ENDBRANCH  12  13
DOCKED: ENDBRANCH   2  12
DOCKED: BRANCH   2  18
DOCKED: ATOM     18  C   UNL     1     -55.935 -33.639   6.919 -0.14 +0.00    +0.006 A  
DOCKED: ATOM     19  C   UNL     1     -55.386 -34.001   5.690 -0.09 +0.00    +0.001 A  
DOCKED: ATOM     20  C   UNL     1     -54.988 -33.015   4.787 -0.13 +0.00    +0.029 A  
DOCKED: ATOM     21  C   UNL     1     -55.139 -31.668   5.114 -0.06 +0.00    +0.140 A  
DOCKED: ATOM     22  C   UNL     1     -55.689 -31.306   6.344 -0.06 +0.00    +0.029 A  
DOCKED: ATOM     23  F   UNL     1     -54.759 -30.721   4.247 -0.01 -0.00    -0.204 F  
DOCKED: ATOM     24  C   UNL     1     -56.087 -32.292   7.248 -0.07 +0.00    +0.001 A  
DOCKED: ENDBRANCH   2  18
DOCKED: TORSDOF 5
DOCKED: TER
DOCKED: ENDMDL
________________________________________________________________________________


    FINAL DOCKED STATE:
    ________________________


Run:   31 / 512
Time taken for this run:   0.002s

DOCKED: MODEL        31
DOCKED: USER    Run = 31
DOCKED: USER
DOCKED: USER    Estimated Free Energy of Binding    =  -3.52 kcal/mol  [=(1)+(2)+(3)-(4)]
DOCKED: USER
DOCKED: USER    (1) Final Intermolecular Energy     =  -5.02 kcal/mol
DOCKED: USER        vdW + Hbond + desolv Energy     =  -5.02 kcal/mol
DOCKED: USER        Electrostatic Energy            =  +0.00 kcal/mol
DOCKED: USER        Moving Ligand-Fixed Receptor    =  -5.02 kcal/mol
DOCKED: USER        Moving Ligand-Moving Receptor   =  +0.00 kcal/mol
DOCKED: USER    (2) Final Total Internal Energy     =  -1.39 kcal/mol
DOCKED: USER    (3) Torsional Free Energy           =  +1.49 kcal/mol
DOCKED: USER    (4) Unbound System's Energy         =  -1.39 kcal/mol
DOCKED: USER
DOCKED: USER
DOCKED: REMARK  5 active torsions:
DOCKED: REMARK  status: ('A' for Active; 'I' for Inactive)
DOCKED: REMARK    1  A    between atoms: C_2  and  C_19 
DOCKED: REMARK    2  A    between atoms: C_2  and  C_11 
DOCKED: REMARK    3  A    between atoms: C_19  and  C_20 
DOCKED: REMARK    4  A    between atoms: C_20  and  C_21 
DOCKED: REMARK    5  A    between atoms: C_21  and  N_22 
DOCKED: USER                              x       y       z     vdW  Elec       q    Type
DOCKED: USER                           _______ _______ _______ _____ _____    ______ ____
DOCKED: ROOT
DOCKED: ATOM      1  O   UNL     1     -51.059 -26.820  -1.443 -0.02 -0.00    -0.346 OA 
DOCKED: ATOM      2  C   UNL     1     -50.711 -26.657  -2.856 -0.04 +0.00    +0.130 C  
DOCKED: ATOM      3  C   UNL     1     -52.036 -26.703  -3.560 -0.11 +0.00    +0.004 A  
DOCKED: ATOM      4  C   UNL     1     -53.060 -26.774  -2.625 -0.20 +0.00    +0.006 A  
DOCKED: ATOM      5  C   UNL     1     -52.493 -26.767  -1.258 -0.10 +0.00    +0.169 C  
DOCKED: ATOM      6  C   UNL     1     -52.314 -26.673  -4.919 -0.15 -0.00    -0.001 A  
DOCKED: ATOM      7  C   UNL     1     -54.388 -26.821  -3.013 -0.32 +0.00    +0.008 A  
DOCKED: ATOM      8  C   UNL     1     -53.649 -26.724  -5.326 -0.27 +0.00    +0.010 A  
DOCKED: ATOM      9  C   UNL     1     -54.680 -26.797  -4.378 -0.34 +0.00    +0.068 A  
DOCKED: ATOM     10  N   UNL     1     -57.146 -26.886  -5.167 -2.56 -0.00    -0.191 NA 
DOCKED: ATOM     11  C   UNL     1     -56.040 -26.847  -4.813 -0.41 +0.00    +0.101 C  
DOCKED: ENDROOT
DOCKED: BRANCH   2  12
DOCKED: ATOM     12  C   UNL     1     -49.995 -25.323  -3.026 -0.05 +0.00    +0.038 C  
DOCKED: BRANCH  12  13
DOCKED: ATOM     13  C   UNL     1     -49.636 -24.707  -1.675 -0.04 +0.00    +0.038 C  
DOCKED: BRANCH  13  14
DOCKED: ATOM     14  C   UNL     1     -50.482 -23.467  -1.394 -0.03 +0.00    +0.251 C  
DOCKED: BRANCH  14  15
DOCKED: ATOM     15  N   UNL     1     -51.879 -23.837  -1.208 -0.14 +0.00    +0.141 N  
DOCKED: ATOM     16  C   UNL     1     -52.322 -23.514   0.150 -0.08 +0.00    +0.285 C  
DOCKED: ATOM     17  C   UNL     1     -52.728 -23.163  -2.192 -0.11 +0.00    +0.285 C  
DOCKED: ENDBRANCH  14  15
DOCKED: ENDBRANCH  13  14
DOCKED: ENDBRANCH  12  13
DOCKED: ENDBRANCH   2  12
DOCKED: BRANCH   2  18
DOCKED: ATOM     18  C   UNL     1     -49.820 -27.797  -3.220 -0.01 +0.00    +0.006 A  
DOCKED: ATOM     19  C   UNL     1     -49.602 -28.830  -2.308 -0.01 +0.00    +0.001 A  
DOCKED: ATOM     20  C   UNL     1     -48.768 -29.895  -2.649 -0.00 +0.00    +0.029 A  
DOCKED: ATOM     21  C   UNL     1     -48.154 -29.927  -3.900 +0.00 +0.00    +0.140 A  
DOCKED: ATOM     22  C   UNL     1     -48.372 -28.894  -4.812 -0.00 +0.00    +0.029 A  
DOCKED: ATOM     23  F   UNL     1     -47.354 -30.950  -4.228 +0.00 -0.00    -0.204 F  
DOCKED: ATOM     24  C   UNL     1     -49.206 -27.827  -4.471 -0.01 +0.00    +0.001 A  
DOCKED: ENDBRANCH   2  18
DOCKED: TORSDOF 5
DOCKED: TER
DOCKED: ENDMDL
________________________________________________________________________________


    FINAL DOCKED STATE:
    ________________________


Run:   32 / 512
Time taken for this run:   0.002s

DOCKED: MODEL        32
DOCKED: USER    Run = 32
DOCKED: USER
DOCKED: USER    Estimated Free Energy of Binding    =  -3.92 kcal/mol  [=(1)+(2)+(3)-(4)]
DOCKED: USER
DOCKED: USER    (1) Final Intermolecular Energy     =  -5.41 kcal/mol
DOCKED: USER        vdW + Hbond + desolv Energy     =  -5.41 kcal/mol
DOCKED: USER        Electrostatic Energy            =  +0.00 kcal/mol
DOCKED: USER        Moving Ligand-Fixed Receptor    =  -5.41 kcal/mol
DOCKED: USER        Moving Ligand-Moving Receptor   =  +0.00 kcal/mol
DOCKED: USER    (2) Final Total Internal Energy     =  -1.21 kcal/mol
DOCKED: USER    (3) Torsional Free Energy           =  +1.49 kcal/mol
DOCKED: USER    (4) Unbound System's Energy         =  -1.21 kcal/mol
DOCKED: USER
DOCKED: USER
DOCKED: REMARK  5 active torsions:
DOCKED: REMARK  status: ('A' for Active; 'I' for Inactive)
DOCKED: REMARK    1  A    between atoms: C_2  and  C_19 
DOCKED: REMARK    2  A    between atoms: C_2  and  C_11 
DOCKED: REMARK    3  A    between atoms: C_19  and  C_20 
DOCKED: REMARK    4  A    between atoms: C_20  and  C_21 
DOCKED: REMARK    5  A    between atoms: C_21  and  N_22 
DOCKED: USER                              x       y       z     vdW  Elec       q    Type
DOCKED: USER                           _______ _______ _______ _____ _____    ______ ____
DOCKED: ROOT
DOCKED: ATOM      1  O   UNL     1     -50.444 -38.433  -2.048 -0.02 -0.00    -0.346 OA 
DOCKED: ATOM      2  C   UNL     1     -50.233 -37.330  -1.109 -0.10 +0.00    +0.130 C  
DOCKED: ATOM      3  C   UNL     1     -50.661 -37.898   0.214 -0.14 +0.00    +0.004 A  
DOCKED: ATOM      4  C   UNL     1     -50.983 -39.239   0.064 -0.19 +0.00    +0.006 A  
DOCKED: ATOM      5  C   UNL     1     -50.781 -39.651  -1.343 +0.09 +0.00    +0.169 C  
DOCKED: ATOM      6  C   UNL     1     -50.748 -37.279   1.452 -0.13 -0.00    -0.001 A  
DOCKED: ATOM      7  C   UNL     1     -51.404 -40.004   1.139 -0.31 +0.00    +0.008 A  
DOCKED: ATOM      8  C   UNL     1     -51.175 -38.035   2.545 -0.23 +0.00    +0.010 A  
DOCKED: ATOM      9  C   UNL     1     -51.501 -39.391   2.389 -0.32 +0.00    +0.068 A  
DOCKED: ATOM     10  N   UNL     1     -52.285 -40.767   4.439 -2.68 -0.00    -0.191 NA 
DOCKED: ATOM     11  C   UNL     1     -51.934 -40.150   3.520 -0.38 +0.00    +0.101 C  
DOCKED: ENDROOT
DOCKED: BRANCH   2  12
DOCKED: ATOM     12  C   UNL     1     -48.759 -36.945  -1.140 -0.03 +0.00    +0.038 C  
DOCKED: BRANCH  12  13
DOCKED: ATOM     13  C   UNL     1     -48.507 -35.786  -2.103 -0.01 +0.00    +0.038 C  
DOCKED: BRANCH  13  14
DOCKED: ATOM     14  C   UNL     1     -47.476 -36.168  -3.164 -0.00 +0.00    +0.251 C  
DOCKED: BRANCH  14  15
DOCKED: ATOM     15  N   UNL     1     -47.567 -37.590  -3.471 -0.01 +0.00    +0.141 N  
DOCKED: ATOM     16  C   UNL     1     -48.603 -37.836  -4.475 -0.02 +0.00    +0.285 C  
DOCKED: ATOM     17  C   UNL     1     -46.276 -38.100  -3.938 -0.00 +0.00    +0.285 C  
DOCKED: ENDBRANCH  14  15
DOCKED: ENDBRANCH  13  14
DOCKED: ENDBRANCH  12  13
DOCKED: ENDBRANCH   2  12
DOCKED: BRANCH   2  18
DOCKED: ATOM     18  C   UNL     1     -51.095 -36.200  -1.563 -0.09 +0.00    +0.006 A  
DOCKED: ATOM     19  C   UNL     1     -51.459 -35.197  -0.665 -0.13 +0.00    +0.001 A  
DOCKED: ATOM     20  C   UNL     1     -52.265 -34.141  -1.091 -0.16 +0.00    +0.029 A  
DOCKED: ATOM     21  C   UNL     1     -52.705 -34.088  -2.412 -0.19 +0.00    +0.140 A  
DOCKED: ATOM     22  C   UNL     1     -52.341 -35.092  -3.310 -0.20 +0.00    +0.029 A  
DOCKED: ATOM     23  F   UNL     1     -53.478 -33.073  -2.821 -0.11 -0.00    -0.204 F  
DOCKED: ATOM     24  C   UNL     1     -51.535 -36.149  -2.885 -0.07 +0.00    +0.001 A  
DOCKED: ENDBRANCH   2  18
DOCKED: TORSDOF 5
DOCKED: TER
DOCKED: ENDMDL
________________________________________________________________________________


    FINAL DOCKED STATE:
    ________________________


Run:   33 / 512
Time taken for this run:   0.002s

DOCKED: MODEL        33
DOCKED: USER    Run = 33
DOCKED: USER
DOCKED: USER    Estimated Free Energy of Binding    =  -4.40 kcal/mol  [=(1)+(2)+(3)-(4)]
DOCKED: USER
DOCKED: USER    (1) Final Intermolecular Energy     =  -5.89 kcal/mol
DOCKED: USER        vdW + Hbond + desolv Energy     =  -5.89 kcal/mol
DOCKED: USER        Electrostatic Energy            =  +0.00 kcal/mol
DOCKED: USER        Moving Ligand-Fixed Receptor    =  -5.89 kcal/mol
DOCKED: USER        Moving Ligand-Moving Receptor   =  +0.00 kcal/mol
DOCKED: USER    (2) Final Total Internal Energy     =  -1.25 kcal/mol
DOCKED: USER    (3) Torsional Free Energy           =  +1.49 kcal/mol
DOCKED: USER    (4) Unbound System's Energy         =  -1.25 kcal/mol
DOCKED: USER
DOCKED: USER
DOCKED: REMARK  5 active torsions:
DOCKED: REMARK  status: ('A' for Active; 'I' for Inactive)
DOCKED: REMARK    1  A    between atoms: C_2  and  C_19 
DOCKED: REMARK    2  A    between atoms: C_2  and  C_11 
DOCKED: REMARK    3  A    between atoms: C_19  and  C_20 
DOCKED: REMARK    4  A    between atoms: C_20  and  C_21 
DOCKED: REMARK    5  A    between atoms: C_21  and  N_22 
DOCKED: USER                              x       y       z     vdW  Elec       q    Type
DOCKED: USER                           _______ _______ _______ _____ _____    ______ ____
DOCKED: ROOT
DOCKED: ATOM      1  O   UNL     1     -54.825 -35.995   8.498 -0.08 -0.00    -0.346 OA 
DOCKED: ATOM      2  C   UNL     1     -55.827 -35.098   7.922 -0.13 +0.00    +0.130 C  
DOCKED: ATOM      3  C   UNL     1     -56.808 -36.027   7.268 -0.22 +0.00    +0.004 A  
DOCKED: ATOM      4  C   UNL     1     -56.459 -37.342   7.541 -0.22 +0.00    +0.006 A  
DOCKED: ATOM      5  C   UNL     1     -55.248 -37.374   8.391 -0.18 +0.00    +0.169 C  
DOCKED: ATOM      6  C   UNL     1     -57.927 -35.732   6.504 -0.28 -0.00    -0.001 A  
DOCKED: ATOM      7  C   UNL     1     -57.208 -38.402   7.058 -0.34 +0.00    +0.008 A  
DOCKED: ATOM      8  C   UNL     1     -58.690 -36.790   6.005 -0.32 +0.00    +0.010 A  
DOCKED: ATOM      9  C   UNL     1     -58.332 -38.118   6.282 -0.31 +0.00    +0.068 A  
DOCKED: ATOM     10  N   UNL     1     -59.773 -40.057   5.346 -2.56 -0.00    -0.191 NA 
DOCKED: ATOM     11  C   UNL     1     -59.127 -39.187   5.765 -0.37 +0.00    +0.101 C  
DOCKED: ENDROOT
DOCKED: BRANCH   2  12
DOCKED: ATOM     12  C   UNL     1     -56.445 -34.279   9.049 -0.05 +0.00    +0.038 C  
DOCKED: BRANCH  12  13
DOCKED: ATOM     13  C   UNL     1     -57.566 -33.379   8.533 -0.06 +0.00    +0.038 C  
DOCKED: BRANCH  13  14
DOCKED: ATOM     14  C   UNL     1     -57.077 -31.943   8.349 -0.02 +0.00    +0.251 C  
DOCKED: BRANCH  14  15
DOCKED: ATOM     15  N   UNL     1     -57.839 -31.279   7.297 -0.04 +0.00    +0.141 N  
DOCKED: ATOM     16  C   UNL     1     -56.970 -30.411   6.501 -0.03 +0.00    +0.285 C  
DOCKED: ATOM     17  C   UNL     1     -58.498 -32.263   6.438 -0.12 +0.00    +0.285 C  
DOCKED: ENDBRANCH  14  15
DOCKED: ENDBRANCH  13  14
DOCKED: ENDBRANCH  12  13
DOCKED: ENDBRANCH   2  12
DOCKED: BRANCH   2  18
DOCKED: ATOM     18  C   UNL     1     -55.117 -34.221   6.946 -0.14 +0.00    +0.006 A  
DOCKED: ATOM     19  C   UNL     1     -55.665 -33.997   5.683 -0.10 +0.00    +0.001 A  
DOCKED: ATOM     20  C   UNL     1     -55.001 -33.177   4.771 -0.12 +0.00    +0.029 A  
DOCKED: ATOM     21  C   UNL     1     -53.790 -32.581   5.122 -0.07 +0.00    +0.140 A  
DOCKED: ATOM     22  C   UNL     1     -53.243 -32.805   6.385 -0.06 +0.00    +0.029 A  
DOCKED: ATOM     23  F   UNL     1     -53.153 -31.792   4.247 -0.00 -0.00    -0.204 F  
DOCKED: ATOM     24  C   UNL     1     -53.907 -33.626   7.298 -0.08 +0.00    +0.001 A  
DOCKED: ENDBRANCH   2  18
DOCKED: TORSDOF 5
DOCKED: TER
DOCKED: ENDMDL
________________________________________________________________________________


    FINAL DOCKED STATE:
    ________________________


Run:   34 / 512
Time taken for this run:   0.002s

DOCKED: MODEL        34
DOCKED: USER    Run = 34
DOCKED: USER
DOCKED: USER    Estimated Free Energy of Binding    =  -5.31 kcal/mol  [=(1)+(2)+(3)-(4)]
DOCKED: USER
DOCKED: USER    (1) Final Intermolecular Energy     =  -6.80 kcal/mol
DOCKED: USER        vdW + Hbond + desolv Energy     =  -6.80 kcal/mol
DOCKED: USER        Electrostatic Energy            =  +0.00 kcal/mol
DOCKED: USER        Moving Ligand-Fixed Receptor    =  -6.80 kcal/mol
DOCKED: USER        Moving Ligand-Moving Receptor   =  +0.00 kcal/mol
DOCKED: USER    (2) Final Total Internal Energy     =  -1.00 kcal/mol
DOCKED: USER    (3) Torsional Free Energy           =  +1.49 kcal/mol
DOCKED: USER    (4) Unbound System's Energy         =  -1.00 kcal/mol
DOCKED: USER
DOCKED: USER
DOCKED: REMARK  5 active torsions:
DOCKED: REMARK  status: ('A' for Active; 'I' for Inactive)
DOCKED: REMARK    1  A    between atoms: C_2  and  C_19 
DOCKED: REMARK    2  A    between atoms: C_2  and  C_11 
DOCKED: REMARK    3  A    between atoms: C_19  and  C_20 
DOCKED: REMARK    4  A    between atoms: C_20  and  C_21 
DOCKED: REMARK    5  A    between atoms: C_21  and  N_22 
DOCKED: USER                              x       y       z     vdW  Elec       q    Type
DOCKED: USER                           _______ _______ _______ _____ _____    ______ ____
DOCKED: ROOT
DOCKED: ATOM      1  O   UNL     1     -57.760 -37.298   8.247 -0.04 -0.00    -0.346 OA 
DOCKED: ATOM      2  C   UNL     1     -59.171 -37.685   8.305 -0.12 +0.00    +0.130 C  
DOCKED: ATOM      3  C   UNL     1     -59.525 -37.966   6.874 -0.24 +0.00    +0.004 A  
DOCKED: ATOM      4  C   UNL     1     -58.391 -37.857   6.081 -0.36 +0.00    +0.006 A  
DOCKED: ATOM      5  C   UNL     1     -57.222 -37.514   6.922 -0.24 +0.00    +0.169 C  
DOCKED: ATOM      6  C   UNL     1     -60.751 -38.302   6.319 -0.28 -0.00    -0.001 A  
DOCKED: ATOM      7  C   UNL     1     -58.443 -38.075   4.715 -0.32 +0.00    +0.008 A  
DOCKED: ATOM      8  C   UNL     1     -60.821 -38.521   4.942 -0.35 +0.00    +0.010 A  
DOCKED: ATOM      9  C   UNL     1     -59.672 -38.408   4.144 -0.38 +0.00    +0.068 A  
DOCKED: ATOM     10  N   UNL     1     -59.835 -38.824   1.592 -3.01 -0.00    -0.191 NA 
DOCKED: ATOM     11  C   UNL     1     -59.762 -38.637   2.737 -0.27 +0.00    +0.101 C  
DOCKED: ENDROOT
DOCKED: BRANCH   2  12
DOCKED: ATOM     12  C   UNL     1     -59.298 -38.912   9.200 -0.22 +0.00    +0.038 C  
DOCKED: BRANCH  12  13
DOCKED: ATOM     13  C   UNL     1     -60.746 -39.390   9.288 -0.21 +0.00    +0.038 C  
DOCKED: BRANCH  13  14
DOCKED: ATOM     14  C   UNL     1     -61.321 -39.146  10.682 -0.07 +0.00    +0.251 C  
DOCKED: BRANCH  14  15
DOCKED: ATOM     15  N   UNL     1     -62.327 -40.152  10.999 -0.13 +0.00    +0.141 N  
DOCKED: ATOM     16  C   UNL     1     -62.785 -40.825   9.782 -0.08 +0.00    +0.285 C  
DOCKED: ATOM     17  C   UNL     1     -61.798 -41.129  11.951 -0.12 +0.00    +0.285 C  
DOCKED: ENDBRANCH  14  15
DOCKED: ENDBRANCH  13  14
DOCKED: ENDBRANCH  12  13
DOCKED: ENDBRANCH   2  12
DOCKED: BRANCH   2  18
DOCKED: ATOM     18  C   UNL     1     -59.919 -36.525   8.873 -0.08 +0.00    +0.006 A  
DOCKED: ATOM     19  C   UNL     1     -60.668 -35.701   8.034 -0.13 +0.00    +0.001 A  
DOCKED: ATOM     20  C   UNL     1     -61.366 -34.617   8.566 -0.08 +0.00    +0.029 A  
DOCKED: ATOM     21  C   UNL     1     -61.315 -34.359   9.935 -0.01 +0.00    +0.140 A  
DOCKED: ATOM     22  C   UNL     1     -60.566 -35.183  10.774 -0.02 +0.00    +0.029 A  
DOCKED: ATOM     23  F   UNL     1     -61.988 -33.319  10.446 +0.01 -0.00    -0.204 F  
DOCKED: ATOM     24  C   UNL     1     -59.866 -36.268  10.242 -0.03 +0.00    +0.001 A  
DOCKED: ENDBRANCH   2  18
DOCKED: TORSDOF 5
DOCKED: TER
DOCKED: ENDMDL
________________________________________________________________________________


    FINAL DOCKED STATE:
    ________________________


Run:   35 / 512
Time taken for this run:   0.002s

DOCKED: MODEL        35
DOCKED: USER    Run = 35
DOCKED: USER
DOCKED: USER    Estimated Free Energy of Binding    =  -4.22 kcal/mol  [=(1)+(2)+(3)-(4)]
DOCKED: USER
DOCKED: USER    (1) Final Intermolecular Energy     =  -5.71 kcal/mol
DOCKED: USER        vdW + Hbond + desolv Energy     =  -5.71 kcal/mol
DOCKED: USER        Electrostatic Energy            =  +0.00 kcal/mol
DOCKED: USER        Moving Ligand-Fixed Receptor    =  -5.71 kcal/mol
DOCKED: USER        Moving Ligand-Moving Receptor   =  +0.00 kcal/mol
DOCKED: USER    (2) Final Total Internal Energy     =  -1.48 kcal/mol
DOCKED: USER    (3) Torsional Free Energy           =  +1.49 kcal/mol
DOCKED: USER    (4) Unbound System's Energy         =  -1.48 kcal/mol
DOCKED: USER
DOCKED: USER
DOCKED: REMARK  5 active torsions:
DOCKED: REMARK  status: ('A' for Active; 'I' for Inactive)
DOCKED: REMARK    1  A    between atoms: C_2  and  C_19 
DOCKED: REMARK    2  A    between atoms: C_2  and  C_11 
DOCKED: REMARK    3  A    between atoms: C_19  and  C_20 
DOCKED: REMARK    4  A    between atoms: C_20  and  C_21 
DOCKED: REMARK    5  A    between atoms: C_21  and  N_22 
DOCKED: USER                              x       y       z     vdW  Elec       q    Type
DOCKED: USER                           _______ _______ _______ _____ _____    ______ ____
DOCKED: ROOT
DOCKED: ATOM      1  O   UNL     1     -57.592 -33.942   7.944 -0.02 -0.00    -0.346 OA 
DOCKED: ATOM      2  C   UNL     1     -59.053 -33.989   7.878 -0.11 +0.00    +0.130 C  
DOCKED: ATOM      3  C   UNL     1     -59.343 -35.344   7.301 -0.20 +0.00    +0.004 A  
DOCKED: ATOM      4  C   UNL     1     -58.159 -36.053   7.154 -0.23 +0.00    +0.006 A  
DOCKED: ATOM      5  C   UNL     1     -57.022 -35.233   7.628 -0.15 +0.00    +0.169 C  
DOCKED: ATOM      6  C   UNL     1     -60.560 -35.909   6.946 -0.22 -0.00    -0.001 A  
DOCKED: ATOM      7  C   UNL     1     -58.148 -37.340   6.646 -0.31 +0.00    +0.008 A  
DOCKED: ATOM      8  C   UNL     1     -60.565 -37.205   6.427 -0.24 +0.00    +0.010 A  
DOCKED: ATOM      9  C   UNL     1     -59.365 -37.917   6.279 -0.25 +0.00    +0.068 A  
DOCKED: ATOM     10  N   UNL     1     -59.411 -40.323   5.319 -2.57 -0.00    -0.191 NA 
DOCKED: ATOM     11  C   UNL     1     -59.390 -39.244   5.749 -0.37 +0.00    +0.101 C  
DOCKED: ENDROOT
DOCKED: BRANCH   2  12
DOCKED: ATOM     12  C   UNL     1     -59.606 -33.813   9.287 -0.04 +0.00    +0.038 C  
DOCKED: BRANCH  12  13
DOCKED: ATOM     13  C   UNL     1     -58.622 -33.062  10.182 -0.01 +0.00    +0.038 C  
DOCKED: BRANCH  13  14
DOCKED: ATOM     14  C   UNL     1     -59.142 -31.666  10.520 -0.00 +0.00    +0.251 C  
DOCKED: BRANCH  14  15
DOCKED: ATOM     15  N   UNL     1     -58.990 -30.777   9.374 -0.01 +0.00    +0.141 N  
DOCKED: ATOM     16  C   UNL     1     -59.434 -29.423   9.709 -0.00 +0.00    +0.285 C  
DOCKED: ATOM     17  C   UNL     1     -57.599 -30.757   8.918 -0.00 +0.00    +0.285 C  
DOCKED: ENDBRANCH  14  15
DOCKED: ENDBRANCH  13  14
DOCKED: ENDBRANCH  12  13
DOCKED: ENDBRANCH   2  12
DOCKED: BRANCH   2  18
DOCKED: ATOM     18  C   UNL     1     -59.485 -32.873   6.987 -0.19 +0.00    +0.006 A  
DOCKED: ATOM     19  C   UNL     1     -58.544 -32.195   6.213 -0.16 +0.00    +0.001 A  
DOCKED: ATOM     20  C   UNL     1     -58.950 -31.151   5.380 -0.14 +0.00    +0.029 A  
DOCKED: ATOM     21  C   UNL     1     -60.294 -30.787   5.322 -0.09 +0.00    +0.140 A  
DOCKED: ATOM     22  C   UNL     1     -61.235 -31.466   6.096 -0.17 +0.00    +0.029 A  
DOCKED: ATOM     23  F   UNL     1     -60.683 -29.787   4.521 -0.03 -0.00    -0.204 F  
DOCKED: ATOM     24  C   UNL     1     -60.830 -32.510   6.930 -0.20 +0.00    +0.001 A  
DOCKED: ENDBRANCH   2  18
DOCKED: TORSDOF 5
DOCKED: TER
DOCKED: ENDMDL
________________________________________________________________________________


    FINAL DOCKED STATE:
    ________________________


Run:   36 / 512
Time taken for this run:   0.002s

DOCKED: MODEL        36
DOCKED: USER    Run = 36
DOCKED: USER
DOCKED: USER    Estimated Free Energy of Binding    =  -4.47 kcal/mol  [=(1)+(2)+(3)-(4)]
DOCKED: USER
DOCKED: USER    (1) Final Intermolecular Energy     =  -5.96 kcal/mol
DOCKED: USER        vdW + Hbond + desolv Energy     =  -5.96 kcal/mol
DOCKED: USER        Electrostatic Energy            =  +0.00 kcal/mol
DOCKED: USER        Moving Ligand-Fixed Receptor    =  -5.96 kcal/mol
DOCKED: USER        Moving Ligand-Moving Receptor   =  +0.00 kcal/mol
DOCKED: USER    (2) Final Total Internal Energy     =  -1.04 kcal/mol
DOCKED: USER    (3) Torsional Free Energy           =  +1.49 kcal/mol
DOCKED: USER    (4) Unbound System's Energy         =  -1.04 kcal/mol
DOCKED: USER
DOCKED: USER
DOCKED: REMARK  5 active torsions:
DOCKED: REMARK  status: ('A' for Active; 'I' for Inactive)
DOCKED: REMARK    1  A    between atoms: C_2  and  C_19 
DOCKED: REMARK    2  A    between atoms: C_2  and  C_11 
DOCKED: REMARK    3  A    between atoms: C_19  and  C_20 
DOCKED: REMARK    4  A    between atoms: C_20  and  C_21 
DOCKED: REMARK    5  A    between atoms: C_21  and  N_22 
DOCKED: USER                              x       y       z     vdW  Elec       q    Type
DOCKED: USER                           _______ _______ _______ _____ _____    ______ ____
DOCKED: ROOT
DOCKED: ATOM      1  O   UNL     1     -55.499 -30.099   1.056 -0.09 -0.00    -0.346 OA 
DOCKED: ATOM      2  C   UNL     1     -54.224 -29.844   0.384 -0.16 +0.00    +0.130 C  
DOCKED: ATOM      3  C   UNL     1     -54.623 -29.194  -0.909 -0.24 +0.00    +0.004 A  
DOCKED: ATOM      4  C   UNL     1     -55.996 -28.994  -0.928 -0.23 +0.00    +0.006 A  
DOCKED: ATOM      5  C   UNL     1     -56.591 -29.478   0.338 -0.23 +0.00    +0.169 C  
DOCKED: ATOM      6  C   UNL     1     -53.832 -28.801  -1.979 -0.21 -0.00    -0.001 A  
DOCKED: ATOM      7  C   UNL     1     -56.623 -28.402  -2.010 -0.33 +0.00    +0.008 A  
DOCKED: ATOM      8  C   UNL     1     -54.450 -28.206  -3.080 -0.27 +0.00    +0.010 A  
DOCKED: ATOM      9  C   UNL     1     -55.839 -28.008  -3.095 -0.30 +0.00    +0.068 A  
DOCKED: ATOM     10  N   UNL     1     -56.955 -26.897  -5.153 -2.54 -0.00    -0.191 NA 
DOCKED: ATOM     11  C   UNL     1     -56.454 -27.396  -4.231 -0.29 +0.00    +0.101 C  
DOCKED: ENDROOT
DOCKED: BRANCH   2  12
DOCKED: ATOM     12  C   UNL     1     -53.384 -28.933   1.272 -0.15 +0.00    +0.038 C  
DOCKED: BRANCH  12  13
DOCKED: ATOM     13  C   UNL     1     -52.932 -29.654   2.540 -0.11 +0.00    +0.038 C  
DOCKED: BRANCH  13  14
DOCKED: ATOM     14  C   UNL     1     -53.087 -28.757   3.767 -0.08 +0.00    +0.251 C  
DOCKED: BRANCH  14  15
DOCKED: ATOM     15  N   UNL     1     -52.055 -29.060   4.751 -0.04 +0.00    +0.141 N  
DOCKED: ATOM     16  C   UNL     1     -52.656 -29.429   6.033 -0.01 +0.00    +0.285 C  
DOCKED: ATOM     17  C   UNL     1     -51.184 -30.134   4.270 -0.01 +0.00    +0.285 C  
DOCKED: ENDBRANCH  14  15
DOCKED: ENDBRANCH  13  14
DOCKED: ENDBRANCH  12  13
DOCKED: ENDBRANCH   2  12
DOCKED: BRANCH   2  18
DOCKED: ATOM     18  C   UNL     1     -53.560 -31.166   0.190 -0.10 +0.00    +0.006 A  
DOCKED: ATOM     19  C   UNL     1     -54.203 -32.335   0.598 -0.16 +0.00    +0.001 A  
DOCKED: ATOM     20  C   UNL     1     -53.582 -33.571   0.416 -0.19 +0.00    +0.029 A  
DOCKED: ATOM     21  C   UNL     1     -52.320 -33.637  -0.173 -0.10 +0.00    +0.140 A  
DOCKED: ATOM     22  C   UNL     1     -51.678 -32.468  -0.581 -0.04 +0.00    +0.029 A  
DOCKED: ATOM     23  F   UNL     1     -51.724 -34.824  -0.349 -0.04 -0.00    -0.204 F  
DOCKED: ATOM     24  C   UNL     1     -52.298 -31.231  -0.399 -0.04 +0.00    +0.001 A  
DOCKED: ENDBRANCH   2  18
DOCKED: TORSDOF 5
DOCKED: TER
DOCKED: ENDMDL
________________________________________________________________________________


    FINAL DOCKED STATE:
    ________________________


Run:   37 / 512
Time taken for this run:   0.002s

DOCKED: MODEL        37
DOCKED: USER    Run = 37
DOCKED: USER
DOCKED: USER    Estimated Free Energy of Binding    =  -4.51 kcal/mol  [=(1)+(2)+(3)-(4)]
DOCKED: USER
DOCKED: USER    (1) Final Intermolecular Energy     =  -6.00 kcal/mol
DOCKED: USER        vdW + Hbond + desolv Energy     =  -6.00 kcal/mol
DOCKED: USER        Electrostatic Energy            =  +0.00 kcal/mol
DOCKED: USER        Moving Ligand-Fixed Receptor    =  -6.00 kcal/mol
DOCKED: USER        Moving Ligand-Moving Receptor   =  +0.00 kcal/mol
DOCKED: USER    (2) Final Total Internal Energy     =  -1.25 kcal/mol
DOCKED: USER    (3) Torsional Free Energy           =  +1.49 kcal/mol
DOCKED: USER    (4) Unbound System's Energy         =  -1.25 kcal/mol
DOCKED: USER
DOCKED: USER
DOCKED: REMARK  5 active torsions:
DOCKED: REMARK  status: ('A' for Active; 'I' for Inactive)
DOCKED: REMARK    1  A    between atoms: C_2  and  C_19 
DOCKED: REMARK    2  A    between atoms: C_2  and  C_11 
DOCKED: REMARK    3  A    between atoms: C_19  and  C_20 
DOCKED: REMARK    4  A    between atoms: C_20  and  C_21 
DOCKED: REMARK    5  A    between atoms: C_21  and  N_22 
DOCKED: USER                              x       y       z     vdW  Elec       q    Type
DOCKED: USER                           _______ _______ _______ _____ _____    ______ ____
DOCKED: ROOT
DOCKED: ATOM      1  O   UNL     1     -51.733 -30.408  -2.171 +0.01 -0.00    -0.346 OA 
DOCKED: ATOM      2  C   UNL     1     -52.888 -30.361  -1.274 -0.09 +0.00    +0.130 C  
DOCKED: ATOM      3  C   UNL     1     -53.885 -29.517  -2.016 -0.20 +0.00    +0.004 A  
DOCKED: ATOM      4  C   UNL     1     -53.387 -29.203  -3.272 -0.17 +0.00    +0.006 A  
DOCKED: ATOM      5  C   UNL     1     -52.052 -29.817  -3.452 -0.06 +0.00    +0.169 C  
DOCKED: ATOM      6  C   UNL     1     -55.136 -29.074  -1.615 -0.30 -0.00    -0.001 A  
DOCKED: ATOM      7  C   UNL     1     -54.115 -28.435  -4.165 -0.23 +0.00    +0.008 A  
DOCKED: ATOM      8  C   UNL     1     -55.882 -28.295  -2.502 -0.35 +0.00    +0.010 A  
DOCKED: ATOM      9  C   UNL     1     -55.374 -27.978  -3.770 -0.21 +0.00    +0.068 A  
DOCKED: ATOM     10  N   UNL     1     -56.785 -26.534  -5.394 -2.50 -0.00    -0.191 NA 
DOCKED: ATOM     11  C   UNL     1     -56.152 -27.181  -4.665 -0.36 +0.00    +0.101 C  
DOCKED: ENDROOT
DOCKED: BRANCH   2  12
DOCKED: ATOM     12  C   UNL     1     -53.375 -31.786  -1.039 -0.15 +0.00    +0.038 C  
DOCKED: BRANCH  12  13
DOCKED: ATOM     13  C   UNL     1     -52.828 -32.743  -2.096 -0.18 +0.00    +0.038 C  
DOCKED: BRANCH  13  14
DOCKED: ATOM     14  C   UNL     1     -53.785 -32.860  -3.280 -0.13 +0.00    +0.251 C  
DOCKED: BRANCH  14  15
DOCKED: ATOM     15  N   UNL     1     -53.174 -33.636  -4.352 -0.24 +0.00    +0.141 N  
DOCKED: ATOM     16  C   UNL     1     -52.523 -32.755  -5.322 -0.11 +0.00    +0.285 C  
DOCKED: ATOM     17  C   UNL     1     -52.209 -34.594  -3.809 -0.18 +0.00    +0.285 C  
DOCKED: ENDBRANCH  14  15
DOCKED: ENDBRANCH  13  14
DOCKED: ENDBRANCH  12  13
DOCKED: ENDBRANCH   2  12
DOCKED: BRANCH   2  18
DOCKED: ATOM     18  C   UNL     1     -52.427 -29.733  -0.002 -0.09 +0.00    +0.006 A  
DOCKED: ATOM     19  C   UNL     1     -51.627 -28.591  -0.038 -0.10 +0.00    +0.001 A  
DOCKED: ATOM     20  C   UNL     1     -51.196 -28.005   1.153 -0.10 +0.00    +0.029 A  
DOCKED: ATOM     21  C   UNL     1     -51.566 -28.560   2.377 -0.08 +0.00    +0.140 A  
DOCKED: ATOM     22  C   UNL     1     -52.367 -29.701   2.412 -0.08 +0.00    +0.029 A  
DOCKED: ATOM     23  F   UNL     1     -51.154 -27.996   3.520 -0.03 -0.00    -0.204 F  
DOCKED: ATOM     24  C   UNL     1     -52.798 -30.289   1.222 -0.07 +0.00    +0.001 A  
DOCKED: ENDBRANCH   2  18
DOCKED: TORSDOF 5
DOCKED: TER
DOCKED: ENDMDL
________________________________________________________________________________


    FINAL DOCKED STATE:
    ________________________


Run:   38 / 512
Time taken for this run:   0.002s

DOCKED: MODEL        38
DOCKED: USER    Run = 38
DOCKED: USER
DOCKED: USER    Estimated Free Energy of Binding    =  -4.45 kcal/mol  [=(1)+(2)+(3)-(4)]
DOCKED: USER
DOCKED: USER    (1) Final Intermolecular Energy     =  -5.95 kcal/mol
DOCKED: USER        vdW + Hbond + desolv Energy     =  -5.95 kcal/mol
DOCKED: USER        Electrostatic Energy            =  +0.00 kcal/mol
DOCKED: USER        Moving Ligand-Fixed Receptor    =  -5.95 kcal/mol
DOCKED: USER        Moving Ligand-Moving Receptor   =  +0.00 kcal/mol
DOCKED: USER    (2) Final Total Internal Energy     =  -1.34 kcal/mol
DOCKED: USER    (3) Torsional Free Energy           =  +1.49 kcal/mol
DOCKED: USER    (4) Unbound System's Energy         =  -1.34 kcal/mol
DOCKED: USER
DOCKED: USER
DOCKED: REMARK  5 active torsions:
DOCKED: REMARK  status: ('A' for Active; 'I' for Inactive)
DOCKED: REMARK    1  A    between atoms: C_2  and  C_19 
DOCKED: REMARK    2  A    between atoms: C_2  and  C_11 
DOCKED: REMARK    3  A    between atoms: C_19  and  C_20 
DOCKED: REMARK    4  A    between atoms: C_20  and  C_21 
DOCKED: REMARK    5  A    between atoms: C_21  and  N_22 
DOCKED: USER                              x       y       z     vdW  Elec       q    Type
DOCKED: USER                           _______ _______ _______ _____ _____    ______ ____
DOCKED: ROOT
DOCKED: ATOM      1  O   UNL     1     -58.742 -38.751   8.973 -0.07 -0.00    -0.346 OA 
DOCKED: ATOM      2  C   UNL     1     -58.444 -37.429   8.420 -0.13 +0.00    +0.130 C  
DOCKED: ATOM      3  C   UNL     1     -58.668 -37.599   6.945 -0.26 +0.00    +0.004 A  
DOCKED: ATOM      4  C   UNL     1     -59.157 -38.872   6.690 -0.30 +0.00    +0.006 A  
DOCKED: ATOM      5  C   UNL     1     -59.301 -39.618   7.960 -0.10 +0.00    +0.169 C  
DOCKED: ATOM      6  C   UNL     1     -58.465 -36.695   5.912 -0.32 -0.00    -0.001 A  
DOCKED: ATOM      7  C   UNL     1     -59.455 -39.286   5.403 -0.41 +0.00    +0.008 A  
DOCKED: ATOM      8  C   UNL     1     -58.757 -37.098   4.608 -0.01 +0.00    +0.010 A  
DOCKED: ATOM      9  C   UNL     1     -59.250 -38.387   4.355 -0.40 +0.00    +0.068 A  
DOCKED: ATOM     10  N   UNL     1     -59.786 -39.101   1.923 -2.48 -0.00    -0.191 NA 
DOCKED: ATOM     11  C   UNL     1     -59.545 -38.781   3.014 -0.43 +0.00    +0.101 C  
DOCKED: ENDROOT
DOCKED: BRANCH   2  12
DOCKED: ATOM     12  C   UNL     1     -59.392 -36.417   9.051 -0.08 +0.00    +0.038 C  
DOCKED: BRANCH  12  13
DOCKED: ATOM     13  C   UNL     1     -59.754 -36.810  10.482 -0.05 +0.00    +0.038 C  
DOCKED: BRANCH  13  14
DOCKED: ATOM     14  C   UNL     1     -61.150 -37.427  10.546 -0.02 +0.00    +0.251 C  
DOCKED: BRANCH  14  15
DOCKED: ATOM     15  N   UNL     1     -61.144 -38.605  11.405 -0.06 +0.00    +0.141 N  
DOCKED: ATOM     16  C   UNL     1     -61.749 -39.748  10.719 -0.07 +0.00    +0.285 C  
DOCKED: ATOM     17  C   UNL     1     -59.781 -38.929  11.827 -0.06 +0.00    +0.285 C  
DOCKED: ENDBRANCH  14  15
DOCKED: ENDBRANCH  13  14
DOCKED: ENDBRANCH  12  13
DOCKED: ENDBRANCH   2  12
DOCKED: BRANCH   2  18
DOCKED: ATOM     18  C   UNL     1     -57.024 -37.123   8.761 -0.16 +0.00    +0.006 A  
DOCKED: ATOM     19  C   UNL     1     -56.399 -36.008   8.205 -0.16 +0.00    +0.001 A  
DOCKED: ATOM     20  C   UNL     1     -55.070 -35.724   8.524 -0.12 +0.00    +0.029 A  
DOCKED: ATOM     21  C   UNL     1     -54.371 -36.553   9.400 -0.09 +0.00    +0.140 A  
DOCKED: ATOM     22  C   UNL     1     -54.997 -37.668   9.956 -0.04 +0.00    +0.029 A  
DOCKED: ATOM     23  F   UNL     1     -53.096 -36.278   9.708 -0.01 -0.00    -0.204 F  
DOCKED: ATOM     24  C   UNL     1     -56.325 -37.954   9.636 -0.10 +0.00    +0.001 A  
DOCKED: ENDBRANCH   2  18
DOCKED: TORSDOF 5
DOCKED: TER
DOCKED: ENDMDL
________________________________________________________________________________


    FINAL DOCKED STATE:
    ________________________


Run:   39 / 512
Time taken for this run:   0.002s

DOCKED: MODEL        39
DOCKED: USER    Run = 39
DOCKED: USER
DOCKED: USER    Estimated Free Energy of Binding    =  -5.02 kcal/mol  [=(1)+(2)+(3)-(4)]
DOCKED: USER
DOCKED: USER    (1) Final Intermolecular Energy     =  -6.51 kcal/mol
DOCKED: USER        vdW + Hbond + desolv Energy     =  -6.51 kcal/mol
DOCKED: USER        Electrostatic Energy            =  +0.00 kcal/mol
DOCKED: USER        Moving Ligand-Fixed Receptor    =  -6.51 kcal/mol
DOCKED: USER        Moving Ligand-Moving Receptor   =  +0.00 kcal/mol
DOCKED: USER    (2) Final Total Internal Energy     =  -1.22 kcal/mol
DOCKED: USER    (3) Torsional Free Energy           =  +1.49 kcal/mol
DOCKED: USER    (4) Unbound System's Energy         =  -1.22 kcal/mol
DOCKED: USER
DOCKED: USER
DOCKED: REMARK  5 active torsions:
DOCKED: REMARK  status: ('A' for Active; 'I' for Inactive)
DOCKED: REMARK    1  A    between atoms: C_2  and  C_19 
DOCKED: REMARK    2  A    between atoms: C_2  and  C_11 
DOCKED: REMARK    3  A    between atoms: C_19  and  C_20 
DOCKED: REMARK    4  A    between atoms: C_20  and  C_21 
DOCKED: REMARK    5  A    between atoms: C_21  and  N_22 
DOCKED: USER                              x       y       z     vdW  Elec       q    Type
DOCKED: USER                           _______ _______ _______ _____ _____    ______ ____
DOCKED: ROOT
DOCKED: ATOM      1  O   UNL     1     -57.731 -35.788   7.939 -0.04 -0.00    -0.346 OA 
DOCKED: ATOM      2  C   UNL     1     -57.135 -37.124   7.984 -0.20 +0.00    +0.130 C  
DOCKED: ATOM      3  C   UNL     1     -57.639 -37.784   6.733 -0.32 +0.00    +0.004 A  
DOCKED: ATOM      4  C   UNL     1     -58.366 -36.871   5.983 -0.33 +0.00    +0.006 A  
DOCKED: ATOM      5  C   UNL     1     -58.384 -35.559   6.669 -0.22 +0.00    +0.169 C  
DOCKED: ATOM      6  C   UNL     1     -57.457 -39.085   6.288 -0.40 -0.00    -0.001 A  
DOCKED: ATOM      7  C   UNL     1     -58.938 -37.224   4.773 -0.11 +0.00    +0.008 A  
DOCKED: ATOM      8  C   UNL     1     -58.031 -39.459   5.071 -0.36 +0.00    +0.010 A  
DOCKED: ATOM      9  C   UNL     1     -58.767 -38.532   4.318 -0.41 +0.00    +0.068 A  
DOCKED: ATOM     10  N   UNL     1     -59.816 -39.257   2.062 -2.27 -0.00    -0.191 NA 
DOCKED: ATOM     11  C   UNL     1     -59.346 -38.932   3.074 -0.50 +0.00    +0.101 C  
DOCKED: ENDROOT
DOCKED: BRANCH   2  12
DOCKED: ATOM     12  C   UNL     1     -55.619 -36.977   8.008 -0.19 +0.00    +0.038 C  
DOCKED: BRANCH  12  13
DOCKED: ATOM     13  C   UNL     1     -55.188 -35.791   8.869 -0.12 +0.00    +0.038 C  
DOCKED: BRANCH  13  14
DOCKED: ATOM     14  C   UNL     1     -54.055 -36.182   9.816 -0.06 +0.00    +0.251 C  
DOCKED: BRANCH  14  15
DOCKED: ATOM     15  N   UNL     1     -54.005 -37.630   9.977 -0.09 +0.00    +0.141 N  
DOCKED: ATOM     16  C   UNL     1     -52.672 -38.140   9.651 -0.06 +0.00    +0.285 C  
DOCKED: ATOM     17  C   UNL     1     -54.375 -38.010  11.341 -0.06 +0.00    +0.285 C  
DOCKED: ENDBRANCH  14  15
DOCKED: ENDBRANCH  13  14
DOCKED: ENDBRANCH  12  13
DOCKED: ENDBRANCH   2  12
DOCKED: BRANCH   2  18
DOCKED: ATOM     18  C   UNL     1     -57.632 -37.782   9.228 -0.15 +0.00    +0.006 A  
DOCKED: ATOM     19  C   UNL     1     -58.144 -37.007  10.269 -0.07 +0.00    +0.001 A  
DOCKED: ATOM     20  C   UNL     1     -58.608 -37.623  11.432 -0.06 +0.00    +0.029 A  
DOCKED: ATOM     21  C   UNL     1     -58.560 -39.011  11.552 -0.11 +0.00    +0.140 A  
DOCKED: ATOM     22  C   UNL     1     -58.048 -39.785  10.511 -0.13 +0.00    +0.029 A  
DOCKED: ATOM     23  F   UNL     1     -59.007 -39.602  12.668 -0.02 -0.00    -0.204 F  
DOCKED: ATOM     24  C   UNL     1     -57.583 -39.170   9.348 -0.22 +0.00    +0.001 A  
DOCKED: ENDBRANCH   2  18
DOCKED: TORSDOF 5
DOCKED: TER
DOCKED: ENDMDL
________________________________________________________________________________


    FINAL DOCKED STATE:
    ________________________


Run:   40 / 512
Time taken for this run:   0.002s

DOCKED: MODEL        40
DOCKED: USER    Run = 40
DOCKED: USER
DOCKED: USER    Estimated Free Energy of Binding    =  -4.64 kcal/mol  [=(1)+(2)+(3)-(4)]
DOCKED: USER
DOCKED: USER    (1) Final Intermolecular Energy     =  -6.13 kcal/mol
DOCKED: USER        vdW + Hbond + desolv Energy     =  -6.13 kcal/mol
DOCKED: USER        Electrostatic Energy            =  +0.00 kcal/mol
DOCKED: USER        Moving Ligand-Fixed Receptor    =  -6.13 kcal/mol
DOCKED: USER        Moving Ligand-Moving Receptor   =  +0.00 kcal/mol
DOCKED: USER    (2) Final Total Internal Energy     =  -1.16 kcal/mol
DOCKED: USER    (3) Torsional Free Energy           =  +1.49 kcal/mol
DOCKED: USER    (4) Unbound System's Energy         =  -1.16 kcal/mol
DOCKED: USER
DOCKED: USER
DOCKED: REMARK  5 active torsions:
DOCKED: REMARK  status: ('A' for Active; 'I' for Inactive)
DOCKED: REMARK    1  A    between atoms: C_2  and  C_19 
DOCKED: REMARK    2  A    between atoms: C_2  and  C_11 
DOCKED: REMARK    3  A    between atoms: C_19  and  C_20 
DOCKED: REMARK    4  A    between atoms: C_20  and  C_21 
DOCKED: REMARK    5  A    between atoms: C_21  and  N_22 
DOCKED: USER                              x       y       z     vdW  Elec       q    Type
DOCKED: USER                           _______ _______ _______ _____ _____    ______ ____
DOCKED: ROOT
DOCKED: ATOM      1  O   UNL     1     -55.445 -30.132   0.851 -0.09 -0.00    -0.346 OA 
DOCKED: ATOM      2  C   UNL     1     -54.175 -29.997   0.137 -0.16 +0.00    +0.130 C  
DOCKED: ATOM      3  C   UNL     1     -54.550 -29.290  -1.133 -0.24 +0.00    +0.004 A  
DOCKED: ATOM      4  C   UNL     1     -55.896 -28.951  -1.099 -0.24 +0.00    +0.006 A  
DOCKED: ATOM      5  C   UNL     1     -56.492 -29.392   0.181 -0.24 +0.00    +0.169 C  
DOCKED: ATOM      6  C   UNL     1     -53.762 -28.963  -2.227 -0.20 -0.00    -0.001 A  
DOCKED: ATOM      7  C   UNL     1     -56.497 -28.282  -2.152 -0.34 +0.00    +0.008 A  
DOCKED: ATOM      8  C   UNL     1     -54.354 -28.291  -3.297 -0.26 +0.00    +0.010 A  
DOCKED: ATOM      9  C   UNL     1     -55.715 -27.953  -3.260 -0.29 +0.00    +0.068 A  
DOCKED: ATOM     10  N   UNL     1     -56.783 -26.702  -5.262 -2.48 -0.00    -0.191 NA 
DOCKED: ATOM     11  C   UNL     1     -56.304 -27.264  -4.364 -0.40 +0.00    +0.101 C  
DOCKED: ENDROOT
DOCKED: BRANCH   2  12
DOCKED: ATOM     12  C   UNL     1     -53.216 -29.190   1.004 -0.16 +0.00    +0.038 C  
DOCKED: BRANCH  12  13
DOCKED: ATOM     13  C   UNL     1     -52.069 -28.613   0.178 -0.13 +0.00    +0.038 C  
DOCKED: BRANCH  13  14
DOCKED: ATOM     14  C   UNL     1     -50.874 -29.565   0.157 -0.02 +0.00    +0.251 C  
DOCKED: BRANCH  14  15
DOCKED: ATOM     15  N   UNL     1     -50.041 -29.309  -1.011 -0.01 +0.00    +0.141 N  
DOCKED: ATOM     16  C   UNL     1     -48.624 -29.459  -0.678 -0.00 +0.00    +0.285 C  
DOCKED: ATOM     17  C   UNL     1     -50.402 -30.207  -2.110 +0.00 +0.00    +0.285 C  
DOCKED: ENDBRANCH  14  15
DOCKED: ENDBRANCH  13  14
DOCKED: ENDBRANCH  12  13
DOCKED: ENDBRANCH   2  12
DOCKED: BRANCH   2  18
DOCKED: ATOM     18  C   UNL     1     -53.657 -31.377  -0.097 -0.12 +0.00    +0.006 A  
DOCKED: ATOM     19  C   UNL     1     -53.874 -32.004  -1.323 -0.20 +0.00    +0.001 A  
DOCKED: ATOM     20  C   UNL     1     -53.390 -33.294  -1.540 -0.19 +0.00    +0.029 A  
DOCKED: ATOM     21  C   UNL     1     -52.690 -33.955  -0.532 -0.14 +0.00    +0.140 A  
DOCKED: ATOM     22  C   UNL     1     -52.473 -33.327   0.695 -0.08 +0.00    +0.029 A  
DOCKED: ATOM     23  F   UNL     1     -52.223 -35.193  -0.741 -0.07 -0.00    -0.204 F  
DOCKED: ATOM     24  C   UNL     1     -52.958 -32.037   0.913 -0.06 +0.00    +0.001 A  
DOCKED: ENDBRANCH   2  18
DOCKED: TORSDOF 5
DOCKED: TER
DOCKED: ENDMDL
________________________________________________________________________________


    FINAL DOCKED STATE:
    ________________________


Run:   41 / 512
Time taken for this run:   0.002s

DOCKED: MODEL        41
DOCKED: USER    Run = 41
DOCKED: USER
DOCKED: USER    Estimated Free Energy of Binding    =  -5.72 kcal/mol  [=(1)+(2)+(3)-(4)]
DOCKED: USER
DOCKED: USER    (1) Final Intermolecular Energy     =  -7.22 kcal/mol
DOCKED: USER        vdW + Hbond + desolv Energy     =  -7.22 kcal/mol
DOCKED: USER        Electrostatic Energy            =  +0.00 kcal/mol
DOCKED: USER        Moving Ligand-Fixed Receptor    =  -7.22 kcal/mol
DOCKED: USER        Moving Ligand-Moving Receptor   =  +0.00 kcal/mol
DOCKED: USER    (2) Final Total Internal Energy     =  -1.27 kcal/mol
DOCKED: USER    (3) Torsional Free Energy           =  +1.49 kcal/mol
DOCKED: USER    (4) Unbound System's Energy         =  -1.27 kcal/mol
DOCKED: USER
DOCKED: USER
DOCKED: REMARK  5 active torsions:
DOCKED: REMARK  status: ('A' for Active; 'I' for Inactive)
DOCKED: REMARK    1  A    between atoms: C_2  and  C_19 
DOCKED: REMARK    2  A    between atoms: C_2  and  C_11 
DOCKED: REMARK    3  A    between atoms: C_19  and  C_20 
DOCKED: REMARK    4  A    between atoms: C_20  and  C_21 
DOCKED: REMARK    5  A    between atoms: C_21  and  N_22 
DOCKED: USER                              x       y       z     vdW  Elec       q    Type
DOCKED: USER                           _______ _______ _______ _____ _____    ______ ____
DOCKED: ROOT
DOCKED: ATOM      1  O   UNL     1     -57.883 -36.204   7.873 -0.04 -0.00    -0.346 OA 
DOCKED: ATOM      2  C   UNL     1     -57.374 -37.576   7.843 -0.22 +0.00    +0.130 C  
DOCKED: ATOM      3  C   UNL     1     -57.860 -38.111   6.528 -0.35 +0.00    +0.004 A  
DOCKED: ATOM      4  C   UNL     1     -58.496 -37.102   5.819 -0.35 +0.00    +0.006 A  
DOCKED: ATOM      5  C   UNL     1     -58.464 -35.844   6.598 -0.23 +0.00    +0.169 C  
DOCKED: ATOM      6  C   UNL     1     -57.739 -39.387   5.996 -0.39 -0.00    -0.001 A  
DOCKED: ATOM      7  C   UNL     1     -59.033 -37.331   4.564 -0.11 +0.00    +0.008 A  
DOCKED: ATOM      8  C   UNL     1     -58.280 -39.635   4.733 -0.43 +0.00    +0.010 A  
DOCKED: ATOM      9  C   UNL     1     -58.923 -38.612   4.021 -0.44 +0.00    +0.068 A  
DOCKED: ATOM     10  N   UNL     1     -59.912 -39.105   1.677 -2.74 -0.00    -0.191 NA 
DOCKED: ATOM     11  C   UNL     1     -59.469 -38.884   2.729 -0.41 +0.00    +0.101 C  
DOCKED: ENDROOT
DOCKED: BRANCH   2  12
DOCKED: ATOM     12  C   UNL     1     -55.854 -37.528   7.939 -0.23 +0.00    +0.038 C  
DOCKED: BRANCH  12  13
DOCKED: ATOM     13  C   UNL     1     -55.374 -36.207   8.538 -0.17 +0.00    +0.038 C  
DOCKED: BRANCH  13  14
DOCKED: ATOM     14  C   UNL     1     -54.148 -36.418   9.425 -0.08 +0.00    +0.251 C  
DOCKED: BRANCH  14  15
DOCKED: ATOM     15  N   UNL     1     -54.420 -35.966  10.783 -0.03 +0.00    +0.141 N  
DOCKED: ATOM     16  C   UNL     1     -55.812 -35.532  10.914 -0.01 +0.00    +0.285 C  
DOCKED: ATOM     17  C   UNL     1     -54.127 -37.026  11.749 -0.03 +0.00    +0.285 C  
DOCKED: ENDBRANCH  14  15
DOCKED: ENDBRANCH  13  14
DOCKED: ENDBRANCH  12  13
DOCKED: ENDBRANCH   2  12
DOCKED: BRANCH   2  18
DOCKED: ATOM     18  C   UNL     1     -57.965 -38.286   9.015 -0.19 +0.00    +0.006 A  
DOCKED: ATOM     19  C   UNL     1     -57.150 -38.680  10.075 -0.16 +0.00    +0.001 A  
DOCKED: ATOM     20  C   UNL     1     -57.704 -39.345  11.169 -0.21 +0.00    +0.029 A  
DOCKED: ATOM     21  C   UNL     1     -59.072 -39.614  11.203 -0.04 +0.00    +0.140 A  
DOCKED: ATOM     22  C   UNL     1     -59.887 -39.219  10.142 -0.15 +0.00    +0.029 A  
DOCKED: ATOM     23  F   UNL     1     -59.604 -40.250  12.254 -0.03 -0.00    -0.204 F  
DOCKED: ATOM     24  C   UNL     1     -59.333 -38.554   9.046 -0.17 +0.00    +0.001 A  
DOCKED: ENDBRANCH   2  18
DOCKED: TORSDOF 5
DOCKED: TER
DOCKED: ENDMDL
________________________________________________________________________________


    FINAL DOCKED STATE:
    ________________________


Run:   42 / 512
Time taken for this run:   0.002s

DOCKED: MODEL        42
DOCKED: USER    Run = 42
DOCKED: USER
DOCKED: USER    Estimated Free Energy of Binding    =  -4.30 kcal/mol  [=(1)+(2)+(3)-(4)]
DOCKED: USER
DOCKED: USER    (1) Final Intermolecular Energy     =  -5.79 kcal/mol
DOCKED: USER        vdW + Hbond + desolv Energy     =  -5.79 kcal/mol
DOCKED: USER        Electrostatic Energy            =  +0.00 kcal/mol
DOCKED: USER        Moving Ligand-Fixed Receptor    =  -5.79 kcal/mol
DOCKED: USER        Moving Ligand-Moving Receptor   =  +0.00 kcal/mol
DOCKED: USER    (2) Final Total Internal Energy     =  -1.51 kcal/mol
DOCKED: USER    (3) Torsional Free Energy           =  +1.49 kcal/mol
DOCKED: USER    (4) Unbound System's Energy         =  -1.51 kcal/mol
DOCKED: USER
DOCKED: USER
DOCKED: REMARK  5 active torsions:
DOCKED: REMARK  status: ('A' for Active; 'I' for Inactive)
DOCKED: REMARK    1  A    between atoms: C_2  and  C_19 
DOCKED: REMARK    2  A    between atoms: C_2  and  C_11 
DOCKED: REMARK    3  A    between atoms: C_19  and  C_20 
DOCKED: REMARK    4  A    between atoms: C_20  and  C_21 
DOCKED: REMARK    5  A    between atoms: C_21  and  N_22 
DOCKED: USER                              x       y       z     vdW  Elec       q    Type
DOCKED: USER                           _______ _______ _______ _____ _____    ______ ____
DOCKED: ROOT
DOCKED: ATOM      1  O   UNL     1     -56.771 -33.812   7.197 -0.05 -0.00    -0.346 OA 
DOCKED: ATOM      2  C   UNL     1     -58.200 -33.712   7.500 -0.13 +0.00    +0.130 C  
DOCKED: ATOM      3  C   UNL     1     -58.753 -35.038   7.064 -0.21 +0.00    +0.004 A  
DOCKED: ATOM      4  C   UNL     1     -57.717 -35.864   6.652 -0.27 +0.00    +0.006 A  
DOCKED: ATOM      5  C   UNL     1     -56.424 -35.158   6.796 -0.14 +0.00    +0.169 C  
DOCKED: ATOM      6  C   UNL     1     -60.067 -35.482   7.045 -0.22 -0.00    -0.001 A  
DOCKED: ATOM      7  C   UNL     1     -57.956 -37.152   6.205 -0.33 +0.00    +0.008 A  
DOCKED: ATOM      8  C   UNL     1     -60.325 -36.777   6.593 -0.22 +0.00    +0.010 A  
DOCKED: ATOM      9  C   UNL     1     -59.275 -37.608   6.176 -0.26 +0.00    +0.068 A  
DOCKED: ATOM     10  N   UNL     1     -59.789 -40.009   5.347 -2.56 -0.00    -0.191 NA 
DOCKED: ATOM     11  C   UNL     1     -59.558 -38.932   5.718 -0.36 +0.00    +0.101 C  
DOCKED: ENDROOT
DOCKED: BRANCH   2  12
DOCKED: ATOM     12  C   UNL     1     -58.360 -33.465   8.995 -0.04 +0.00    +0.038 C  
DOCKED: BRANCH  12  13
DOCKED: ATOM     13  C   UNL     1     -57.958 -32.040   9.370 -0.02 +0.00    +0.038 C  
DOCKED: BRANCH  13  14
DOCKED: ATOM     14  C   UNL     1     -56.445 -31.925   9.551 -0.00 +0.00    +0.251 C  
DOCKED: BRANCH  14  15
DOCKED: ATOM     15  N   UNL     1     -55.831 -31.377   8.347 -0.01 +0.00    +0.141 N  
DOCKED: ATOM     16  C   UNL     1     -55.904 -29.915   8.350 -0.00 +0.00    +0.285 C  
DOCKED: ATOM     17  C   UNL     1     -54.438 -31.815   8.234 -0.01 +0.00    +0.285 C  
DOCKED: ENDBRANCH  14  15
DOCKED: ENDBRANCH  13  14
DOCKED: ENDBRANCH  12  13
DOCKED: ENDBRANCH   2  12
DOCKED: BRANCH   2  18
DOCKED: ATOM     18  C   UNL     1     -58.735 -32.569   6.704 -0.17 +0.00    +0.006 A  
DOCKED: ATOM     19  C   UNL     1     -57.870 -31.782   5.946 -0.12 +0.00    +0.001 A  
DOCKED: ATOM     20  C   UNL     1     -58.372 -30.713   5.203 -0.15 +0.00    +0.029 A  
DOCKED: ATOM     21  C   UNL     1     -59.738 -30.433   5.219 -0.12 +0.00    +0.140 A  
DOCKED: ATOM     22  C   UNL     1     -60.603 -31.221   5.977 -0.16 +0.00    +0.029 A  
DOCKED: ATOM     23  F   UNL     1     -60.220 -29.408   4.504 -0.02 -0.00    -0.204 F  
DOCKED: ATOM     24  C   UNL     1     -60.101 -32.290   6.721 -0.20 +0.00    +0.001 A  
DOCKED: ENDBRANCH   2  18
DOCKED: TORSDOF 5
DOCKED: TER
DOCKED: ENDMDL
________________________________________________________________________________


    FINAL DOCKED STATE:
    ________________________


Run:   43 / 512
Time taken for this run:   0.002s

DOCKED: MODEL        43
DOCKED: USER    Run = 43
DOCKED: USER
DOCKED: USER    Estimated Free Energy of Binding    =  -3.77 kcal/mol  [=(1)+(2)+(3)-(4)]
DOCKED: USER
DOCKED: USER    (1) Final Intermolecular Energy     =  -5.26 kcal/mol
DOCKED: USER        vdW + Hbond + desolv Energy     =  -5.26 kcal/mol
DOCKED: USER        Electrostatic Energy            =  +0.00 kcal/mol
DOCKED: USER        Moving Ligand-Fixed Receptor    =  -5.26 kcal/mol
DOCKED: USER        Moving Ligand-Moving Receptor   =  +0.00 kcal/mol
DOCKED: USER    (2) Final Total Internal Energy     =  -1.38 kcal/mol
DOCKED: USER    (3) Torsional Free Energy           =  +1.49 kcal/mol
DOCKED: USER    (4) Unbound System's Energy         =  -1.38 kcal/mol
DOCKED: USER
DOCKED: USER
DOCKED: REMARK  5 active torsions:
DOCKED: REMARK  status: ('A' for Active; 'I' for Inactive)
DOCKED: REMARK    1  A    between atoms: C_2  and  C_19 
DOCKED: REMARK    2  A    between atoms: C_2  and  C_11 
DOCKED: REMARK    3  A    between atoms: C_19  and  C_20 
DOCKED: REMARK    4  A    between atoms: C_20  and  C_21 
DOCKED: REMARK    5  A    between atoms: C_21  and  N_22 
DOCKED: USER                              x       y       z     vdW  Elec       q    Type
DOCKED: USER                           _______ _______ _______ _____ _____    ______ ____
DOCKED: ROOT
DOCKED: ATOM      1  O   UNL     1     -53.542 -30.013   0.475 -0.04 -0.00    -0.346 OA 
DOCKED: ATOM      2  C   UNL     1     -54.944 -30.077   0.062 -0.21 +0.00    +0.130 C  
DOCKED: ATOM      3  C   UNL     1     -55.019 -29.134  -1.104 -0.28 +0.00    +0.004 A  
DOCKED: ATOM      4  C   UNL     1     -53.750 -28.657  -1.401 -0.18 +0.00    +0.006 A  
DOCKED: ATOM      5  C   UNL     1     -52.760 -29.253  -0.476 -0.10 +0.00    +0.169 C  
DOCKED: ATOM      6  C   UNL     1     -56.121 -28.738  -1.848 -0.31 -0.00    -0.001 A  
DOCKED: ATOM      7  C   UNL     1     -53.539 -27.771  -2.443 -0.19 +0.00    +0.008 A  
DOCKED: ATOM      8  C   UNL     1     -55.925 -27.841  -2.900 -0.41 +0.00    +0.010 A  
DOCKED: ATOM      9  C   UNL     1     -54.641 -27.361  -3.196 -0.29 +0.00    +0.068 A  
DOCKED: ATOM     10  N   UNL     1     -54.312 -25.701  -5.158 -0.79 -0.00    -0.191 NA 
DOCKED: ATOM     11  C   UNL     1     -54.460 -26.445  -4.278 -0.35 +0.00    +0.101 C  
DOCKED: ENDROOT
DOCKED: BRANCH   2  12
DOCKED: ATOM     12  C   UNL     1     -55.270 -31.517  -0.318 -0.20 +0.00    +0.038 C  
DOCKED: BRANCH  12  13
DOCKED: ATOM     13  C   UNL     1     -54.311 -32.500   0.350 -0.20 +0.00    +0.038 C  
DOCKED: BRANCH  13  14
DOCKED: ATOM     14  C   UNL     1     -54.867 -32.988   1.687 -0.15 +0.00    +0.251 C  
DOCKED: BRANCH  14  15
DOCKED: ATOM     15  N   UNL     1     -53.783 -33.211   2.636 -0.10 +0.00    +0.141 N  
DOCKED: ATOM     16  C   UNL     1     -52.644 -33.851   1.977 -0.06 +0.00    +0.285 C  
DOCKED: ATOM     17  C   UNL     1     -53.369 -31.949   3.252 -0.03 +0.00    +0.285 C  
DOCKED: ENDBRANCH  14  15
DOCKED: ENDBRANCH  13  14
DOCKED: ENDBRANCH  12  13
DOCKED: ENDBRANCH   2  12
DOCKED: BRANCH   2  18
DOCKED: ATOM     18  C   UNL     1     -55.763 -29.629   1.226 -0.26 +0.00    +0.006 A  
DOCKED: ATOM     19  C   UNL     1     -55.135 -29.177   2.386 -0.20 +0.00    +0.001 A  
DOCKED: ATOM     20  C   UNL     1     -55.902 -28.758   3.474 -0.18 +0.00    +0.029 A  
DOCKED: ATOM     21  C   UNL     1     -57.293 -28.793   3.401 -0.14 +0.00    +0.140 A  
DOCKED: ATOM     22  C   UNL     1     -57.920 -29.246   2.241 -0.27 +0.00    +0.029 A  
DOCKED: ATOM     23  F   UNL     1     -58.029 -28.389   4.446 -0.00 -0.00    -0.204 F  
DOCKED: ATOM     24  C   UNL     1     -57.155 -29.665   1.152 -0.29 +0.00    +0.001 A  
DOCKED: ENDBRANCH   2  18
DOCKED: TORSDOF 5
DOCKED: TER
DOCKED: ENDMDL
________________________________________________________________________________


    FINAL DOCKED STATE:
    ________________________


Run:   44 / 512
Time taken for this run:   0.002s

DOCKED: MODEL        44
DOCKED: USER    Run = 44
DOCKED: USER
DOCKED: USER    Estimated Free Energy of Binding    =  -4.72 kcal/mol  [=(1)+(2)+(3)-(4)]
DOCKED: USER
DOCKED: USER    (1) Final Intermolecular Energy     =  -6.21 kcal/mol
DOCKED: USER        vdW + Hbond + desolv Energy     =  -6.21 kcal/mol
DOCKED: USER        Electrostatic Energy            =  +0.00 kcal/mol
DOCKED: USER        Moving Ligand-Fixed Receptor    =  -6.21 kcal/mol
DOCKED: USER        Moving Ligand-Moving Receptor   =  +0.00 kcal/mol
DOCKED: USER    (2) Final Total Internal Energy     =  -1.13 kcal/mol
DOCKED: USER    (3) Torsional Free Energy           =  +1.49 kcal/mol
DOCKED: USER    (4) Unbound System's Energy         =  -1.13 kcal/mol
DOCKED: USER
DOCKED: USER
DOCKED: REMARK  5 active torsions:
DOCKED: REMARK  status: ('A' for Active; 'I' for Inactive)
DOCKED: REMARK    1  A    between atoms: C_2  and  C_19 
DOCKED: REMARK    2  A    between atoms: C_2  and  C_11 
DOCKED: REMARK    3  A    between atoms: C_19  and  C_20 
DOCKED: REMARK    4  A    between atoms: C_20  and  C_21 
DOCKED: REMARK    5  A    between atoms: C_21  and  N_22 
DOCKED: USER                              x       y       z     vdW  Elec       q    Type
DOCKED: USER                           _______ _______ _______ _____ _____    ______ ____
DOCKED: ROOT
DOCKED: ATOM      1  O   UNL     1     -55.788 -30.258   1.016 -0.09 -0.00    -0.346 OA 
DOCKED: ATOM      2  C   UNL     1     -54.488 -30.167   0.350 -0.17 +0.00    +0.130 C  
DOCKED: ATOM      3  C   UNL     1     -54.792 -29.453  -0.936 -0.26 +0.00    +0.004 A  
DOCKED: ATOM      4  C   UNL     1     -56.126 -29.071  -0.954 -0.25 +0.00    +0.006 A  
DOCKED: ATOM      5  C   UNL     1     -56.785 -29.488   0.304 -0.18 +0.00    +0.169 C  
DOCKED: ATOM      6  C   UNL     1     -53.952 -29.155  -1.999 -0.21 -0.00    -0.001 A  
DOCKED: ATOM      7  C   UNL     1     -56.665 -28.387  -2.030 -0.35 +0.00    +0.008 A  
DOCKED: ATOM      8  C   UNL     1     -54.482 -28.470  -3.093 -0.26 +0.00    +0.010 A  
DOCKED: ATOM      9  C   UNL     1     -55.831 -28.087  -3.108 -0.22 +0.00    +0.068 A  
DOCKED: ATOM     10  N   UNL     1     -56.781 -26.811  -5.153 -2.50 -0.00    -0.191 NA 
DOCKED: ATOM     11  C   UNL     1     -56.355 -27.384  -4.236 -0.33 +0.00    +0.101 C  
DOCKED: ENDROOT
DOCKED: BRANCH   2  12
DOCKED: ATOM     12  C   UNL     1     -53.538 -29.387   1.251 -0.16 +0.00    +0.038 C  
DOCKED: BRANCH  12  13
DOCKED: ATOM     13  C   UNL     1     -52.658 -28.436   0.443 -0.14 +0.00    +0.038 C  
DOCKED: BRANCH  13  14
DOCKED: ATOM     14  C   UNL     1     -51.207 -28.913   0.421 -0.06 +0.00    +0.251 C  
DOCKED: BRANCH  14  15
DOCKED: ATOM     15  N   UNL     1     -51.152 -30.369   0.477 -0.02 +0.00    +0.141 N  
DOCKED: ATOM     16  C   UNL     1     -50.503 -30.907  -0.720 -0.00 +0.00    +0.285 C  
DOCKED: ATOM     17  C   UNL     1     -50.444 -30.812   1.680 -0.00 +0.00    +0.285 C  
DOCKED: ENDBRANCH  14  15
DOCKED: ENDBRANCH  13  14
DOCKED: ENDBRANCH  12  13
DOCKED: ENDBRANCH   2  12
DOCKED: BRANCH   2  18
DOCKED: ATOM     18  C   UNL     1     -54.007 -31.564   0.140 -0.14 +0.00    +0.006 A  
DOCKED: ATOM     19  C   UNL     1     -53.721 -32.375   1.237 -0.11 +0.00    +0.001 A  
DOCKED: ATOM     20  C   UNL     1     -53.271 -33.680   1.039 -0.15 +0.00    +0.029 A  
DOCKED: ATOM     21  C   UNL     1     -53.107 -34.173  -0.254 -0.16 +0.00    +0.140 A  
DOCKED: ATOM     22  C   UNL     1     -53.393 -33.361  -1.352 -0.18 +0.00    +0.029 A  
DOCKED: ATOM     23  F   UNL     1     -52.677 -35.427  -0.444 -0.06 -0.00    -0.204 F  
DOCKED: ATOM     24  C   UNL     1     -53.843 -32.055  -1.155 -0.19 +0.00    +0.001 A  
DOCKED: ENDBRANCH   2  18
DOCKED: TORSDOF 5
DOCKED: TER
DOCKED: ENDMDL
________________________________________________________________________________


    FINAL DOCKED STATE:
    ________________________


Run:   45 / 512
Time taken for this run:   0.002s

DOCKED: MODEL        45
DOCKED: USER    Run = 45
DOCKED: USER
DOCKED: USER    Estimated Free Energy of Binding    =  -3.65 kcal/mol  [=(1)+(2)+(3)-(4)]
DOCKED: USER
DOCKED: USER    (1) Final Intermolecular Energy     =  -5.15 kcal/mol
DOCKED: USER        vdW + Hbond + desolv Energy     =  -5.15 kcal/mol
DOCKED: USER        Electrostatic Energy            =  +0.00 kcal/mol
DOCKED: USER        Moving Ligand-Fixed Receptor    =  -5.15 kcal/mol
DOCKED: USER        Moving Ligand-Moving Receptor   =  +0.00 kcal/mol
DOCKED: USER    (2) Final Total Internal Energy     =  -1.34 kcal/mol
DOCKED: USER    (3) Torsional Free Energy           =  +1.49 kcal/mol
DOCKED: USER    (4) Unbound System's Energy         =  -1.34 kcal/mol
DOCKED: USER
DOCKED: USER
DOCKED: REMARK  5 active torsions:
DOCKED: REMARK  status: ('A' for Active; 'I' for Inactive)
DOCKED: REMARK    1  A    between atoms: C_2  and  C_19 
DOCKED: REMARK    2  A    between atoms: C_2  and  C_11 
DOCKED: REMARK    3  A    between atoms: C_19  and  C_20 
DOCKED: REMARK    4  A    between atoms: C_20  and  C_21 
DOCKED: REMARK    5  A    between atoms: C_21  and  N_22 
DOCKED: USER                              x       y       z     vdW  Elec       q    Type
DOCKED: USER                           _______ _______ _______ _____ _____    ______ ____
DOCKED: ROOT
DOCKED: ATOM      1  O   UNL     1     -57.651 -34.776   8.813 -0.01 -0.00    -0.346 OA 
DOCKED: ATOM      2  C   UNL     1     -56.478 -35.606   8.537 -0.11 +0.00    +0.130 C  
DOCKED: ATOM      3  C   UNL     1     -57.031 -36.762   7.754 -0.22 +0.00    +0.004 A  
DOCKED: ATOM      4  C   UNL     1     -58.381 -36.555   7.508 -0.19 +0.00    +0.006 A  
DOCKED: ATOM      5  C   UNL     1     -58.806 -35.263   8.091 -0.10 +0.00    +0.169 C  
DOCKED: ATOM      6  C   UNL     1     -56.388 -37.899   7.288 -0.17 -0.00    -0.001 A  
DOCKED: ATOM      7  C   UNL     1     -59.132 -37.474   6.795 -0.25 +0.00    +0.008 A  
DOCKED: ATOM      8  C   UNL     1     -57.133 -38.837   6.571 -0.36 +0.00    +0.010 A  
DOCKED: ATOM      9  C   UNL     1     -58.498 -38.625   6.326 -0.31 +0.00    +0.068 A  
DOCKED: ATOM     10  N   UNL     1     -59.850 -40.384   4.988 -2.29 -0.00    -0.191 NA 
DOCKED: ATOM     11  C   UNL     1     -59.244 -39.595   5.588 -0.29 +0.00    +0.101 C  
DOCKED: ENDROOT
DOCKED: BRANCH   2  12
DOCKED: ATOM     12  C   UNL     1     -55.475 -34.777   7.743 -0.14 +0.00    +0.038 C  
DOCKED: BRANCH  12  13
DOCKED: ATOM     13  C   UNL     1     -55.858 -33.299   7.734 -0.08 +0.00    +0.038 C  
DOCKED: BRANCH  13  14
DOCKED: ATOM     14  C   UNL     1     -56.539 -32.916   6.421 -0.11 +0.00    +0.251 C  
DOCKED: BRANCH  14  15
DOCKED: ATOM     15  N   UNL     1     -57.543 -31.884   6.653 -0.09 +0.00    +0.141 N  
DOCKED: ATOM     16  C   UNL     1     -58.858 -32.331   6.193 -0.12 +0.00    +0.285 C  
DOCKED: ATOM     17  C   UNL     1     -57.596 -31.525   8.071 -0.02 +0.00    +0.285 C  
DOCKED: ENDBRANCH  14  15
DOCKED: ENDBRANCH  13  14
DOCKED: ENDBRANCH  12  13
DOCKED: ENDBRANCH   2  12
DOCKED: BRANCH   2  18
DOCKED: ATOM     18  C   UNL     1     -55.913 -36.015   9.857 -0.07 +0.00    +0.006 A  
DOCKED: ATOM     19  C   UNL     1     -56.742 -36.095  10.975 -0.04 +0.00    +0.001 A  
DOCKED: ATOM     20  C   UNL     1     -56.213 -36.477  12.208 -0.03 +0.00    +0.029 A  
DOCKED: ATOM     21  C   UNL     1     -54.857 -36.779  12.322 -0.03 +0.00    +0.140 A  
DOCKED: ATOM     22  C   UNL     1     -54.028 -36.699  11.203 -0.06 +0.00    +0.029 A  
DOCKED: ATOM     23  F   UNL     1     -54.349 -37.147  13.505 -0.00 -0.00    -0.204 F  
DOCKED: ATOM     24  C   UNL     1     -54.556 -36.316   9.969 -0.09 +0.00    +0.001 A  
DOCKED: ENDBRANCH   2  18
DOCKED: TORSDOF 5
DOCKED: TER
DOCKED: ENDMDL
________________________________________________________________________________


    FINAL DOCKED STATE:
    ________________________


Run:   46 / 512
Time taken for this run:   0.002s

DOCKED: MODEL        46
DOCKED: USER    Run = 46
DOCKED: USER
DOCKED: USER    Estimated Free Energy of Binding    =  -5.64 kcal/mol  [=(1)+(2)+(3)-(4)]
DOCKED: USER
DOCKED: USER    (1) Final Intermolecular Energy     =  -7.13 kcal/mol
DOCKED: USER        vdW + Hbond + desolv Energy     =  -7.13 kcal/mol
DOCKED: USER        Electrostatic Energy            =  +0.00 kcal/mol
DOCKED: USER        Moving Ligand-Fixed Receptor    =  -7.13 kcal/mol
DOCKED: USER        Moving Ligand-Moving Receptor   =  +0.00 kcal/mol
DOCKED: USER    (2) Final Total Internal Energy     =  -1.51 kcal/mol
DOCKED: USER    (3) Torsional Free Energy           =  +1.49 kcal/mol
DOCKED: USER    (4) Unbound System's Energy         =  -1.51 kcal/mol
DOCKED: USER
DOCKED: USER
DOCKED: REMARK  5 active torsions:
DOCKED: REMARK  status: ('A' for Active; 'I' for Inactive)
DOCKED: REMARK    1  A    between atoms: C_2  and  C_19 
DOCKED: REMARK    2  A    between atoms: C_2  and  C_11 
DOCKED: REMARK    3  A    between atoms: C_19  and  C_20 
DOCKED: REMARK    4  A    between atoms: C_20  and  C_21 
DOCKED: REMARK    5  A    between atoms: C_21  and  N_22 
DOCKED: USER                              x       y       z     vdW  Elec       q    Type
DOCKED: USER                           _______ _______ _______ _____ _____    ______ ____
DOCKED: ROOT
DOCKED: ATOM      1  O   UNL     1     -57.325 -36.030   7.743 -0.07 -0.00    -0.346 OA 
DOCKED: ATOM      2  C   UNL     1     -57.195 -37.485   7.827 -0.23 +0.00    +0.130 C  
DOCKED: ATOM      3  C   UNL     1     -57.769 -37.973   6.528 -0.34 +0.00    +0.004 A  
DOCKED: ATOM      4  C   UNL     1     -58.096 -36.889   5.725 -0.31 +0.00    +0.006 A  
DOCKED: ATOM      5  C   UNL     1     -57.755 -35.628   6.421 -0.23 +0.00    +0.169 C  
DOCKED: ATOM      6  C   UNL     1     -57.974 -39.272   6.087 -0.41 -0.00    -0.001 A  
DOCKED: ATOM      7  C   UNL     1     -58.640 -37.064   4.464 +0.04 +0.00    +0.008 A  
DOCKED: ATOM      8  C   UNL     1     -58.526 -39.465   4.819 -0.48 +0.00    +0.010 A  
DOCKED: ATOM      9  C   UNL     1     -58.856 -38.367   4.012 -0.40 +0.00    +0.068 A  
DOCKED: ATOM     10  N   UNL     1     -59.874 -38.760   1.662 -2.96 -0.00    -0.191 NA 
DOCKED: ATOM     11  C   UNL     1     -59.418 -38.584   2.716 -0.44 +0.00    +0.101 C  
DOCKED: ENDROOT
DOCKED: BRANCH   2  12
DOCKED: ATOM     12  C   UNL     1     -55.720 -37.829   7.990 -0.21 +0.00    +0.038 C  
DOCKED: BRANCH  12  13
DOCKED: ATOM     13  C   UNL     1     -55.101 -37.081   9.169 -0.18 +0.00    +0.038 C  
DOCKED: BRANCH  13  14
DOCKED: ATOM     14  C   UNL     1     -54.484 -35.758   8.717 -0.09 +0.00    +0.251 C  
DOCKED: BRANCH  14  15
DOCKED: ATOM     15  N   UNL     1     -55.053 -34.649   9.473 -0.03 +0.00    +0.141 N  
DOCKED: ATOM     16  C   UNL     1     -55.642 -33.657   8.572 -0.03 +0.00    +0.285 C  
DOCKED: ATOM     17  C   UNL     1     -56.058 -35.133  10.422 -0.01 +0.00    +0.285 C  
DOCKED: ENDBRANCH  14  15
DOCKED: ENDBRANCH  13  14
DOCKED: ENDBRANCH  12  13
DOCKED: ENDBRANCH   2  12
DOCKED: BRANCH   2  18
DOCKED: ATOM     18  C   UNL     1     -57.986 -37.926   9.013 -0.16 +0.00    +0.006 A  
DOCKED: ATOM     19  C   UNL     1     -57.769 -39.189   9.564 -0.24 +0.00    +0.001 A  
DOCKED: ATOM     20  C   UNL     1     -58.509 -39.600  10.674 -0.14 +0.00    +0.029 A  
DOCKED: ATOM     21  C   UNL     1     -59.463 -38.749  11.230 -0.09 +0.00    +0.140 A  
DOCKED: ATOM     22  C   UNL     1     -59.679 -37.486  10.678 -0.06 +0.00    +0.029 A  
DOCKED: ATOM     23  F   UNL     1     -60.172 -39.143  12.296 -0.01 -0.00    -0.204 F  
DOCKED: ATOM     24  C   UNL     1     -58.939 -37.074   9.568 -0.08 +0.00    +0.001 A  
DOCKED: ENDBRANCH   2  18
DOCKED: TORSDOF 5
DOCKED: TER
DOCKED: ENDMDL
________________________________________________________________________________


    FINAL DOCKED STATE:
    ________________________


Run:   47 / 512
Time taken for this run:   0.002s

DOCKED: MODEL        47
DOCKED: USER    Run = 47
DOCKED: USER
DOCKED: USER    Estimated Free Energy of Binding    =  -4.08 kcal/mol  [=(1)+(2)+(3)-(4)]
DOCKED: USER
DOCKED: USER    (1) Final Intermolecular Energy     =  -5.57 kcal/mol
DOCKED: USER        vdW + Hbond + desolv Energy     =  -5.57 kcal/mol
DOCKED: USER        Electrostatic Energy            =  +0.00 kcal/mol
DOCKED: USER        Moving Ligand-Fixed Receptor    =  -5.57 kcal/mol
DOCKED: USER        Moving Ligand-Moving Receptor   =  +0.00 kcal/mol
DOCKED: USER    (2) Final Total Internal Energy     =  -1.37 kcal/mol
DOCKED: USER    (3) Torsional Free Energy           =  +1.49 kcal/mol
DOCKED: USER    (4) Unbound System's Energy         =  -1.37 kcal/mol
DOCKED: USER
DOCKED: USER
DOCKED: REMARK  5 active torsions:
DOCKED: REMARK  status: ('A' for Active; 'I' for Inactive)
DOCKED: REMARK    1  A    between atoms: C_2  and  C_19 
DOCKED: REMARK    2  A    between atoms: C_2  and  C_11 
DOCKED: REMARK    3  A    between atoms: C_19  and  C_20 
DOCKED: REMARK    4  A    between atoms: C_20  and  C_21 
DOCKED: REMARK    5  A    between atoms: C_21  and  N_22 
DOCKED: USER                              x       y       z     vdW  Elec       q    Type
DOCKED: USER                           _______ _______ _______ _____ _____    ______ ____
DOCKED: ROOT
DOCKED: ATOM      1  O   UNL     1     -49.599 -35.019   0.566 +0.01 -0.00    -0.346 OA 
DOCKED: ATOM      2  C   UNL     1     -51.052 -34.851   0.627 -0.06 +0.00    +0.130 C  
DOCKED: ATOM      3  C   UNL     1     -51.530 -36.101   1.307 -0.15 +0.00    +0.004 A  
DOCKED: ATOM      4  C   UNL     1     -50.440 -36.865   1.699 -0.09 +0.00    +0.006 A  
DOCKED: ATOM      5  C   UNL     1     -49.184 -36.179   1.324 -0.02 +0.00    +0.169 C  
DOCKED: ATOM      6  C   UNL     1     -52.826 -36.523   1.567 -0.31 -0.00    -0.001 A  
DOCKED: ATOM      7  C   UNL     1     -50.606 -38.072   2.357 -0.16 +0.00    +0.008 A  
DOCKED: ATOM      8  C   UNL     1     -53.010 -37.740   2.225 -0.26 +0.00    +0.010 A  
DOCKED: ATOM      9  C   UNL     1     -51.905 -38.510   2.619 -0.30 +0.00    +0.068 A  
DOCKED: ATOM     10  N   UNL     1     -52.281 -40.762   3.845 -2.55 -0.00    -0.191 NA 
DOCKED: ATOM     11  C   UNL     1     -52.113 -39.752   3.294 -0.34 +0.00    +0.101 C  
DOCKED: ENDROOT
DOCKED: BRANCH   2  12
DOCKED: ATOM     12  C   UNL     1     -51.359 -33.588   1.424 -0.04 +0.00    +0.038 C  
DOCKED: BRANCH  12  13
DOCKED: ATOM     13  C   UNL     1     -51.766 -33.920   2.858 -0.08 +0.00    +0.038 C  
DOCKED: BRANCH  13  14
DOCKED: ATOM     14  C   UNL     1     -50.912 -33.149   3.863 -0.02 +0.00    +0.251 C  
DOCKED: BRANCH  14  15
DOCKED: ATOM     15  N   UNL     1     -50.379 -34.054   4.875 -0.02 +0.00    +0.141 N  
DOCKED: ATOM     16  C   UNL     1     -51.365 -35.079   5.222 -0.07 +0.00    +0.285 C  
DOCKED: ATOM     17  C   UNL     1     -49.141 -34.680   4.406 -0.01 +0.00    +0.285 C  
DOCKED: ENDBRANCH  14  15
DOCKED: ENDBRANCH  13  14
DOCKED: ENDBRANCH  12  13
DOCKED: ENDBRANCH   2  12
DOCKED: BRANCH   2  18
DOCKED: ATOM     18  C   UNL     1     -51.536 -34.731  -0.779 -0.12 +0.00    +0.006 A  
DOCKED: ATOM     19  C   UNL     1     -50.920 -35.463  -1.793 -0.12 +0.00    +0.001 A  
DOCKED: ATOM     20  C   UNL     1     -51.374 -35.350  -3.108 -0.16 +0.00    +0.029 A  
DOCKED: ATOM     21  C   UNL     1     -52.443 -34.507  -3.406 -0.20 +0.00    +0.140 A  
DOCKED: ATOM     22  C   UNL     1     -53.059 -33.775  -2.392 -0.22 +0.00    +0.029 A  
DOCKED: ATOM     23  F   UNL     1     -52.879 -34.400  -4.668 -0.10 -0.00    -0.204 F  
DOCKED: ATOM     24  C   UNL     1     -52.606 -33.887  -1.076 -0.18 +0.00    +0.001 A  
DOCKED: ENDBRANCH   2  18
DOCKED: TORSDOF 5
DOCKED: TER
DOCKED: ENDMDL
________________________________________________________________________________


    FINAL DOCKED STATE:
    ________________________


Run:   48 / 512
Time taken for this run:   0.002s

DOCKED: MODEL        48
DOCKED: USER    Run = 48
DOCKED: USER
DOCKED: USER    Estimated Free Energy of Binding    =  -3.56 kcal/mol  [=(1)+(2)+(3)-(4)]
DOCKED: USER
DOCKED: USER    (1) Final Intermolecular Energy     =  -5.05 kcal/mol
DOCKED: USER        vdW + Hbond + desolv Energy     =  -5.05 kcal/mol
DOCKED: USER        Electrostatic Energy            =  +0.00 kcal/mol
DOCKED: USER        Moving Ligand-Fixed Receptor    =  -5.05 kcal/mol
DOCKED: USER        Moving Ligand-Moving Receptor   =  +0.00 kcal/mol
DOCKED: USER    (2) Final Total Internal Energy     =  -1.21 kcal/mol
DOCKED: USER    (3) Torsional Free Energy           =  +1.49 kcal/mol
DOCKED: USER    (4) Unbound System's Energy         =  -1.21 kcal/mol
DOCKED: USER
DOCKED: USER
DOCKED: REMARK  5 active torsions:
DOCKED: REMARK  status: ('A' for Active; 'I' for Inactive)
DOCKED: REMARK    1  A    between atoms: C_2  and  C_19 
DOCKED: REMARK    2  A    between atoms: C_2  and  C_11 
DOCKED: REMARK    3  A    between atoms: C_19  and  C_20 
DOCKED: REMARK    4  A    between atoms: C_20  and  C_21 
DOCKED: REMARK    5  A    between atoms: C_21  and  N_22 
DOCKED: USER                              x       y       z     vdW  Elec       q    Type
DOCKED: USER                           _______ _______ _______ _____ _____    ______ ____
DOCKED: ROOT
DOCKED: ATOM      1  O   UNL     1     -51.100 -27.958  -1.550 -0.01 -0.00    -0.346 OA 
DOCKED: ATOM      2  C   UNL     1     -50.805 -27.013  -2.627 -0.04 +0.00    +0.130 C  
DOCKED: ATOM      3  C   UNL     1     -52.116 -26.863  -3.343 -0.11 +0.00    +0.004 A  
DOCKED: ATOM      4  C   UNL     1     -53.100 -27.572  -2.669 -0.17 +0.00    +0.006 A  
DOCKED: ATOM      5  C   UNL     1     -52.521 -28.220  -1.472 -0.11 +0.00    +0.169 C  
DOCKED: ATOM      6  C   UNL     1     -52.416 -26.146  -4.493 -0.18 -0.00    -0.001 A  
DOCKED: ATOM      7  C   UNL     1     -54.409 -27.593  -3.120 -0.29 +0.00    +0.008 A  
DOCKED: ATOM      8  C   UNL     1     -53.730 -26.162  -4.962 -0.26 +0.00    +0.010 A  
DOCKED: ATOM      9  C   UNL     1     -54.722 -26.881  -4.278 -0.35 +0.00    +0.068 A  
DOCKED: ATOM     10  N   UNL     1     -57.153 -26.885  -5.174 -2.56 -0.00    -0.191 NA 
DOCKED: ATOM     11  C   UNL     1     -56.063 -26.884  -4.773 -0.42 +0.00    +0.101 C  
DOCKED: ENDROOT
DOCKED: BRANCH   2  12
DOCKED: ATOM     12  C   UNL     1     -50.315 -25.710  -2.006 -0.06 +0.00    +0.038 C  
DOCKED: BRANCH  12  13
DOCKED: ATOM     13  C   UNL     1     -51.299 -25.187  -0.961 -0.16 +0.00    +0.038 C  
DOCKED: BRANCH  13  14
DOCKED: ATOM     14  C   UNL     1     -51.998 -23.920  -1.450 -0.14 +0.00    +0.251 C  
DOCKED: BRANCH  14  15
DOCKED: ATOM     15  N   UNL     1     -51.038 -23.026  -2.087 -0.07 +0.00    +0.141 N  
DOCKED: ATOM     16  C   UNL     1     -51.211 -23.034  -3.540 -0.07 +0.00    +0.285 C  
DOCKED: ATOM     17  C   UNL     1     -51.179 -21.664  -1.567 -0.03 +0.00    +0.285 C  
DOCKED: ENDBRANCH  14  15
DOCKED: ENDBRANCH  13  14
DOCKED: ENDBRANCH  12  13
DOCKED: ENDBRANCH   2  12
DOCKED: BRANCH   2  18
DOCKED: ATOM     18  C   UNL     1     -49.747 -27.636  -3.476 -0.01 +0.00    +0.006 A  
DOCKED: ATOM     19  C   UNL     1     -49.850 -28.976  -3.846 -0.01 +0.00    +0.001 A  
DOCKED: ATOM     20  C   UNL     1     -48.860 -29.557  -4.640 -0.00 +0.00    +0.029 A  
DOCKED: ATOM     21  C   UNL     1     -47.769 -28.798  -5.061 -0.00 +0.00    +0.140 A  
DOCKED: ATOM     22  C   UNL     1     -47.667 -27.457  -4.690 -0.00 +0.00    +0.029 A  
DOCKED: ATOM     23  F   UNL     1     -46.820 -29.355  -5.824 +0.00 -0.00    -0.204 F  
DOCKED: ATOM     24  C   UNL     1     -48.657 -26.875  -3.896 -0.01 +0.00    +0.001 A  
DOCKED: ENDBRANCH   2  18
DOCKED: TORSDOF 5
DOCKED: TER
DOCKED: ENDMDL
________________________________________________________________________________


    FINAL DOCKED STATE:
    ________________________


Run:   49 / 512
Time taken for this run:   0.002s

DOCKED: MODEL        49
DOCKED: USER    Run = 49
DOCKED: USER
DOCKED: USER    Estimated Free Energy of Binding    =  -3.82 kcal/mol  [=(1)+(2)+(3)-(4)]
DOCKED: USER
DOCKED: USER    (1) Final Intermolecular Energy     =  -5.31 kcal/mol
DOCKED: USER        vdW + Hbond + desolv Energy     =  -5.31 kcal/mol
DOCKED: USER        Electrostatic Energy            =  +0.00 kcal/mol
DOCKED: USER        Moving Ligand-Fixed Receptor    =  -5.31 kcal/mol
DOCKED: USER        Moving Ligand-Moving Receptor   =  +0.00 kcal/mol
DOCKED: USER    (2) Final Total Internal Energy     =  -1.52 kcal/mol
DOCKED: USER    (3) Torsional Free Energy           =  +1.49 kcal/mol
DOCKED: USER    (4) Unbound System's Energy         =  -1.52 kcal/mol
DOCKED: USER
DOCKED: USER
DOCKED: REMARK  5 active torsions:
DOCKED: REMARK  status: ('A' for Active; 'I' for Inactive)
DOCKED: REMARK    1  A    between atoms: C_2  and  C_19 
DOCKED: REMARK    2  A    between atoms: C_2  and  C_11 
DOCKED: REMARK    3  A    between atoms: C_19  and  C_20 
DOCKED: REMARK    4  A    between atoms: C_20  and  C_21 
DOCKED: REMARK    5  A    between atoms: C_21  and  N_22 
DOCKED: USER                              x       y       z     vdW  Elec       q    Type
DOCKED: USER                           _______ _______ _______ _____ _____    ______ ____
DOCKED: ROOT
DOCKED: ATOM      1  O   UNL     1     -53.758 -29.911   0.570 -0.05 -0.00    -0.346 OA 
DOCKED: ATOM      2  C   UNL     1     -55.114 -30.074   0.044 -0.23 +0.00    +0.130 C  
DOCKED: ATOM      3  C   UNL     1     -55.183 -29.089  -1.087 -0.27 +0.00    +0.004 A  
DOCKED: ATOM      4  C   UNL     1     -53.942 -28.494  -1.263 -0.12 +0.00    +0.006 A  
DOCKED: ATOM      5  C   UNL     1     -52.977 -29.046  -0.286 -0.12 +0.00    +0.169 C  
DOCKED: ATOM      6  C   UNL     1     -56.255 -28.754  -1.901 -0.29 -0.00    -0.001 A  
DOCKED: ATOM      7  C   UNL     1     -53.730 -27.547  -2.251 -0.20 +0.00    +0.008 A  
DOCKED: ATOM      8  C   UNL     1     -56.059 -27.797  -2.898 -0.42 +0.00    +0.010 A  
DOCKED: ATOM      9  C   UNL     1     -54.803 -27.197  -3.072 -0.30 +0.00    +0.068 A  
DOCKED: ATOM     10  N   UNL     1     -54.472 -25.428  -4.936 -0.84 -0.00    -0.191 NA 
DOCKED: ATOM     11  C   UNL     1     -54.621 -26.221  -4.100 -0.34 +0.00    +0.101 C  
DOCKED: ENDROOT
DOCKED: BRANCH   2  12
DOCKED: ATOM     12  C   UNL     1     -55.284 -31.517  -0.416 -0.17 +0.00    +0.038 C  
DOCKED: BRANCH  12  13
DOCKED: ATOM     13  C   UNL     1     -54.331 -32.453   0.325 -0.20 +0.00    +0.038 C  
DOCKED: BRANCH  13  14
DOCKED: ATOM     14  C   UNL     1     -54.985 -33.020   1.584 -0.15 +0.00    +0.251 C  
DOCKED: BRANCH  14  15
DOCKED: ATOM     15  N   UNL     1     -54.048 -32.989   2.700 -0.11 +0.00    +0.141 N  
DOCKED: ATOM     16  C   UNL     1     -52.816 -32.294   2.321 -0.02 +0.00    +0.285 C  
DOCKED: ATOM     17  C   UNL     1     -54.655 -32.344   3.865 -0.07 +0.00    +0.285 C  
DOCKED: ENDBRANCH  14  15
DOCKED: ENDBRANCH  13  14
DOCKED: ENDBRANCH  12  13
DOCKED: ENDBRANCH   2  12
DOCKED: BRANCH   2  18
DOCKED: ATOM     18  C   UNL     1     -56.055 -29.750   1.156 -0.27 +0.00    +0.006 A  
DOCKED: ATOM     19  C   UNL     1     -55.726 -28.760   2.081 -0.22 +0.00    +0.001 A  
DOCKED: ATOM     20  C   UNL     1     -56.606 -28.457   3.120 -0.23 +0.00    +0.029 A  
DOCKED: ATOM     21  C   UNL     1     -57.814 -29.145   3.233 -0.15 +0.00    +0.140 A  
DOCKED: ATOM     22  C   UNL     1     -58.143 -30.135   2.308 -0.27 +0.00    +0.029 A  
DOCKED: ATOM     23  F   UNL     1     -58.659 -28.853   4.230 -0.00 -0.00    -0.204 F  
DOCKED: ATOM     24  C   UNL     1     -57.262 -30.438   1.268 -0.27 +0.00    +0.001 A  
DOCKED: ENDBRANCH   2  18
DOCKED: TORSDOF 5
DOCKED: TER
DOCKED: ENDMDL
________________________________________________________________________________


    FINAL DOCKED STATE:
    ________________________


Run:   50 / 512
Time taken for this run:   0.002s

DOCKED: MODEL        50
DOCKED: USER    Run = 50
DOCKED: USER
DOCKED: USER    Estimated Free Energy of Binding    =  -3.93 kcal/mol  [=(1)+(2)+(3)-(4)]
DOCKED: USER
DOCKED: USER    (1) Final Intermolecular Energy     =  -5.42 kcal/mol
DOCKED: USER        vdW + Hbond + desolv Energy     =  -5.42 kcal/mol
DOCKED: USER        Electrostatic Energy            =  +0.00 kcal/mol
DOCKED: USER        Moving Ligand-Fixed Receptor    =  -5.42 kcal/mol
DOCKED: USER        Moving Ligand-Moving Receptor   =  +0.00 kcal/mol
DOCKED: USER    (2) Final Total Internal Energy     =  -1.40 kcal/mol
DOCKED: USER    (3) Torsional Free Energy           =  +1.49 kcal/mol
DOCKED: USER    (4) Unbound System's Energy         =  -1.40 kcal/mol
DOCKED: USER
DOCKED: USER
DOCKED: REMARK  5 active torsions:
DOCKED: REMARK  status: ('A' for Active; 'I' for Inactive)
DOCKED: REMARK    1  A    between atoms: C_2  and  C_19 
DOCKED: REMARK    2  A    between atoms: C_2  and  C_11 
DOCKED: REMARK    3  A    between atoms: C_19  and  C_20 
DOCKED: REMARK    4  A    between atoms: C_20  and  C_21 
DOCKED: REMARK    5  A    between atoms: C_21  and  N_22 
DOCKED: USER                              x       y       z     vdW  Elec       q    Type
DOCKED: USER                           _______ _______ _______ _____ _____    ______ ____
DOCKED: ROOT
DOCKED: ATOM      1  O   UNL     1     -56.600 -34.054   7.537 -0.04 -0.00    -0.346 OA 
DOCKED: ATOM      2  C   UNL     1     -55.815 -35.179   8.047 -0.12 +0.00    +0.130 C  
DOCKED: ATOM      3  C   UNL     1     -56.562 -36.387   7.561 -0.20 +0.00    +0.004 A  
DOCKED: ATOM      4  C   UNL     1     -57.617 -35.990   6.751 -0.27 +0.00    +0.006 A  
DOCKED: ATOM      5  C   UNL     1     -57.634 -34.515   6.637 -0.18 +0.00    +0.169 C  
DOCKED: ATOM      6  C   UNL     1     -56.319 -37.731   7.806 -0.25 -0.00    -0.001 A  
DOCKED: ATOM      7  C   UNL     1     -58.463 -36.916   6.166 -0.32 +0.00    +0.008 A  
DOCKED: ATOM      8  C   UNL     1     -57.167 -38.676   7.226 -0.36 +0.00    +0.010 A  
DOCKED: ATOM      9  C   UNL     1     -58.233 -38.271   6.410 -0.31 +0.00    +0.068 A  
DOCKED: ATOM     10  N   UNL     1     -59.785 -40.052   5.345 -2.56 -0.00    -0.191 NA 
DOCKED: ATOM     11  C   UNL     1     -59.089 -39.253   5.823 -0.36 +0.00    +0.101 C  
DOCKED: ENDROOT
DOCKED: BRANCH   2  12
DOCKED: ATOM     12  C   UNL     1     -54.406 -35.082   7.476 -0.06 +0.00    +0.038 C  
DOCKED: BRANCH  12  13
DOCKED: ATOM     13  C   UNL     1     -54.295 -33.954   6.453 -0.13 +0.00    +0.038 C  
DOCKED: BRANCH  13  14
DOCKED: ATOM     14  C   UNL     1     -53.902 -32.639   7.125 -0.03 +0.00    +0.251 C  
DOCKED: BRANCH  14  15
DOCKED: ATOM     15  N   UNL     1     -55.042 -31.731   7.168 -0.02 +0.00    +0.141 N  
DOCKED: ATOM     16  C   UNL     1     -54.632 -30.410   7.645 -0.00 +0.00    +0.285 C  
DOCKED: ATOM     17  C   UNL     1     -55.665 -31.623   5.848 -0.05 +0.00    +0.285 C  
DOCKED: ENDBRANCH  14  15
DOCKED: ENDBRANCH  13  14
DOCKED: ENDBRANCH  12  13
DOCKED: ENDBRANCH   2  12
DOCKED: BRANCH   2  18
DOCKED: ATOM     18  C   UNL     1     -55.803 -35.063   9.535 -0.05 +0.00    +0.006 A  
DOCKED: ATOM     19  C   UNL     1     -54.608 -34.799  10.203 -0.03 +0.00    +0.001 A  
DOCKED: ATOM     20  C   UNL     1     -54.598 -34.691  11.594 -0.01 +0.00    +0.029 A  
DOCKED: ATOM     21  C   UNL     1     -55.781 -34.846  12.315 -0.00 +0.00    +0.140 A  
DOCKED: ATOM     22  C   UNL     1     -56.976 -35.109  11.646 -0.01 +0.00    +0.029 A  
DOCKED: ATOM     23  F   UNL     1     -55.771 -34.741  13.650 +0.00 -0.00    -0.204 F  
DOCKED: ATOM     24  C   UNL     1     -56.987 -35.218  10.254 -0.03 +0.00    +0.001 A  
DOCKED: ENDBRANCH   2  18
DOCKED: TORSDOF 5
DOCKED: TER
DOCKED: ENDMDL
________________________________________________________________________________


    FINAL DOCKED STATE:
    ________________________


Run:   51 / 512
Time taken for this run:   0.002s

DOCKED: MODEL        51
DOCKED: USER    Run = 51
DOCKED: USER
DOCKED: USER    Estimated Free Energy of Binding    =  -3.65 kcal/mol  [=(1)+(2)+(3)-(4)]
DOCKED: USER
DOCKED: USER    (1) Final Intermolecular Energy     =  -5.14 kcal/mol
DOCKED: USER        vdW + Hbond + desolv Energy     =  -5.14 kcal/mol
DOCKED: USER        Electrostatic Energy            =  +0.00 kcal/mol
DOCKED: USER        Moving Ligand-Fixed Receptor    =  -5.14 kcal/mol
DOCKED: USER        Moving Ligand-Moving Receptor   =  +0.00 kcal/mol
DOCKED: USER    (2) Final Total Internal Energy     =  -1.46 kcal/mol
DOCKED: USER    (3) Torsional Free Energy           =  +1.49 kcal/mol
DOCKED: USER    (4) Unbound System's Energy         =  -1.46 kcal/mol
DOCKED: USER
DOCKED: USER
DOCKED: REMARK  5 active torsions:
DOCKED: REMARK  status: ('A' for Active; 'I' for Inactive)
DOCKED: REMARK    1  A    between atoms: C_2  and  C_19 
DOCKED: REMARK    2  A    between atoms: C_2  and  C_11 
DOCKED: REMARK    3  A    between atoms: C_19  and  C_20 
DOCKED: REMARK    4  A    between atoms: C_20  and  C_21 
DOCKED: REMARK    5  A    between atoms: C_21  and  N_22 
DOCKED: USER                              x       y       z     vdW  Elec       q    Type
DOCKED: USER                           _______ _______ _______ _____ _____    ______ ____
DOCKED: ROOT
DOCKED: ATOM      1  O   UNL     1     -53.557 -30.022   0.566 -0.04 -0.00    -0.346 OA 
DOCKED: ATOM      2  C   UNL     1     -54.913 -30.201   0.046 -0.21 +0.00    +0.130 C  
DOCKED: ATOM      3  C   UNL     1     -55.015 -29.182  -1.052 -0.28 +0.00    +0.004 A  
DOCKED: ATOM      4  C   UNL     1     -53.790 -28.552  -1.219 -0.14 +0.00    +0.006 A  
DOCKED: ATOM      5  C   UNL     1     -52.803 -29.110  -0.267 -0.11 +0.00    +0.169 C  
DOCKED: ATOM      6  C   UNL     1     -56.101 -28.848  -1.847 -0.26 -0.00    -0.001 A  
DOCKED: ATOM      7  C   UNL     1     -53.610 -27.569  -2.177 -0.19 +0.00    +0.008 A  
DOCKED: ATOM      8  C   UNL     1     -55.937 -27.856  -2.815 -0.39 +0.00    +0.010 A  
DOCKED: ATOM      9  C   UNL     1     -54.697 -27.220  -2.979 -0.29 +0.00    +0.068 A  
DOCKED: ATOM     10  N   UNL     1     -54.425 -25.386  -4.789 -0.87 -0.00    -0.191 NA 
DOCKED: ATOM     11  C   UNL     1     -54.547 -26.208  -3.977 -0.33 +0.00    +0.101 C  
DOCKED: ENDROOT
DOCKED: BRANCH   2  12
DOCKED: ATOM     12  C   UNL     1     -55.051 -31.633  -0.458 -0.19 +0.00    +0.038 C  
DOCKED: BRANCH  12  13
DOCKED: ATOM     13  C   UNL     1     -54.862 -32.642   0.673 -0.22 +0.00    +0.038 C  
DOCKED: BRANCH  13  14
DOCKED: ATOM     14  C   UNL     1     -53.384 -32.796   1.030 -0.08 +0.00    +0.251 C  
DOCKED: BRANCH  14  15
DOCKED: ATOM     15  N   UNL     1     -53.217 -32.872   2.476 -0.06 +0.00    +0.141 N  
DOCKED: ATOM     16  C   UNL     1     -52.319 -31.818   2.948 -0.01 +0.00    +0.285 C  
DOCKED: ATOM     17  C   UNL     1     -54.513 -32.774   3.151 -0.09 +0.00    +0.285 C  
DOCKED: ENDBRANCH  14  15
DOCKED: ENDBRANCH  13  14
DOCKED: ENDBRANCH  12  13
DOCKED: ENDBRANCH   2  12
DOCKED: BRANCH   2  18
DOCKED: ATOM     18  C   UNL     1     -55.852 -29.935   1.175 -0.25 +0.00    +0.006 A  
DOCKED: ATOM     19  C   UNL     1     -55.457 -29.115   2.232 -0.22 +0.00    +0.001 A  
DOCKED: ATOM     20  C   UNL     1     -56.336 -28.868   3.287 -0.19 +0.00    +0.029 A  
DOCKED: ATOM     21  C   UNL     1     -57.608 -29.439   3.284 -0.14 +0.00    +0.140 A  
DOCKED: ATOM     22  C   UNL     1     -58.002 -30.258   2.226 -0.27 +0.00    +0.029 A  
DOCKED: ATOM     23  F   UNL     1     -58.452 -29.199   4.296 -0.01 -0.00    -0.204 F  
DOCKED: ATOM     24  C   UNL     1     -57.123 -30.507   1.171 -0.27 +0.00    +0.001 A  
DOCKED: ENDBRANCH   2  18
DOCKED: TORSDOF 5
DOCKED: TER
DOCKED: ENDMDL
________________________________________________________________________________


    FINAL DOCKED STATE:
    ________________________


Run:   52 / 512
Time taken for this run:   0.002s

DOCKED: MODEL        52
DOCKED: USER    Run = 52
DOCKED: USER
DOCKED: USER    Estimated Free Energy of Binding    =  -2.92 kcal/mol  [=(1)+(2)+(3)-(4)]
DOCKED: USER
DOCKED: USER    (1) Final Intermolecular Energy     =  -4.41 kcal/mol
DOCKED: USER        vdW + Hbond + desolv Energy     =  -4.41 kcal/mol
DOCKED: USER        Electrostatic Energy            =  +0.00 kcal/mol
DOCKED: USER        Moving Ligand-Fixed Receptor    =  -4.41 kcal/mol
DOCKED: USER        Moving Ligand-Moving Receptor   =  +0.00 kcal/mol
DOCKED: USER    (2) Final Total Internal Energy     =  -1.46 kcal/mol
DOCKED: USER    (3) Torsional Free Energy           =  +1.49 kcal/mol
DOCKED: USER    (4) Unbound System's Energy         =  -1.46 kcal/mol
DOCKED: USER
DOCKED: USER
DOCKED: REMARK  5 active torsions:
DOCKED: REMARK  status: ('A' for Active; 'I' for Inactive)
DOCKED: REMARK    1  A    between atoms: C_2  and  C_19 
DOCKED: REMARK    2  A    between atoms: C_2  and  C_11 
DOCKED: REMARK    3  A    between atoms: C_19  and  C_20 
DOCKED: REMARK    4  A    between atoms: C_20  and  C_21 
DOCKED: REMARK    5  A    between atoms: C_21  and  N_22 
DOCKED: USER                              x       y       z     vdW  Elec       q    Type
DOCKED: USER                           _______ _______ _______ _____ _____    ______ ____
DOCKED: ROOT
DOCKED: ATOM      1  O   UNL     1     -50.910 -30.416  -4.396 +0.01 -0.00    -0.346 OA 
DOCKED: ATOM      2  C   UNL     1     -50.494 -29.016  -4.495 -0.01 +0.00    +0.130 C  
DOCKED: ATOM      3  C   UNL     1     -51.776 -28.276  -4.742 -0.06 +0.00    +0.004 A  
DOCKED: ATOM      4  C   UNL     1     -52.845 -29.160  -4.680 -0.15 +0.00    +0.006 A  
DOCKED: ATOM      5  C   UNL     1     -52.352 -30.523  -4.379 -0.10 +0.00    +0.169 C  
DOCKED: ATOM      6  C   UNL     1     -51.982 -26.927  -4.991 -0.11 -0.00    -0.001 A  
DOCKED: ATOM      7  C   UNL     1     -54.147 -28.730  -4.867 -0.16 +0.00    +0.008 A  
DOCKED: ATOM      8  C   UNL     1     -53.290 -26.478  -5.186 -0.24 +0.00    +0.010 A  
DOCKED: ATOM      9  C   UNL     1     -54.366 -27.375  -5.124 -0.29 +0.00    +0.068 A  
DOCKED: ATOM     10  N   UNL     1     -56.781 -26.509  -5.486 -2.53 -0.00    -0.191 NA 
DOCKED: ATOM     11  C   UNL     1     -55.698 -26.898  -5.324 -0.37 +0.00    +0.101 C  
DOCKED: ENDROOT
DOCKED: BRANCH   2  12
DOCKED: ATOM     12  C   UNL     1     -49.822 -28.619  -3.185 -0.01 +0.00    +0.038 C  
DOCKED: BRANCH  12  13
DOCKED: ATOM     13  C   UNL     1     -50.750 -28.843  -1.993 -0.03 +0.00    +0.038 C  
DOCKED: BRANCH  13  14
DOCKED: ATOM     14  C   UNL     1     -51.308 -27.520  -1.474 -0.06 +0.00    +0.251 C  
DOCKED: BRANCH  14  15
DOCKED: ATOM     15  N   UNL     1     -52.645 -27.288  -2.009 -0.12 +0.00    +0.141 N  
DOCKED: ATOM     16  C   UNL     1     -53.608 -28.211  -1.406 -0.05 +0.00    +0.285 C  
DOCKED: ATOM     17  C   UNL     1     -53.059 -25.903  -1.782 -0.10 +0.00    +0.285 C  
DOCKED: ENDBRANCH  14  15
DOCKED: ENDBRANCH  13  14
DOCKED: ENDBRANCH  12  13
DOCKED: ENDBRANCH   2  12
DOCKED: BRANCH   2  18
DOCKED: ATOM     18  C   UNL     1     -49.539 -28.924  -5.639 -0.01 +0.00    +0.006 A  
DOCKED: ATOM     19  C   UNL     1     -48.198 -28.623  -5.405 -0.00 +0.00    +0.001 A  
DOCKED: ATOM     20  C   UNL     1     -47.307 -28.537  -6.475 -0.00 +0.00    +0.029 A  
DOCKED: ATOM     21  C   UNL     1     -47.758 -28.753  -7.777 -0.00 +0.00    +0.140 A  
DOCKED: ATOM     22  C   UNL     1     -49.099 -29.055  -8.010 -0.00 +0.00    +0.029 A  
DOCKED: ATOM     23  F   UNL     1     -46.902 -28.672  -8.804 +0.00 -0.00    -0.204 F  
DOCKED: ATOM     24  C   UNL     1     -49.992 -29.140  -6.940 -0.01 +0.00    +0.001 A  
DOCKED: ENDBRANCH   2  18
DOCKED: TORSDOF 5
DOCKED: TER
DOCKED: ENDMDL
________________________________________________________________________________


    FINAL DOCKED STATE:
    ________________________


Run:   53 / 512
Time taken for this run:   0.002s

DOCKED: MODEL        53
DOCKED: USER    Run = 53
DOCKED: USER
DOCKED: USER    Estimated Free Energy of Binding    =  -4.59 kcal/mol  [=(1)+(2)+(3)-(4)]
DOCKED: USER
DOCKED: USER    (1) Final Intermolecular Energy     =  -6.09 kcal/mol
DOCKED: USER        vdW + Hbond + desolv Energy     =  -6.09 kcal/mol
DOCKED: USER        Electrostatic Energy            =  +0.00 kcal/mol
DOCKED: USER        Moving Ligand-Fixed Receptor    =  -6.09 kcal/mol
DOCKED: USER        Moving Ligand-Moving Receptor   =  +0.00 kcal/mol
DOCKED: USER    (2) Final Total Internal Energy     =  -1.30 kcal/mol
DOCKED: USER    (3) Torsional Free Energy           =  +1.49 kcal/mol
DOCKED: USER    (4) Unbound System's Energy         =  -1.30 kcal/mol
DOCKED: USER
DOCKED: USER
DOCKED: REMARK  5 active torsions:
DOCKED: REMARK  status: ('A' for Active; 'I' for Inactive)
DOCKED: REMARK    1  A    between atoms: C_2  and  C_19 
DOCKED: REMARK    2  A    between atoms: C_2  and  C_11 
DOCKED: REMARK    3  A    between atoms: C_19  and  C_20 
DOCKED: REMARK    4  A    between atoms: C_20  and  C_21 
DOCKED: REMARK    5  A    between atoms: C_21  and  N_22 
DOCKED: USER                              x       y       z     vdW  Elec       q    Type
DOCKED: USER                           _______ _______ _______ _____ _____    ______ ____
DOCKED: ROOT
DOCKED: ATOM      1  O   UNL     1     -57.995 -38.785   9.194 -0.08 -0.00    -0.346 OA 
DOCKED: ATOM      2  C   UNL     1     -57.789 -37.439   8.656 -0.14 +0.00    +0.130 C  
DOCKED: ATOM      3  C   UNL     1     -58.149 -37.573   7.205 -0.26 +0.00    +0.004 A  
DOCKED: ATOM      4  C   UNL     1     -58.625 -38.853   6.958 -0.30 +0.00    +0.006 A  
DOCKED: ATOM      5  C   UNL     1     -58.625 -39.639   8.212 -0.15 +0.00    +0.169 C  
DOCKED: ATOM      6  C   UNL     1     -58.072 -36.633   6.187 -0.32 -0.00    -0.001 A  
DOCKED: ATOM      7  C   UNL     1     -59.034 -39.237   5.692 -0.40 +0.00    +0.008 A  
DOCKED: ATOM      8  C   UNL     1     -58.477 -37.007   4.905 -0.18 +0.00    +0.010 A  
DOCKED: ATOM      9  C   UNL     1     -58.956 -38.303   4.659 -0.39 +0.00    +0.068 A  
DOCKED: ATOM     10  N   UNL     1     -59.704 -38.963   2.268 -2.14 -0.00    -0.191 NA 
DOCKED: ATOM     11  C   UNL     1     -59.368 -38.667   3.340 -0.51 +0.00    +0.101 C  
DOCKED: ENDROOT
DOCKED: BRANCH   2  12
DOCKED: ATOM     12  C   UNL     1     -58.699 -36.475   9.407 -0.08 +0.00    +0.038 C  
DOCKED: BRANCH  12  13
DOCKED: ATOM     13  C   UNL     1     -60.162 -36.667   9.012 -0.09 +0.00    +0.038 C  
DOCKED: BRANCH  13  14
DOCKED: ATOM     14  C   UNL     1     -60.908 -35.335   9.000 -0.02 +0.00    +0.251 C  
DOCKED: BRANCH  14  15
DOCKED: ATOM     15  N   UNL     1     -61.894 -35.315   7.926 -0.10 +0.00    +0.141 N  
DOCKED: ATOM     16  C   UNL     1     -61.616 -34.225   6.990 -0.14 +0.00    +0.285 C  
DOCKED: ATOM     17  C   UNL     1     -61.914 -36.597   7.221 -0.10 +0.00    +0.285 C  
DOCKED: ENDBRANCH  14  15
DOCKED: ENDBRANCH  13  14
DOCKED: ENDBRANCH  12  13
DOCKED: ENDBRANCH   2  12
DOCKED: BRANCH   2  18
DOCKED: ATOM     18  C   UNL     1     -56.352 -37.100   8.870 -0.17 +0.00    +0.006 A  
DOCKED: ATOM     19  C   UNL     1     -55.366 -37.734   8.115 -0.13 +0.00    +0.001 A  
DOCKED: ATOM     20  C   UNL     1     -54.022 -37.416   8.317 -0.14 +0.00    +0.029 A  
DOCKED: ATOM     21  C   UNL     1     -53.667 -36.464   9.271 -0.09 +0.00    +0.140 A  
DOCKED: ATOM     22  C   UNL     1     -54.653 -35.829  10.025 -0.06 +0.00    +0.029 A  
DOCKED: ATOM     23  F   UNL     1     -52.377 -36.157   9.462 -0.01 -0.00    -0.204 F  
DOCKED: ATOM     24  C   UNL     1     -55.997 -36.147   9.825 -0.08 +0.00    +0.001 A  
DOCKED: ENDBRANCH   2  18
DOCKED: TORSDOF 5
DOCKED: TER
DOCKED: ENDMDL
________________________________________________________________________________


    FINAL DOCKED STATE:
    ________________________


Run:   54 / 512
Time taken for this run:   0.002s

DOCKED: MODEL        54
DOCKED: USER    Run = 54
DOCKED: USER
DOCKED: USER    Estimated Free Energy of Binding    =  -4.28 kcal/mol  [=(1)+(2)+(3)-(4)]
DOCKED: USER
DOCKED: USER    (1) Final Intermolecular Energy     =  -5.77 kcal/mol
DOCKED: USER        vdW + Hbond + desolv Energy     =  -5.77 kcal/mol
DOCKED: USER        Electrostatic Energy            =  +0.00 kcal/mol
DOCKED: USER        Moving Ligand-Fixed Receptor    =  -5.77 kcal/mol
DOCKED: USER        Moving Ligand-Moving Receptor   =  +0.00 kcal/mol
DOCKED: USER    (2) Final Total Internal Energy     =  -1.05 kcal/mol
DOCKED: USER    (3) Torsional Free Energy           =  +1.49 kcal/mol
DOCKED: USER    (4) Unbound System's Energy         =  -1.05 kcal/mol
DOCKED: USER
DOCKED: USER
DOCKED: REMARK  5 active torsions:
DOCKED: REMARK  status: ('A' for Active; 'I' for Inactive)
DOCKED: REMARK    1  A    between atoms: C_2  and  C_19 
DOCKED: REMARK    2  A    between atoms: C_2  and  C_11 
DOCKED: REMARK    3  A    between atoms: C_19  and  C_20 
DOCKED: REMARK    4  A    between atoms: C_20  and  C_21 
DOCKED: REMARK    5  A    between atoms: C_21  and  N_22 
DOCKED: USER                              x       y       z     vdW  Elec       q    Type
DOCKED: USER                           _______ _______ _______ _____ _____    ______ ____
DOCKED: ROOT
DOCKED: ATOM      1  O   UNL     1     -61.859 -33.996   7.431 -0.08 -0.00    -0.346 OA 
DOCKED: ATOM      2  C   UNL     1     -60.397 -33.929   7.418 -0.18 +0.00    +0.130 C  
DOCKED: ATOM      3  C   UNL     1     -59.978 -35.306   6.992 -0.22 +0.00    +0.004 A  
DOCKED: ATOM      4  C   UNL     1     -61.100 -36.061   6.682 -0.19 +0.00    +0.006 A  
DOCKED: ATOM      5  C   UNL     1     -62.321 -35.245   6.865 -0.20 +0.00    +0.169 C  
DOCKED: ATOM      6  C   UNL     1     -58.704 -35.844   6.877 -0.25 -0.00    -0.001 A  
DOCKED: ATOM      7  C   UNL     1     -60.990 -37.373   6.253 -0.25 +0.00    +0.008 A  
DOCKED: ATOM      8  C   UNL     1     -58.577 -37.167   6.451 -0.31 +0.00    +0.010 A  
DOCKED: ATOM      9  C   UNL     1     -59.714 -37.927   6.140 -0.25 +0.00    +0.068 A  
DOCKED: ATOM     10  N   UNL     1     -59.442 -40.378   5.345 -2.61 -0.00    -0.191 NA 
DOCKED: ATOM     11  C   UNL     1     -59.564 -39.279   5.702 -0.36 +0.00    +0.101 C  
DOCKED: ENDROOT
DOCKED: BRANCH   2  12
DOCKED: ATOM     12  C   UNL     1     -59.973 -32.848   6.431 -0.22 +0.00    +0.038 C  
DOCKED: BRANCH  12  13
DOCKED: ATOM     13  C   UNL     1     -58.463 -32.621   6.469 -0.18 +0.00    +0.038 C  
DOCKED: BRANCH  13  14
DOCKED: ATOM     14  C   UNL     1     -58.079 -31.346   5.720 -0.11 +0.00    +0.251 C  
DOCKED: BRANCH  14  15
DOCKED: ATOM     15  N   UNL     1     -59.223 -30.447   5.631 -0.12 +0.00    +0.141 N  
DOCKED: ATOM     16  C   UNL     1     -59.064 -29.317   6.548 -0.02 +0.00    +0.285 C  
DOCKED: ATOM     17  C   UNL     1     -59.396 -29.966   4.259 -0.11 +0.00    +0.285 C  
DOCKED: ENDBRANCH  14  15
DOCKED: ENDBRANCH  13  14
DOCKED: ENDBRANCH  12  13
DOCKED: ENDBRANCH   2  12
DOCKED: BRANCH   2  18
DOCKED: ATOM     18  C   UNL     1     -59.964 -33.592   8.805 -0.06 +0.00    +0.006 A  
DOCKED: ATOM     19  C   UNL     1     -59.451 -34.587   9.636 -0.03 +0.00    +0.001 A  
DOCKED: ATOM     20  C   UNL     1     -59.046 -34.271  10.934 -0.01 +0.00    +0.029 A  
DOCKED: ATOM     21  C   UNL     1     -59.154 -32.961  11.398 -0.00 +0.00    +0.140 A  
DOCKED: ATOM     22  C   UNL     1     -59.666 -31.965  10.566 -0.01 +0.00    +0.029 A  
DOCKED: ATOM     23  F   UNL     1     -58.764 -32.657  12.642 +0.00 -0.00    -0.204 F  
DOCKED: ATOM     24  C   UNL     1     -60.072 -32.281   9.268 -0.03 +0.00    +0.001 A  
DOCKED: ENDBRANCH   2  18
DOCKED: TORSDOF 5
DOCKED: TER
DOCKED: ENDMDL
________________________________________________________________________________


    FINAL DOCKED STATE:
    ________________________


Run:   55 / 512
Time taken for this run:   0.002s

DOCKED: MODEL        55
DOCKED: USER    Run = 55
DOCKED: USER
DOCKED: USER    Estimated Free Energy of Binding    =  -5.02 kcal/mol  [=(1)+(2)+(3)-(4)]
DOCKED: USER
DOCKED: USER    (1) Final Intermolecular Energy     =  -6.51 kcal/mol
DOCKED: USER        vdW + Hbond + desolv Energy     =  -6.51 kcal/mol
DOCKED: USER        Electrostatic Energy            =  +0.00 kcal/mol
DOCKED: USER        Moving Ligand-Fixed Receptor    =  -6.51 kcal/mol
DOCKED: USER        Moving Ligand-Moving Receptor   =  +0.00 kcal/mol
DOCKED: USER    (2) Final Total Internal Energy     =  -1.31 kcal/mol
DOCKED: USER    (3) Torsional Free Energy           =  +1.49 kcal/mol
DOCKED: USER    (4) Unbound System's Energy         =  -1.31 kcal/mol
DOCKED: USER
DOCKED: USER
DOCKED: REMARK  5 active torsions:
DOCKED: REMARK  status: ('A' for Active; 'I' for Inactive)
DOCKED: REMARK    1  A    between atoms: C_2  and  C_19 
DOCKED: REMARK    2  A    between atoms: C_2  and  C_11 
DOCKED: REMARK    3  A    between atoms: C_19  and  C_20 
DOCKED: REMARK    4  A    between atoms: C_20  and  C_21 
DOCKED: REMARK    5  A    between atoms: C_21  and  N_22 
DOCKED: USER                              x       y       z     vdW  Elec       q    Type
DOCKED: USER                           _______ _______ _______ _____ _____    ______ ____
DOCKED: ROOT
DOCKED: ATOM      1  O   UNL     1     -59.043 -38.653   8.814 -0.07 -0.00    -0.346 OA 
DOCKED: ATOM      2  C   UNL     1     -58.577 -37.375   8.275 -0.13 +0.00    +0.130 C  
DOCKED: ATOM      3  C   UNL     1     -58.749 -37.527   6.791 -0.27 +0.00    +0.004 A  
DOCKED: ATOM      4  C   UNL     1     -59.361 -38.741   6.514 -0.30 +0.00    +0.006 A  
DOCKED: ATOM      5  C   UNL     1     -59.645 -39.460   7.776 -0.13 +0.00    +0.169 C  
DOCKED: ATOM      6  C   UNL     1     -58.401 -36.656   5.769 -0.32 -0.00    -0.001 A  
DOCKED: ATOM      7  C   UNL     1     -59.642 -39.126   5.214 -0.42 +0.00    +0.008 A  
DOCKED: ATOM      8  C   UNL     1     -58.673 -37.032   4.452 +0.10 +0.00    +0.010 A  
DOCKED: ATOM      9  C   UNL     1     -59.292 -38.261   4.177 -0.40 +0.00    +0.068 A  
DOCKED: ATOM     10  N   UNL     1     -59.788 -38.925   1.722 -2.80 -0.00    -0.191 NA 
DOCKED: ATOM     11  C   UNL     1     -59.565 -38.628   2.823 -0.39 +0.00    +0.101 C  
DOCKED: ENDROOT
DOCKED: BRANCH   2  12
DOCKED: ATOM     12  C   UNL     1     -59.437 -36.262   8.860 -0.09 +0.00    +0.038 C  
DOCKED: BRANCH  12  13
DOCKED: ATOM     13  C   UNL     1     -60.924 -36.525   8.627 -0.11 +0.00    +0.038 C  
DOCKED: BRANCH  13  14
DOCKED: ATOM     14  C   UNL     1     -61.719 -35.221   8.629 -0.04 +0.00    +0.251 C  
DOCKED: BRANCH  14  15
DOCKED: ATOM     15  N   UNL     1     -62.215 -34.927   7.290 -0.17 +0.00    +0.141 N  
DOCKED: ATOM     16  C   UNL     1     -61.173 -34.290   6.483 -0.06 +0.00    +0.285 C  
DOCKED: ATOM     17  C   UNL     1     -62.688 -36.148   6.635 -0.14 +0.00    +0.285 C  
DOCKED: ENDBRANCH  14  15
DOCKED: ENDBRANCH  13  14
DOCKED: ENDBRANCH  12  13
DOCKED: ENDBRANCH   2  12
DOCKED: BRANCH   2  18
DOCKED: ATOM     18  C   UNL     1     -57.149 -37.224   8.682 -0.17 +0.00    +0.006 A  
DOCKED: ATOM     19  C   UNL     1     -56.149 -37.888   7.974 -0.25 +0.00    +0.001 A  
DOCKED: ATOM     20  C   UNL     1     -54.814 -37.746   8.357 -0.10 +0.00    +0.029 A  
DOCKED: ATOM     21  C   UNL     1     -54.483 -36.940   9.445 -0.11 +0.00    +0.140 A  
DOCKED: ATOM     22  C   UNL     1     -55.485 -36.276  10.153 -0.07 +0.00    +0.029 A  
DOCKED: ATOM     23  F   UNL     1     -53.202 -36.802   9.811 -0.02 -0.00    -0.204 F  
DOCKED: ATOM     24  C   UNL     1     -56.820 -36.418   9.771 -0.08 +0.00    +0.001 A  
DOCKED: ENDBRANCH   2  18
DOCKED: TORSDOF 5
DOCKED: TER
DOCKED: ENDMDL
________________________________________________________________________________


    FINAL DOCKED STATE:
    ________________________


Run:   56 / 512
Time taken for this run:   0.002s

DOCKED: MODEL        56
DOCKED: USER    Run = 56
DOCKED: USER
DOCKED: USER    Estimated Free Energy of Binding    =  -4.03 kcal/mol  [=(1)+(2)+(3)-(4)]
DOCKED: USER
DOCKED: USER    (1) Final Intermolecular Energy     =  -5.53 kcal/mol
DOCKED: USER        vdW + Hbond + desolv Energy     =  -5.53 kcal/mol
DOCKED: USER        Electrostatic Energy            =  +0.00 kcal/mol
DOCKED: USER        Moving Ligand-Fixed Receptor    =  -5.53 kcal/mol
DOCKED: USER        Moving Ligand-Moving Receptor   =  +0.00 kcal/mol
DOCKED: USER    (2) Final Total Internal Energy     =  -1.09 kcal/mol
DOCKED: USER    (3) Torsional Free Energy           =  +1.49 kcal/mol
DOCKED: USER    (4) Unbound System's Energy         =  -1.09 kcal/mol
DOCKED: USER
DOCKED: USER
DOCKED: REMARK  5 active torsions:
DOCKED: REMARK  status: ('A' for Active; 'I' for Inactive)
DOCKED: REMARK    1  A    between atoms: C_2  and  C_19 
DOCKED: REMARK    2  A    between atoms: C_2  and  C_11 
DOCKED: REMARK    3  A    between atoms: C_19  and  C_20 
DOCKED: REMARK    4  A    between atoms: C_20  and  C_21 
DOCKED: REMARK    5  A    between atoms: C_21  and  N_22 
DOCKED: USER                              x       y       z     vdW  Elec       q    Type
DOCKED: USER                           _______ _______ _______ _____ _____    ______ ____
DOCKED: ROOT
DOCKED: ATOM      1  O   UNL     1     -56.581 -34.195   7.963 -0.03 -0.00    -0.346 OA 
DOCKED: ATOM      2  C   UNL     1     -55.875 -35.361   8.495 -0.11 +0.00    +0.130 C  
DOCKED: ATOM      3  C   UNL     1     -56.620 -36.528   7.915 -0.20 +0.00    +0.004 A  
DOCKED: ATOM      4  C   UNL     1     -57.596 -36.072   7.040 -0.25 +0.00    +0.006 A  
DOCKED: ATOM      5  C   UNL     1     -57.557 -34.594   6.972 -0.18 +0.00    +0.169 C  
DOCKED: ATOM      6  C   UNL     1     -56.440 -37.886   8.135 -0.25 -0.00    -0.001 A  
DOCKED: ATOM      7  C   UNL     1     -58.424 -36.950   6.363 -0.31 +0.00    +0.008 A  
DOCKED: ATOM      8  C   UNL     1     -57.271 -38.784   7.462 -0.35 +0.00    +0.010 A  
DOCKED: ATOM      9  C   UNL     1     -58.257 -38.318   6.580 -0.30 +0.00    +0.068 A  
DOCKED: ATOM     10  N   UNL     1     -59.779 -40.012   5.344 -2.56 -0.00    -0.191 NA 
DOCKED: ATOM     11  C   UNL     1     -59.097 -39.252   5.899 -0.34 +0.00    +0.101 C  
DOCKED: ENDROOT
DOCKED: BRANCH   2  12
DOCKED: ATOM     12  C   UNL     1     -54.423 -35.297   8.036 -0.13 +0.00    +0.038 C  
DOCKED: BRANCH  12  13
DOCKED: ATOM     13  C   UNL     1     -54.101 -33.949   7.394 -0.10 +0.00    +0.038 C  
DOCKED: BRANCH  13  14
DOCKED: ATOM     14  C   UNL     1     -54.299 -34.001   5.880 -0.07 +0.00    +0.251 C  
DOCKED: BRANCH  14  15
DOCKED: ATOM     15  N   UNL     1     -53.054 -34.368   5.217 -0.10 +0.00    +0.141 N  
DOCKED: ATOM     16  C   UNL     1     -52.894 -33.621   3.969 -0.08 +0.00    +0.285 C  
DOCKED: ATOM     17  C   UNL     1     -51.911 -34.132   6.100 -0.05 +0.00    +0.285 C  
DOCKED: ENDBRANCH  14  15
DOCKED: ENDBRANCH  13  14
DOCKED: ENDBRANCH  12  13
DOCKED: ENDBRANCH   2  12
DOCKED: BRANCH   2  18
DOCKED: ATOM     18  C   UNL     1     -55.973 -35.289   9.982 -0.04 +0.00    +0.006 A  
DOCKED: ATOM     19  C   UNL     1     -57.186 -34.959  10.585 -0.02 +0.00    +0.001 A  
DOCKED: ATOM     20  C   UNL     1     -57.277 -34.892  11.976 -0.00 +0.00    +0.029 A  
DOCKED: ATOM     21  C   UNL     1     -56.156 -35.156  12.761 -0.00 +0.00    +0.140 A  
DOCKED: ATOM     22  C   UNL     1     -54.943 -35.486  12.158 -0.01 +0.00    +0.029 A  
DOCKED: ATOM     23  F   UNL     1     -56.244 -35.093  14.096 -0.00 -0.00    -0.204 F  
DOCKED: ATOM     24  C   UNL     1     -54.851 -35.553  10.766 -0.03 +0.00    +0.001 A  
DOCKED: ENDBRANCH   2  18
DOCKED: TORSDOF 5
DOCKED: TER
DOCKED: ENDMDL
________________________________________________________________________________


    FINAL DOCKED STATE:
    ________________________


Run:   57 / 512
Time taken for this run:   0.002s

DOCKED: MODEL        57
DOCKED: USER    Run = 57
DOCKED: USER
DOCKED: USER    Estimated Free Energy of Binding    =  -3.80 kcal/mol  [=(1)+(2)+(3)-(4)]
DOCKED: USER
DOCKED: USER    (1) Final Intermolecular Energy     =  -5.29 kcal/mol
DOCKED: USER        vdW + Hbond + desolv Energy     =  -5.29 kcal/mol
DOCKED: USER        Electrostatic Energy            =  +0.00 kcal/mol
DOCKED: USER        Moving Ligand-Fixed Receptor    =  -5.29 kcal/mol
DOCKED: USER        Moving Ligand-Moving Receptor   =  +0.00 kcal/mol
DOCKED: USER    (2) Final Total Internal Energy     =  -1.45 kcal/mol
DOCKED: USER    (3) Torsional Free Energy           =  +1.49 kcal/mol
DOCKED: USER    (4) Unbound System's Energy         =  -1.45 kcal/mol
DOCKED: USER
DOCKED: USER
DOCKED: REMARK  5 active torsions:
DOCKED: REMARK  status: ('A' for Active; 'I' for Inactive)
DOCKED: REMARK    1  A    between atoms: C_2  and  C_19 
DOCKED: REMARK    2  A    between atoms: C_2  and  C_11 
DOCKED: REMARK    3  A    between atoms: C_19  and  C_20 
DOCKED: REMARK    4  A    between atoms: C_20  and  C_21 
DOCKED: REMARK    5  A    between atoms: C_21  and  N_22 
DOCKED: USER                              x       y       z     vdW  Elec       q    Type
DOCKED: USER                           _______ _______ _______ _____ _____    ______ ____
DOCKED: ROOT
DOCKED: ATOM      1  O   UNL     1     -57.535 -36.471  10.729 -0.01 -0.00    -0.346 OA 
DOCKED: ATOM      2  C   UNL     1     -56.394 -36.770   9.862 -0.09 +0.00    +0.130 C  
DOCKED: ATOM      3  C   UNL     1     -57.001 -37.527   8.716 -0.19 +0.00    +0.004 A  
DOCKED: ATOM      4  C   UNL     1     -58.380 -37.562   8.858 -0.13 +0.00    +0.006 A  
DOCKED: ATOM      5  C   UNL     1     -58.778 -36.831  10.082 -0.04 +0.00    +0.169 C  
DOCKED: ATOM      6  C   UNL     1     -56.382 -38.126   7.629 -0.28 -0.00    -0.001 A  
DOCKED: ATOM      7  C   UNL     1     -59.185 -38.197   7.928 -0.18 +0.00    +0.008 A  
DOCKED: ATOM      8  C   UNL     1     -57.179 -38.774   6.684 -0.37 +0.00    +0.010 A  
DOCKED: ATOM      9  C   UNL     1     -58.573 -38.809   6.833 -0.27 +0.00    +0.068 A  
DOCKED: ATOM     10  N   UNL     1     -60.024 -40.016   5.057 -2.16 -0.00    -0.191 NA 
DOCKED: ATOM     11  C   UNL     1     -59.373 -39.475   5.854 -0.21 +0.00    +0.101 C  
DOCKED: ENDROOT
DOCKED: BRANCH   2  12
DOCKED: ATOM     12  C   UNL     1     -55.756 -35.453   9.433 -0.07 +0.00    +0.038 C  
DOCKED: BRANCH  12  13
DOCKED: ATOM     13  C   UNL     1     -56.700 -34.275   9.668 -0.03 +0.00    +0.038 C  
DOCKED: BRANCH  13  14
DOCKED: ATOM     14  C   UNL     1     -57.344 -33.818   8.361 -0.04 +0.00    +0.251 C  
DOCKED: BRANCH  14  15
DOCKED: ATOM     15  N   UNL     1     -56.949 -34.696   7.266 -0.14 +0.00    +0.141 N  
DOCKED: ATOM     16  C   UNL     1     -58.116 -35.091   6.475 -0.16 +0.00    +0.285 C  
DOCKED: ATOM     17  C   UNL     1     -55.956 -34.042   6.413 -0.13 +0.00    +0.285 C  
DOCKED: ENDBRANCH  14  15
DOCKED: ENDBRANCH  13  14
DOCKED: ENDBRANCH  12  13
DOCKED: ENDBRANCH   2  12
DOCKED: BRANCH   2  18
DOCKED: ATOM     18  C   UNL     1     -55.441 -37.593  10.664 -0.11 +0.00    +0.006 A  
DOCKED: ATOM     19  C   UNL     1     -55.926 -38.497  11.608 -0.14 +0.00    +0.001 A  
DOCKED: ATOM     20  C   UNL     1     -55.034 -39.265  12.357 -0.15 +0.00    +0.029 A  
DOCKED: ATOM     21  C   UNL     1     -53.661 -39.130  12.160 -0.12 +0.00    +0.140 A  
DOCKED: ATOM     22  C   UNL     1     -53.177 -38.226  11.215 -0.11 +0.00    +0.029 A  
DOCKED: ATOM     23  F   UNL     1     -52.805 -39.870  12.878 -0.06 -0.00    -0.204 F  
DOCKED: ATOM     24  C   UNL     1     -54.068 -37.456  10.465 -0.11 +0.00    +0.001 A  
DOCKED: ENDBRANCH   2  18
DOCKED: TORSDOF 5
DOCKED: TER
DOCKED: ENDMDL
________________________________________________________________________________


    FINAL DOCKED STATE:
    ________________________


Run:   58 / 512
Time taken for this run:   0.002s

DOCKED: MODEL        58
DOCKED: USER    Run = 58
DOCKED: USER
DOCKED: USER    Estimated Free Energy of Binding    =  -4.83 kcal/mol  [=(1)+(2)+(3)-(4)]
DOCKED: USER
DOCKED: USER    (1) Final Intermolecular Energy     =  -6.32 kcal/mol
DOCKED: USER        vdW + Hbond + desolv Energy     =  -6.32 kcal/mol
DOCKED: USER        Electrostatic Energy            =  +0.00 kcal/mol
DOCKED: USER        Moving Ligand-Fixed Receptor    =  -6.32 kcal/mol
DOCKED: USER        Moving Ligand-Moving Receptor   =  +0.00 kcal/mol
DOCKED: USER    (2) Final Total Internal Energy     =  -1.09 kcal/mol
DOCKED: USER    (3) Torsional Free Energy           =  +1.49 kcal/mol
DOCKED: USER    (4) Unbound System's Energy         =  -1.09 kcal/mol
DOCKED: USER
DOCKED: USER
DOCKED: REMARK  5 active torsions:
DOCKED: REMARK  status: ('A' for Active; 'I' for Inactive)
DOCKED: REMARK    1  A    between atoms: C_2  and  C_19 
DOCKED: REMARK    2  A    between atoms: C_2  and  C_11 
DOCKED: REMARK    3  A    between atoms: C_19  and  C_20 
DOCKED: REMARK    4  A    between atoms: C_20  and  C_21 
DOCKED: REMARK    5  A    between atoms: C_21  and  N_22 
DOCKED: USER                              x       y       z     vdW  Elec       q    Type
DOCKED: USER                           _______ _______ _______ _____ _____    ______ ____
DOCKED: ROOT
DOCKED: ATOM      1  O   UNL     1     -56.182 -30.111   1.615 -0.09 -0.00    -0.346 OA 
DOCKED: ATOM      2  C   UNL     1     -54.922 -30.229   0.880 -0.18 +0.00    +0.130 C  
DOCKED: ATOM      3  C   UNL     1     -55.219 -29.593  -0.447 -0.28 +0.00    +0.004 A  
DOCKED: ATOM      4  C   UNL     1     -56.500 -29.059  -0.433 -0.18 +0.00    +0.006 A  
DOCKED: ATOM      5  C   UNL     1     -57.126 -29.289   0.888 -0.23 +0.00    +0.169 C  
DOCKED: ATOM      6  C   UNL     1     -54.416 -29.486  -1.573 -0.24 -0.00    -0.001 A  
DOCKED: ATOM      7  C   UNL     1     -57.021 -28.407  -1.537 -0.08 +0.00    +0.008 A  
DOCKED: ATOM      8  C   UNL     1     -54.928 -28.835  -2.696 -0.24 +0.00    +0.010 A  
DOCKED: ATOM      9  C   UNL     1     -56.224 -28.297  -2.678 -0.23 +0.00    +0.068 A  
DOCKED: ATOM     10  N   UNL     1     -57.143 -27.091  -4.779 -2.42 -0.00    -0.191 NA 
DOCKED: ATOM     11  C   UNL     1     -56.731 -27.633  -3.837 -0.30 +0.00    +0.101 C  
DOCKED: ENDROOT
DOCKED: BRANCH   2  12
DOCKED: ATOM     12  C   UNL     1     -53.837 -29.496   1.660 -0.17 +0.00    +0.038 C  
DOCKED: BRANCH  12  13
DOCKED: ATOM     13  C   UNL     1     -54.164 -29.442   3.151 -0.14 +0.00    +0.038 C  
DOCKED: BRANCH  13  14
DOCKED: ATOM     14  C   UNL     1     -55.091 -28.270   3.468 -0.13 +0.00    +0.251 C  
DOCKED: BRANCH  14  15
DOCKED: ATOM     15  N   UNL     1     -55.246 -28.122   4.911 -0.10 +0.00    +0.141 N  
DOCKED: ATOM     16  C   UNL     1     -55.046 -26.728   5.311 -0.08 +0.00    +0.285 C  
DOCKED: ATOM     17  C   UNL     1     -56.566 -28.589   5.338 -0.04 +0.00    +0.285 C  
DOCKED: ENDBRANCH  14  15
DOCKED: ENDBRANCH  13  14
DOCKED: ENDBRANCH  12  13
DOCKED: ENDBRANCH   2  12
DOCKED: BRANCH   2  18
DOCKED: ATOM     18  C   UNL     1     -54.616 -31.686   0.771 -0.16 +0.00    +0.006 A  
DOCKED: ATOM     19  C   UNL     1     -53.456 -32.107   0.123 -0.11 +0.00    +0.001 A  
DOCKED: ATOM     20  C   UNL     1     -53.171 -33.470   0.022 -0.16 +0.00    +0.029 A  
DOCKED: ATOM     21  C   UNL     1     -54.046 -34.407   0.568 -0.20 +0.00    +0.140 A  
DOCKED: ATOM     22  C   UNL     1     -55.206 -33.985   1.217 -0.26 +0.00    +0.029 A  
DOCKED: ATOM     23  F   UNL     1     -53.771 -35.715   0.473 -0.10 -0.00    -0.204 F  
DOCKED: ATOM     24  C   UNL     1     -55.492 -32.623   1.318 -0.19 +0.00    +0.001 A  
DOCKED: ENDBRANCH   2  18
DOCKED: TORSDOF 5
DOCKED: TER
DOCKED: ENDMDL
________________________________________________________________________________


    FINAL DOCKED STATE:
    ________________________


Run:   59 / 512
Time taken for this run:   0.002s

DOCKED: MODEL        59
DOCKED: USER    Run = 59
DOCKED: USER
DOCKED: USER    Estimated Free Energy of Binding    =  -4.26 kcal/mol  [=(1)+(2)+(3)-(4)]
DOCKED: USER
DOCKED: USER    (1) Final Intermolecular Energy     =  -5.75 kcal/mol
DOCKED: USER        vdW + Hbond + desolv Energy     =  -5.75 kcal/mol
DOCKED: USER        Electrostatic Energy            =  +0.00 kcal/mol
DOCKED: USER        Moving Ligand-Fixed Receptor    =  -5.75 kcal/mol
DOCKED: USER        Moving Ligand-Moving Receptor   =  +0.00 kcal/mol
DOCKED: USER    (2) Final Total Internal Energy     =  -1.11 kcal/mol
DOCKED: USER    (3) Torsional Free Energy           =  +1.49 kcal/mol
DOCKED: USER    (4) Unbound System's Energy         =  -1.11 kcal/mol
DOCKED: USER
DOCKED: USER
DOCKED: REMARK  5 active torsions:
DOCKED: REMARK  status: ('A' for Active; 'I' for Inactive)
DOCKED: REMARK    1  A    between atoms: C_2  and  C_19 
DOCKED: REMARK    2  A    between atoms: C_2  and  C_11 
DOCKED: REMARK    3  A    between atoms: C_19  and  C_20 
DOCKED: REMARK    4  A    between atoms: C_20  and  C_21 
DOCKED: REMARK    5  A    between atoms: C_21  and  N_22 
DOCKED: USER                              x       y       z     vdW  Elec       q    Type
DOCKED: USER                           _______ _______ _______ _____ _____    ______ ____
DOCKED: ROOT
DOCKED: ATOM      1  O   UNL     1     -60.248 -33.808   8.017 -0.04 -0.00    -0.346 OA 
DOCKED: ATOM      2  C   UNL     1     -58.979 -33.850   7.290 -0.17 +0.00    +0.130 C  
DOCKED: ATOM      3  C   UNL     1     -58.902 -35.262   6.783 -0.23 +0.00    +0.004 A  
DOCKED: ATOM      4  C   UNL     1     -60.074 -35.935   7.098 -0.21 +0.00    +0.006 A  
DOCKED: ATOM      5  C   UNL     1     -60.999 -35.027   7.812 -0.13 +0.00    +0.169 C  
DOCKED: ATOM      6  C   UNL     1     -57.882 -35.895   6.089 -0.27 -0.00    -0.001 A  
DOCKED: ATOM      7  C   UNL     1     -60.264 -37.258   6.736 -0.23 +0.00    +0.008 A  
DOCKED: ATOM      8  C   UNL     1     -58.057 -37.230   5.721 -0.32 +0.00    +0.010 A  
DOCKED: ATOM      9  C   UNL     1     -59.242 -37.908   6.043 -0.28 +0.00    +0.068 A  
DOCKED: ATOM     10  N   UNL     1     -59.536 -40.384   5.341 -2.59 -0.00    -0.191 NA 
DOCKED: ATOM     11  C   UNL     1     -59.404 -39.274   5.656 -0.37 +0.00    +0.101 C  
DOCKED: ENDROOT
DOCKED: BRANCH   2  12
DOCKED: ATOM     12  C   UNL     1     -59.031 -32.819   6.169 -0.16 +0.00    +0.038 C  
DOCKED: BRANCH  12  13
DOCKED: ATOM     13  C   UNL     1     -60.380 -32.104   6.131 -0.19 +0.00    +0.038 C  
DOCKED: BRANCH  13  14
DOCKED: ATOM     14  C   UNL     1     -60.197 -30.591   6.030 -0.10 +0.00    +0.251 C  
DOCKED: BRANCH  14  15
DOCKED: ATOM     15  N   UNL     1     -59.162 -30.269   5.055 -0.13 +0.00    +0.141 N  
DOCKED: ATOM     16  C   UNL     1     -59.741 -29.594   3.892 -0.12 +0.00    +0.285 C  
DOCKED: ATOM     17  C   UNL     1     -58.124 -29.434   5.662 -0.04 +0.00    +0.285 C  
DOCKED: ENDBRANCH  14  15
DOCKED: ENDBRANCH  13  14
DOCKED: ENDBRANCH  12  13
DOCKED: ENDBRANCH   2  12
DOCKED: BRANCH   2  18
DOCKED: ATOM     18  C   UNL     1     -57.902 -33.526   8.271 -0.07 +0.00    +0.006 A  
DOCKED: ATOM     19  C   UNL     1     -57.762 -34.289   9.429 -0.03 +0.00    +0.001 A  
DOCKED: ATOM     20  C   UNL     1     -56.755 -33.983  10.346 -0.01 +0.00    +0.029 A  
DOCKED: ATOM     21  C   UNL     1     -55.890 -32.917  10.103 -0.00 +0.00    +0.140 A  
DOCKED: ATOM     22  C   UNL     1     -56.031 -32.155   8.944 -0.02 +0.00    +0.029 A  
DOCKED: ATOM     23  F   UNL     1     -54.923 -32.626  10.982 +0.00 -0.00    -0.204 F  
DOCKED: ATOM     24  C   UNL     1     -57.038 -32.459   8.026 -0.05 +0.00    +0.001 A  
DOCKED: ENDBRANCH   2  18
DOCKED: TORSDOF 5
DOCKED: TER
DOCKED: ENDMDL
________________________________________________________________________________


    FINAL DOCKED STATE:
    ________________________


Run:   60 / 512
Time taken for this run:   0.002s

DOCKED: MODEL        60
DOCKED: USER    Run = 60
DOCKED: USER
DOCKED: USER    Estimated Free Energy of Binding    =  -3.64 kcal/mol  [=(1)+(2)+(3)-(4)]
DOCKED: USER
DOCKED: USER    (1) Final Intermolecular Energy     =  -5.13 kcal/mol
DOCKED: USER        vdW + Hbond + desolv Energy     =  -5.13 kcal/mol
DOCKED: USER        Electrostatic Energy            =  +0.00 kcal/mol
DOCKED: USER        Moving Ligand-Fixed Receptor    =  -5.13 kcal/mol
DOCKED: USER        Moving Ligand-Moving Receptor   =  +0.00 kcal/mol
DOCKED: USER    (2) Final Total Internal Energy     =  -1.08 kcal/mol
DOCKED: USER    (3) Torsional Free Energy           =  +1.49 kcal/mol
DOCKED: USER    (4) Unbound System's Energy         =  -1.08 kcal/mol
DOCKED: USER
DOCKED: USER
DOCKED: REMARK  5 active torsions:
DOCKED: REMARK  status: ('A' for Active; 'I' for Inactive)
DOCKED: REMARK    1  A    between atoms: C_2  and  C_19 
DOCKED: REMARK    2  A    between atoms: C_2  and  C_11 
DOCKED: REMARK    3  A    between atoms: C_19  and  C_20 
DOCKED: REMARK    4  A    between atoms: C_20  and  C_21 
DOCKED: REMARK    5  A    between atoms: C_21  and  N_22 
DOCKED: USER                              x       y       z     vdW  Elec       q    Type
DOCKED: USER                           _______ _______ _______ _____ _____    ______ ____
DOCKED: ROOT
DOCKED: ATOM      1  O   UNL     1     -51.800 -25.842  -4.396 -0.23 -0.00    -0.346 OA 
DOCKED: ATOM      2  C   UNL     1     -51.957 -26.798  -3.298 -0.09 +0.00    +0.130 C  
DOCKED: ATOM      3  C   UNL     1     -53.420 -27.133  -3.321 -0.21 +0.00    +0.004 A  
DOCKED: ATOM      4  C   UNL     1     -54.025 -26.511  -4.403 -0.32 +0.00    +0.006 A  
DOCKED: ATOM      5  C   UNL     1     -53.018 -25.743  -5.169 -0.08 +0.00    +0.169 C  
DOCKED: ATOM      6  C   UNL     1     -54.154 -27.935  -2.458 -0.24 -0.00    -0.001 A  
DOCKED: ATOM      7  C   UNL     1     -55.378 -26.663  -4.658 -0.44 +0.00    +0.008 A  
DOCKED: ATOM      8  C   UNL     1     -55.520 -28.094  -2.699 -0.36 +0.00    +0.010 A  
DOCKED: ATOM      9  C   UNL     1     -56.128 -27.462  -3.794 -0.37 +0.00    +0.068 A  
DOCKED: ATOM     10  N   UNL     1     -58.665 -27.783  -4.215 -1.97 -0.00    -0.191 NA 
DOCKED: ATOM     11  C   UNL     1     -57.527 -27.638  -4.026 +0.03 +0.00    +0.101 C  
DOCKED: ENDROOT
DOCKED: BRANCH   2  12
DOCKED: ATOM     12  C   UNL     1     -51.067 -28.004  -3.577 -0.04 +0.00    +0.038 C  
DOCKED: BRANCH  12  13
DOCKED: ATOM     13  C   UNL     1     -50.161 -27.760  -4.782 -0.03 +0.00    +0.038 C  
DOCKED: BRANCH  13  14
DOCKED: ATOM     14  C   UNL     1     -50.537 -28.675  -5.946 -0.00 +0.00    +0.251 C  
DOCKED: BRANCH  14  15
DOCKED: ATOM     15  N   UNL     1     -49.955 -29.999  -5.760 -0.01 +0.00    +0.141 N  
DOCKED: ATOM     16  C   UNL     1     -48.754 -29.922  -4.927 +0.00 +0.00    +0.285 C  
DOCKED: ATOM     17  C   UNL     1     -50.930 -30.911  -5.160 -0.02 +0.00    +0.285 C  
DOCKED: ENDBRANCH  14  15
DOCKED: ENDBRANCH  13  14
DOCKED: ENDBRANCH  12  13
DOCKED: ENDBRANCH   2  12
DOCKED: BRANCH   2  18
DOCKED: ATOM     18  C   UNL     1     -51.539 -26.099  -2.048 -0.12 +0.00    +0.006 A  
DOCKED: ATOM     19  C   UNL     1     -50.568 -26.666  -1.224 -0.07 +0.00    +0.001 A  
DOCKED: ATOM     20  C   UNL     1     -50.178 -26.011  -0.055 -0.08 +0.00    +0.029 A  
DOCKED: ATOM     21  C   UNL     1     -50.761 -24.792   0.289 -0.09 +0.00    +0.140 A  
DOCKED: ATOM     22  C   UNL     1     -51.732 -24.225  -0.536 -0.16 +0.00    +0.029 A  
DOCKED: ATOM     23  F   UNL     1     -50.385 -24.163   1.410 -0.04 -0.00    -0.204 F  
DOCKED: ATOM     24  C   UNL     1     -52.123 -24.880  -1.706 -0.21 +0.00    +0.001 A  
DOCKED: ENDBRANCH   2  18
DOCKED: TORSDOF 5
DOCKED: TER
DOCKED: ENDMDL
________________________________________________________________________________


    FINAL DOCKED STATE:
    ________________________


Run:   61 / 512
Time taken for this run:   0.002s

DOCKED: MODEL        61
DOCKED: USER    Run = 61
DOCKED: USER
DOCKED: USER    Estimated Free Energy of Binding    =  -4.52 kcal/mol  [=(1)+(2)+(3)-(4)]
DOCKED: USER
DOCKED: USER    (1) Final Intermolecular Energy     =  -6.01 kcal/mol
DOCKED: USER        vdW + Hbond + desolv Energy     =  -6.01 kcal/mol
DOCKED: USER        Electrostatic Energy            =  +0.00 kcal/mol
DOCKED: USER        Moving Ligand-Fixed Receptor    =  -6.01 kcal/mol
DOCKED: USER        Moving Ligand-Moving Receptor   =  +0.00 kcal/mol
DOCKED: USER    (2) Final Total Internal Energy     =  -1.11 kcal/mol
DOCKED: USER    (3) Torsional Free Energy           =  +1.49 kcal/mol
DOCKED: USER    (4) Unbound System's Energy         =  -1.11 kcal/mol
DOCKED: USER
DOCKED: USER
DOCKED: REMARK  5 active torsions:
DOCKED: REMARK  status: ('A' for Active; 'I' for Inactive)
DOCKED: REMARK    1  A    between atoms: C_2  and  C_19 
DOCKED: REMARK    2  A    between atoms: C_2  and  C_11 
DOCKED: REMARK    3  A    between atoms: C_19  and  C_20 
DOCKED: REMARK    4  A    between atoms: C_20  and  C_21 
DOCKED: REMARK    5  A    between atoms: C_21  and  N_22 
DOCKED: USER                              x       y       z     vdW  Elec       q    Type
DOCKED: USER                           _______ _______ _______ _____ _____    ______ ____
DOCKED: ROOT
DOCKED: ATOM      1  O   UNL     1     -55.381 -30.472   0.682 -0.08 -0.00    -0.346 OA 
DOCKED: ATOM      2  C   UNL     1     -54.117 -30.277  -0.029 -0.15 +0.00    +0.130 C  
DOCKED: ATOM      3  C   UNL     1     -54.506 -29.484  -1.243 -0.24 +0.00    +0.004 A  
DOCKED: ATOM      4  C   UNL     1     -55.853 -29.158  -1.176 -0.29 +0.00    +0.006 A  
DOCKED: ATOM      5  C   UNL     1     -56.438 -29.693   0.074 -0.22 +0.00    +0.169 C  
DOCKED: ATOM      6  C   UNL     1     -53.727 -29.073  -2.315 -0.20 -0.00    -0.001 A  
DOCKED: ATOM      7  C   UNL     1     -56.466 -28.419  -2.173 -0.36 +0.00    +0.008 A  
DOCKED: ATOM      8  C   UNL     1     -54.332 -28.331  -3.331 -0.26 +0.00    +0.010 A  
DOCKED: ATOM      9  C   UNL     1     -55.694 -28.006  -3.260 -0.28 +0.00    +0.068 A  
DOCKED: ATOM     10  N   UNL     1     -56.784 -26.622  -5.160 -2.42 -0.00    -0.191 NA 
DOCKED: ATOM     11  C   UNL     1     -56.296 -27.243  -4.308 -0.40 +0.00    +0.101 C  
DOCKED: ENDROOT
DOCKED: BRANCH   2  12
DOCKED: ATOM     12  C   UNL     1     -53.157 -29.527   0.888 -0.14 +0.00    +0.038 C  
DOCKED: BRANCH  12  13
DOCKED: ATOM     13  C   UNL     1     -52.912 -28.104   0.392 +0.14 +0.00    +0.038 C  
DOCKED: BRANCH  13  14
DOCKED: ATOM     14  C   UNL     1     -51.421 -27.771   0.394 -0.09 +0.00    +0.251 C  
DOCKED: BRANCH  14  15
DOCKED: ATOM     15  N   UNL     1     -50.822 -28.117  -0.889 -0.04 +0.00    +0.141 N  
DOCKED: ATOM     16  C   UNL     1     -49.842 -27.106  -1.291 -0.01 +0.00    +0.285 C  
DOCKED: ATOM     17  C   UNL     1     -50.192 -29.437  -0.825 -0.01 +0.00    +0.285 C  
DOCKED: ENDBRANCH  14  15
DOCKED: ENDBRANCH  13  14
DOCKED: ENDBRANCH  12  13
DOCKED: ENDBRANCH   2  12
DOCKED: BRANCH   2  18
DOCKED: ATOM     18  C   UNL     1     -53.592 -31.633  -0.364 -0.13 +0.00    +0.006 A  
DOCKED: ATOM     19  C   UNL     1     -53.070 -32.446   0.641 -0.09 +0.00    +0.001 A  
DOCKED: ATOM     20  C   UNL     1     -52.579 -33.714   0.326 -0.12 +0.00    +0.029 A  
DOCKED: ATOM     21  C   UNL     1     -52.612 -34.167  -0.993 -0.15 +0.00    +0.140 A  
DOCKED: ATOM     22  C   UNL     1     -53.134 -33.353  -1.997 -0.20 +0.00    +0.029 A  
DOCKED: ATOM     23  F   UNL     1     -52.142 -35.384  -1.294 -0.06 -0.00    -0.204 F  
DOCKED: ATOM     24  C   UNL     1     -53.625 -32.084  -1.683 -0.20 +0.00    +0.001 A  
DOCKED: ENDBRANCH   2  18
DOCKED: TORSDOF 5
DOCKED: TER
DOCKED: ENDMDL
________________________________________________________________________________


    FINAL DOCKED STATE:
    ________________________


Run:   62 / 512
Time taken for this run:   0.002s

DOCKED: MODEL        62
DOCKED: USER    Run = 62
DOCKED: USER
DOCKED: USER    Estimated Free Energy of Binding    =  -3.74 kcal/mol  [=(1)+(2)+(3)-(4)]
DOCKED: USER
DOCKED: USER    (1) Final Intermolecular Energy     =  -5.24 kcal/mol
DOCKED: USER        vdW + Hbond + desolv Energy     =  -5.24 kcal/mol
DOCKED: USER        Electrostatic Energy            =  +0.00 kcal/mol
DOCKED: USER        Moving Ligand-Fixed Receptor    =  -5.24 kcal/mol
DOCKED: USER        Moving Ligand-Moving Receptor   =  +0.00 kcal/mol
DOCKED: USER    (2) Final Total Internal Energy     =  -1.28 kcal/mol
DOCKED: USER    (3) Torsional Free Energy           =  +1.49 kcal/mol
DOCKED: USER    (4) Unbound System's Energy         =  -1.28 kcal/mol
DOCKED: USER
DOCKED: USER
DOCKED: REMARK  5 active torsions:
DOCKED: REMARK  status: ('A' for Active; 'I' for Inactive)
DOCKED: REMARK    1  A    between atoms: C_2  and  C_19 
DOCKED: REMARK    2  A    between atoms: C_2  and  C_11 
DOCKED: REMARK    3  A    between atoms: C_19  and  C_20 
DOCKED: REMARK    4  A    between atoms: C_20  and  C_21 
DOCKED: REMARK    5  A    between atoms: C_21  and  N_22 
DOCKED: USER                              x       y       z     vdW  Elec       q    Type
DOCKED: USER                           _______ _______ _______ _____ _____    ______ ____
DOCKED: ROOT
DOCKED: ATOM      1  O   UNL     1     -58.545 -34.624   9.512 -0.00 -0.00    -0.346 OA 
DOCKED: ATOM      2  C   UNL     1     -57.573 -34.594   8.418 -0.07 +0.00    +0.130 C  
DOCKED: ATOM      3  C   UNL     1     -57.907 -35.812   7.607 -0.18 +0.00    +0.004 A  
DOCKED: ATOM      4  C   UNL     1     -59.038 -36.424   8.128 -0.12 +0.00    +0.006 A  
DOCKED: ATOM      5  C   UNL     1     -59.533 -35.658   9.293 -0.04 +0.00    +0.169 C  
DOCKED: ATOM      6  C   UNL     1     -57.267 -36.331   6.491 -0.22 -0.00    -0.001 A  
DOCKED: ATOM      7  C   UNL     1     -59.564 -37.571   7.557 -0.17 +0.00    +0.008 A  
DOCKED: ATOM      8  C   UNL     1     -57.782 -37.490   5.908 -0.28 +0.00    +0.010 A  
DOCKED: ATOM      9  C   UNL     1     -58.925 -38.106   6.438 -0.26 +0.00    +0.068 A  
DOCKED: ATOM     10  N   UNL     1     -59.859 -40.252   5.327 -2.50 -0.00    -0.191 NA 
DOCKED: ATOM     11  C   UNL     1     -59.440 -39.290   5.826 -0.33 +0.00    +0.101 C  
DOCKED: ENDROOT
DOCKED: BRANCH   2  12
DOCKED: ATOM     12  C   UNL     1     -57.760 -33.295   7.643 -0.12 +0.00    +0.038 C  
DOCKED: BRANCH  12  13
DOCKED: ATOM     13  C   UNL     1     -58.755 -33.469   6.497 -0.20 +0.00    +0.038 C  
DOCKED: BRANCH  13  14
DOCKED: ATOM     14  C   UNL     1     -59.678 -32.257   6.382 -0.15 +0.00    +0.251 C  
DOCKED: BRANCH  14  15
DOCKED: ATOM     15  N   UNL     1     -60.924 -32.499   7.100 -0.15 +0.00    +0.141 N  
DOCKED: ATOM     16  C   UNL     1     -61.410 -33.856   6.846 -0.15 +0.00    +0.285 C  
DOCKED: ATOM     17  C   UNL     1     -60.741 -32.286   8.537 -0.02 +0.00    +0.285 C  
DOCKED: ENDBRANCH  14  15
DOCKED: ENDBRANCH  13  14
DOCKED: ENDBRANCH  12  13
DOCKED: ENDBRANCH   2  12
DOCKED: BRANCH   2  18
DOCKED: ATOM     18  C   UNL     1     -56.217 -34.661   9.038 -0.06 +0.00    +0.006 A  
DOCKED: ATOM     19  C   UNL     1     -56.072 -34.505  10.416 -0.02 +0.00    +0.001 A  
DOCKED: ATOM     20  C   UNL     1     -54.803 -34.567  10.993 -0.01 +0.00    +0.029 A  
DOCKED: ATOM     21  C   UNL     1     -53.682 -34.786  10.193 -0.02 +0.00    +0.140 A  
DOCKED: ATOM     22  C   UNL     1     -53.829 -34.942   8.815 -0.07 +0.00    +0.029 A  
DOCKED: ATOM     23  F   UNL     1     -52.465 -34.848  10.748 +0.00 -0.00    -0.204 F  
DOCKED: ATOM     24  C   UNL     1     -55.097 -34.879   8.236 -0.11 +0.00    +0.001 A  
DOCKED: ENDBRANCH   2  18
DOCKED: TORSDOF 5
DOCKED: TER
DOCKED: ENDMDL
________________________________________________________________________________


    FINAL DOCKED STATE:
    ________________________


Run:   63 / 512
Time taken for this run:   0.002s

DOCKED: MODEL        63
DOCKED: USER    Run = 63
DOCKED: USER
DOCKED: USER    Estimated Free Energy of Binding    =  -5.23 kcal/mol  [=(1)+(2)+(3)-(4)]
DOCKED: USER
DOCKED: USER    (1) Final Intermolecular Energy     =  -6.72 kcal/mol
DOCKED: USER        vdW + Hbond + desolv Energy     =  -6.72 kcal/mol
DOCKED: USER        Electrostatic Energy            =  +0.00 kcal/mol
DOCKED: USER        Moving Ligand-Fixed Receptor    =  -6.72 kcal/mol
DOCKED: USER        Moving Ligand-Moving Receptor   =  +0.00 kcal/mol
DOCKED: USER    (2) Final Total Internal Energy     =  -1.40 kcal/mol
DOCKED: USER    (3) Torsional Free Energy           =  +1.49 kcal/mol
DOCKED: USER    (4) Unbound System's Energy         =  -1.40 kcal/mol
DOCKED: USER
DOCKED: USER
DOCKED: REMARK  5 active torsions:
DOCKED: REMARK  status: ('A' for Active; 'I' for Inactive)
DOCKED: REMARK    1  A    between atoms: C_2  and  C_19 
DOCKED: REMARK    2  A    between atoms: C_2  and  C_11 
DOCKED: REMARK    3  A    between atoms: C_19  and  C_20 
DOCKED: REMARK    4  A    between atoms: C_20  and  C_21 
DOCKED: REMARK    5  A    between atoms: C_21  and  N_22 
DOCKED: USER                              x       y       z     vdW  Elec       q    Type
DOCKED: USER                           _______ _______ _______ _____ _____    ______ ____
DOCKED: ROOT
DOCKED: ATOM      1  O   UNL     1     -58.182 -36.071   7.736 -0.04 -0.00    -0.346 OA 
DOCKED: ATOM      2  C   UNL     1     -57.498 -37.364   7.687 -0.22 +0.00    +0.130 C  
DOCKED: ATOM      3  C   UNL     1     -57.982 -37.977   6.404 -0.35 +0.00    +0.004 A  
DOCKED: ATOM      4  C   UNL     1     -58.784 -37.070   5.726 -0.34 +0.00    +0.006 A  
DOCKED: ATOM      5  C   UNL     1     -58.875 -35.808   6.494 -0.22 +0.00    +0.169 C  
DOCKED: ATOM      6  C   UNL     1     -57.724 -39.233   5.875 -0.41 -0.00    -0.001 A  
DOCKED: ATOM      7  C   UNL     1     -59.356 -37.385   4.505 +0.16 +0.00    +0.008 A  
DOCKED: ATOM      8  C   UNL     1     -58.297 -39.568   4.647 -0.43 +0.00    +0.010 A  
DOCKED: ATOM      9  C   UNL     1     -59.108 -38.648   3.966 -0.45 +0.00    +0.068 A  
DOCKED: ATOM     10  N   UNL     1     -60.152 -39.300   1.685 -2.71 -0.00    -0.191 NA 
DOCKED: ATOM     11  C   UNL     1     -59.685 -39.008   2.708 -0.33 +0.00    +0.101 C  
DOCKED: ENDROOT
DOCKED: BRANCH   2  12
DOCKED: ATOM     12  C   UNL     1     -55.995 -37.117   7.695 -0.15 +0.00    +0.038 C  
DOCKED: BRANCH  12  13
DOCKED: ATOM     13  C   UNL     1     -55.673 -35.654   7.995 -0.16 +0.00    +0.038 C  
DOCKED: BRANCH  13  14
DOCKED: ATOM     14  C   UNL     1     -55.891 -35.334   9.472 -0.04 +0.00    +0.251 C  
DOCKED: BRANCH  14  15
DOCKED: ATOM     15  N   UNL     1     -56.232 -33.927   9.642 -0.02 +0.00    +0.141 N  
DOCKED: ATOM     16  C   UNL     1     -56.127 -33.213   8.368 -0.03 +0.00    +0.285 C  
DOCKED: ATOM     17  C   UNL     1     -57.581 -33.786  10.192 -0.00 +0.00    +0.285 C  
DOCKED: ENDBRANCH  14  15
DOCKED: ENDBRANCH  13  14
DOCKED: ENDBRANCH  12  13
DOCKED: ENDBRANCH   2  12
DOCKED: BRANCH   2  18
DOCKED: ATOM     18  C   UNL     1     -57.925 -38.130   8.894 -0.18 +0.00    +0.006 A  
DOCKED: ATOM     19  C   UNL     1     -59.236 -38.595   8.998 -0.18 +0.00    +0.001 A  
DOCKED: ATOM     20  C   UNL     1     -59.633 -39.310  10.128 -0.14 +0.00    +0.029 A  
DOCKED: ATOM     21  C   UNL     1     -58.721 -39.559  11.152 -0.09 +0.00    +0.140 A  
DOCKED: ATOM     22  C   UNL     1     -57.410 -39.094  11.048 -0.20 +0.00    +0.029 A  
DOCKED: ATOM     23  F   UNL     1     -59.103 -40.248  12.236 -0.03 -0.00    -0.204 F  
DOCKED: ATOM     24  C   UNL     1     -57.012 -38.378   9.918 -0.15 +0.00    +0.001 A  
DOCKED: ENDBRANCH   2  18
DOCKED: TORSDOF 5
DOCKED: TER
DOCKED: ENDMDL
________________________________________________________________________________


    FINAL DOCKED STATE:
    ________________________


Run:   64 / 512
Time taken for this run:   0.002s

DOCKED: MODEL        64
DOCKED: USER    Run = 64
DOCKED: USER
DOCKED: USER    Estimated Free Energy of Binding    =  -4.12 kcal/mol  [=(1)+(2)+(3)-(4)]
DOCKED: USER
DOCKED: USER    (1) Final Intermolecular Energy     =  -5.61 kcal/mol
DOCKED: USER        vdW + Hbond + desolv Energy     =  -5.61 kcal/mol
DOCKED: USER        Electrostatic Energy            =  +0.00 kcal/mol
DOCKED: USER        Moving Ligand-Fixed Receptor    =  -5.61 kcal/mol
DOCKED: USER        Moving Ligand-Moving Receptor   =  +0.00 kcal/mol
DOCKED: USER    (2) Final Total Internal Energy     =  -1.51 kcal/mol
DOCKED: USER    (3) Torsional Free Energy           =  +1.49 kcal/mol
DOCKED: USER    (4) Unbound System's Energy         =  -1.51 kcal/mol
DOCKED: USER
DOCKED: USER
DOCKED: REMARK  5 active torsions:
DOCKED: REMARK  status: ('A' for Active; 'I' for Inactive)
DOCKED: REMARK    1  A    between atoms: C_2  and  C_19 
DOCKED: REMARK    2  A    between atoms: C_2  and  C_11 
DOCKED: REMARK    3  A    between atoms: C_19  and  C_20 
DOCKED: REMARK    4  A    between atoms: C_20  and  C_21 
DOCKED: REMARK    5  A    between atoms: C_21  and  N_22 
DOCKED: USER                              x       y       z     vdW  Elec       q    Type
DOCKED: USER                           _______ _______ _______ _____ _____    ______ ____
DOCKED: ROOT
DOCKED: ATOM      1  O   UNL     1     -53.024 -29.727  -0.390 -0.03 -0.00    -0.346 OA 
DOCKED: ATOM      2  C   UNL     1     -52.310 -29.934  -1.651 -0.06 +0.00    +0.130 C  
DOCKED: ATOM      3  C   UNL     1     -53.174 -29.250  -2.670 -0.15 +0.00    +0.004 A  
DOCKED: ATOM      4  C   UNL     1     -54.230 -28.612  -2.034 -0.24 +0.00    +0.006 A  
DOCKED: ATOM      5  C   UNL     1     -54.133 -28.817  -0.571 -0.04 +0.00    +0.169 C  
DOCKED: ATOM      6  C   UNL     1     -53.031 -29.186  -4.048 -0.15 -0.00    -0.001 A  
DOCKED: ATOM      7  C   UNL     1     -55.176 -27.898  -2.749 -0.35 +0.00    +0.008 A  
DOCKED: ATOM      8  C   UNL     1     -53.979 -28.473  -4.784 -0.22 +0.00    +0.010 A  
DOCKED: ATOM      9  C   UNL     1     -55.046 -27.832  -4.137 -0.26 +0.00    +0.068 A  
DOCKED: ATOM     10  N   UNL     1     -56.786 -26.512  -5.531 -2.57 -0.00    -0.191 NA 
DOCKED: ATOM     11  C   UNL     1     -56.006 -27.104  -4.906 -0.35 +0.00    +0.101 C  
DOCKED: ENDROOT
DOCKED: BRANCH   2  12
DOCKED: ATOM     12  C   UNL     1     -50.926 -29.309  -1.530 -0.03 +0.00    +0.038 C  
DOCKED: BRANCH  12  13
DOCKED: ATOM     13  C   UNL     1     -50.982 -27.966  -0.804 -0.08 +0.00    +0.038 C  
DOCKED: BRANCH  13  14
DOCKED: ATOM     14  C   UNL     1     -50.676 -26.813  -1.757 -0.03 +0.00    +0.251 C  
DOCKED: BRANCH  14  15
DOCKED: ATOM     15  N   UNL     1     -51.904 -26.323  -2.372 -0.09 +0.00    +0.141 N  
DOCKED: ATOM     16  C   UNL     1     -52.561 -25.344  -1.504 -0.14 +0.00    +0.285 C  
DOCKED: ATOM     17  C   UNL     1     -51.625 -25.733  -3.682 -0.05 +0.00    +0.285 C  
DOCKED: ENDBRANCH  14  15
DOCKED: ENDBRANCH  13  14
DOCKED: ENDBRANCH  12  13
DOCKED: ENDBRANCH   2  12
DOCKED: BRANCH   2  18
DOCKED: ATOM     18  C   UNL     1     -52.218 -31.409  -1.863 -0.06 +0.00    +0.006 A  
DOCKED: ATOM     19  C   UNL     1     -53.310 -32.108  -2.376 -0.20 +0.00    +0.001 A  
DOCKED: ATOM     20  C   UNL     1     -53.222 -33.487  -2.574 -0.22 +0.00    +0.029 A  
DOCKED: ATOM     21  C   UNL     1     -52.045 -34.163  -2.258 -0.15 +0.00    +0.140 A  
DOCKED: ATOM     22  C   UNL     1     -50.954 -33.463  -1.745 -0.04 +0.00    +0.029 A  
DOCKED: ATOM     23  F   UNL     1     -51.961 -35.486  -2.449 -0.09 -0.00    -0.204 F  
DOCKED: ATOM     24  C   UNL     1     -51.040 -32.084  -1.546 -0.02 +0.00    +0.001 A  
DOCKED: ENDBRANCH   2  18
DOCKED: TORSDOF 5
DOCKED: TER
DOCKED: ENDMDL
________________________________________________________________________________


    FINAL DOCKED STATE:
    ________________________


Run:   65 / 512
Time taken for this run:   0.002s

DOCKED: MODEL        65
DOCKED: USER    Run = 65
DOCKED: USER
DOCKED: USER    Estimated Free Energy of Binding    =  -4.67 kcal/mol  [=(1)+(2)+(3)-(4)]
DOCKED: USER
DOCKED: USER    (1) Final Intermolecular Energy     =  -6.16 kcal/mol
DOCKED: USER        vdW + Hbond + desolv Energy     =  -6.16 kcal/mol
DOCKED: USER        Electrostatic Energy            =  +0.00 kcal/mol
DOCKED: USER        Moving Ligand-Fixed Receptor    =  -6.16 kcal/mol
DOCKED: USER        Moving Ligand-Moving Receptor   =  +0.00 kcal/mol
DOCKED: USER    (2) Final Total Internal Energy     =  -0.84 kcal/mol
DOCKED: USER    (3) Torsional Free Energy           =  +1.49 kcal/mol
DOCKED: USER    (4) Unbound System's Energy         =  -0.84 kcal/mol
DOCKED: USER
DOCKED: USER
DOCKED: REMARK  5 active torsions:
DOCKED: REMARK  status: ('A' for Active; 'I' for Inactive)
DOCKED: REMARK    1  A    between atoms: C_2  and  C_19 
DOCKED: REMARK    2  A    between atoms: C_2  and  C_11 
DOCKED: REMARK    3  A    between atoms: C_19  and  C_20 
DOCKED: REMARK    4  A    between atoms: C_20  and  C_21 
DOCKED: REMARK    5  A    between atoms: C_21  and  N_22 
DOCKED: USER                              x       y       z     vdW  Elec       q    Type
DOCKED: USER                           _______ _______ _______ _____ _____    ______ ____
DOCKED: ROOT
DOCKED: ATOM      1  O   UNL     1     -49.777 -35.037   0.636 +0.01 -0.00    -0.346 OA 
DOCKED: ATOM      2  C   UNL     1     -51.223 -35.090   0.416 -0.08 +0.00    +0.130 C  
DOCKED: ATOM      3  C   UNL     1     -51.654 -36.324   1.155 -0.17 +0.00    +0.004 A  
DOCKED: ATOM      4  C   UNL     1     -50.570 -36.867   1.830 -0.10 +0.00    +0.006 A  
DOCKED: ATOM      5  C   UNL     1     -49.367 -36.036   1.599 -0.02 +0.00    +0.169 C  
DOCKED: ATOM      6  C   UNL     1     -52.907 -36.913   1.232 -0.26 -0.00    -0.001 A  
DOCKED: ATOM      7  C   UNL     1     -50.698 -38.012   2.598 -0.17 +0.00    +0.008 A  
DOCKED: ATOM      8  C   UNL     1     -53.053 -38.070   1.999 -0.20 +0.00    +0.010 A  
DOCKED: ATOM      9  C   UNL     1     -51.954 -38.616   2.678 -0.30 +0.00    +0.068 A  
DOCKED: ATOM     10  N   UNL     1     -52.259 -40.763   4.097 -2.61 -0.00    -0.191 NA 
DOCKED: ATOM     11  C   UNL     1     -52.122 -39.800   3.460 -0.30 +0.00    +0.101 C  
DOCKED: ENDROOT
DOCKED: BRANCH   2  12
DOCKED: ATOM     12  C   UNL     1     -51.844 -33.816   0.976 -0.07 +0.00    +0.038 C  
DOCKED: BRANCH  12  13
DOCKED: ATOM     13  C   UNL     1     -53.121 -34.116   1.757 -0.18 +0.00    +0.038 C  
DOCKED: BRANCH  13  14
DOCKED: ATOM     14  C   UNL     1     -54.361 -33.865   0.900 -0.20 +0.00    +0.251 C  
DOCKED: BRANCH  14  15
DOCKED: ATOM     15  N   UNL     1     -54.629 -32.436   0.802 -0.15 +0.00    +0.141 N  
DOCKED: ATOM     16  C   UNL     1     -54.055 -31.886  -0.427 -0.12 +0.00    +0.285 C  
DOCKED: ATOM     17  C   UNL     1     -56.069 -32.177   0.850 -0.17 +0.00    +0.285 C  
DOCKED: ENDBRANCH  14  15
DOCKED: ENDBRANCH  13  14
DOCKED: ENDBRANCH  12  13
DOCKED: ENDBRANCH   2  12
DOCKED: BRANCH   2  18
DOCKED: ATOM     18  C   UNL     1     -51.435 -35.191  -1.058 -0.13 +0.00    +0.006 A  
DOCKED: ATOM     19  C   UNL     1     -50.776 -36.176  -1.791 -0.13 +0.00    +0.001 A  
DOCKED: ATOM     20  C   UNL     1     -50.976 -36.269  -3.169 -0.15 +0.00    +0.029 A  
DOCKED: ATOM     21  C   UNL     1     -51.834 -35.377  -3.811 -0.18 +0.00    +0.140 A  
DOCKED: ATOM     22  C   UNL     1     -52.493 -34.391  -3.076 -0.22 +0.00    +0.029 A  
DOCKED: ATOM     23  F   UNL     1     -52.027 -35.467  -5.133 -0.07 -0.00    -0.204 F  
DOCKED: ATOM     24  C   UNL     1     -52.294 -34.298  -1.698 -0.19 +0.00    +0.001 A  
DOCKED: ENDBRANCH   2  18
DOCKED: TORSDOF 5
DOCKED: TER
DOCKED: ENDMDL
________________________________________________________________________________


    FINAL DOCKED STATE:
    ________________________


Run:   66 / 512
Time taken for this run:   0.002s

DOCKED: MODEL        66
DOCKED: USER    Run = 66
DOCKED: USER
DOCKED: USER    Estimated Free Energy of Binding    =  -3.48 kcal/mol  [=(1)+(2)+(3)-(4)]
DOCKED: USER
DOCKED: USER    (1) Final Intermolecular Energy     =  -4.97 kcal/mol
DOCKED: USER        vdW + Hbond + desolv Energy     =  -4.97 kcal/mol
DOCKED: USER        Electrostatic Energy            =  +0.00 kcal/mol
DOCKED: USER        Moving Ligand-Fixed Receptor    =  -4.97 kcal/mol
DOCKED: USER        Moving Ligand-Moving Receptor   =  +0.00 kcal/mol
DOCKED: USER    (2) Final Total Internal Energy     =  -1.32 kcal/mol
DOCKED: USER    (3) Torsional Free Energy           =  +1.49 kcal/mol
DOCKED: USER    (4) Unbound System's Energy         =  -1.32 kcal/mol
DOCKED: USER
DOCKED: USER
DOCKED: REMARK  5 active torsions:
DOCKED: REMARK  status: ('A' for Active; 'I' for Inactive)
DOCKED: REMARK    1  A    between atoms: C_2  and  C_19 
DOCKED: REMARK    2  A    between atoms: C_2  and  C_11 
DOCKED: REMARK    3  A    between atoms: C_19  and  C_20 
DOCKED: REMARK    4  A    between atoms: C_20  and  C_21 
DOCKED: REMARK    5  A    between atoms: C_21  and  N_22 
DOCKED: USER                              x       y       z     vdW  Elec       q    Type
DOCKED: USER                           _______ _______ _______ _____ _____    ______ ____
DOCKED: ROOT
DOCKED: ATOM      1  O   UNL     1     -52.040 -33.527   1.706 +0.00 -0.00    -0.346 OA 
DOCKED: ATOM      2  C   UNL     1     -52.318 -34.506   0.654 -0.13 +0.00    +0.130 C  
DOCKED: ATOM      3  C   UNL     1     -52.217 -35.828   1.358 -0.21 +0.00    +0.004 A  
DOCKED: ATOM      4  C   UNL     1     -52.010 -35.621   2.715 -0.17 +0.00    +0.006 A  
DOCKED: ATOM      5  C   UNL     1     -51.972 -34.169   3.001 -0.08 +0.00    +0.169 C  
DOCKED: ATOM      6  C   UNL     1     -52.313 -37.112   0.842 -0.10 -0.00    -0.001 A  
DOCKED: ATOM      7  C   UNL     1     -51.887 -36.681   3.596 -0.16 +0.00    +0.008 A  
DOCKED: ATOM      8  C   UNL     1     -52.187 -38.193   1.717 -0.32 +0.00    +0.010 A  
DOCKED: ATOM      9  C   UNL     1     -51.976 -37.978   3.087 -0.24 +0.00    +0.068 A  
DOCKED: ATOM     10  N   UNL     1     -51.751 -40.005   4.684 -2.19 -0.00    -0.191 NA 
DOCKED: ATOM     11  C   UNL     1     -51.851 -39.096   3.968 -0.13 +0.00    +0.101 C  
DOCKED: ENDROOT
DOCKED: BRANCH   2  12
DOCKED: ATOM     12  C   UNL     1     -53.711 -34.235   0.098 -0.23 +0.00    +0.038 C  
DOCKED: BRANCH  12  13
DOCKED: ATOM     13  C   UNL     1     -54.483 -33.258   0.983 -0.24 +0.00    +0.038 C  
DOCKED: BRANCH  13  14
DOCKED: ATOM     14  C   UNL     1     -54.969 -32.054   0.178 -0.15 +0.00    +0.251 C  
DOCKED: BRANCH  14  15
DOCKED: ATOM     15  N   UNL     1     -53.836 -31.337  -0.395 -0.11 +0.00    +0.141 N  
DOCKED: ATOM     16  C   UNL     1     -54.084 -31.023  -1.803 -0.15 +0.00    +0.285 C  
DOCKED: ATOM     17  C   UNL     1     -53.567 -30.111   0.358 -0.08 +0.00    +0.285 C  
DOCKED: ENDBRANCH  14  15
DOCKED: ENDBRANCH  13  14
DOCKED: ENDBRANCH  12  13
DOCKED: ENDBRANCH   2  12
DOCKED: BRANCH   2  18
DOCKED: ATOM     18  C   UNL     1     -51.274 -34.326  -0.397 -0.08 +0.00    +0.006 A  
DOCKED: ATOM     19  C   UNL     1     -49.988 -33.925  -0.039 -0.02 +0.00    +0.001 A  
DOCKED: ATOM     20  C   UNL     1     -49.013 -33.757  -1.023 -0.00 +0.00    +0.029 A  
DOCKED: ATOM     21  C   UNL     1     -49.325 -33.990  -2.362 -0.01 +0.00    +0.140 A  
DOCKED: ATOM     22  C   UNL     1     -50.612 -34.391  -2.719 -0.06 +0.00    +0.029 A  
DOCKED: ATOM     23  F   UNL     1     -48.389 -33.830  -3.306 +0.00 -0.00    -0.204 F  
DOCKED: ATOM     24  C   UNL     1     -51.589 -34.559  -1.735 -0.14 +0.00    +0.001 A  
DOCKED: ENDBRANCH   2  18
DOCKED: TORSDOF 5
DOCKED: TER
DOCKED: ENDMDL
________________________________________________________________________________


    FINAL DOCKED STATE:
    ________________________


Run:   67 / 512
Time taken for this run:   0.002s

DOCKED: MODEL        67
DOCKED: USER    Run = 67
DOCKED: USER
DOCKED: USER    Estimated Free Energy of Binding    =  -4.06 kcal/mol  [=(1)+(2)+(3)-(4)]
DOCKED: USER
DOCKED: USER    (1) Final Intermolecular Energy     =  -5.55 kcal/mol
DOCKED: USER        vdW + Hbond + desolv Energy     =  -5.55 kcal/mol
DOCKED: USER        Electrostatic Energy            =  +0.00 kcal/mol
DOCKED: USER        Moving Ligand-Fixed Receptor    =  -5.55 kcal/mol
DOCKED: USER        Moving Ligand-Moving Receptor   =  +0.00 kcal/mol
DOCKED: USER    (2) Final Total Internal Energy     =  -1.03 kcal/mol
DOCKED: USER    (3) Torsional Free Energy           =  +1.49 kcal/mol
DOCKED: USER    (4) Unbound System's Energy         =  -1.03 kcal/mol
DOCKED: USER
DOCKED: USER
DOCKED: REMARK  5 active torsions:
DOCKED: REMARK  status: ('A' for Active; 'I' for Inactive)
DOCKED: REMARK    1  A    between atoms: C_2  and  C_19 
DOCKED: REMARK    2  A    between atoms: C_2  and  C_11 
DOCKED: REMARK    3  A    between atoms: C_19  and  C_20 
DOCKED: REMARK    4  A    between atoms: C_20  and  C_21 
DOCKED: REMARK    5  A    between atoms: C_21  and  N_22 
DOCKED: USER                              x       y       z     vdW  Elec       q    Type
DOCKED: USER                           _______ _______ _______ _____ _____    ______ ____
DOCKED: ROOT
DOCKED: ATOM      1  O   UNL     1     -57.595 -33.641   7.376 -0.05 -0.00    -0.346 OA 
DOCKED: ATOM      2  C   UNL     1     -56.546 -34.593   7.743 -0.13 +0.00    +0.130 C  
DOCKED: ATOM      3  C   UNL     1     -57.095 -35.919   7.302 -0.22 +0.00    +0.004 A  
DOCKED: ATOM      4  C   UNL     1     -58.300 -35.730   6.641 -0.26 +0.00    +0.006 A  
DOCKED: ATOM      5  C   UNL     1     -58.622 -34.286   6.588 -0.17 +0.00    +0.169 C  
DOCKED: ATOM      6  C   UNL     1     -56.563 -37.191   7.462 -0.21 -0.00    -0.001 A  
DOCKED: ATOM      7  C   UNL     1     -59.014 -36.797   6.124 -0.30 +0.00    +0.008 A  
DOCKED: ATOM      8  C   UNL     1     -57.274 -38.278   6.951 -0.34 +0.00    +0.010 A  
DOCKED: ATOM      9  C   UNL     1     -58.493 -38.082   6.285 -0.30 +0.00    +0.068 A  
DOCKED: ATOM     10  N   UNL     1     -59.784 -40.121   5.344 -2.56 -0.00    -0.191 NA 
DOCKED: ATOM     11  C   UNL     1     -59.205 -39.207   5.767 -0.37 +0.00    +0.101 C  
DOCKED: ENDROOT
DOCKED: BRANCH   2  12
DOCKED: ATOM     12  C   UNL     1     -55.266 -34.207   7.012 -0.15 +0.00    +0.038 C  
DOCKED: BRANCH  12  13
DOCKED: ATOM     13  C   UNL     1     -55.524 -33.969   5.525 -0.06 +0.00    +0.038 C  
DOCKED: BRANCH  13  14
DOCKED: ATOM     14  C   UNL     1     -55.386 -32.489   5.173 -0.08 +0.00    +0.251 C  
DOCKED: BRANCH  14  15
DOCKED: ATOM     15  N   UNL     1     -54.892 -32.336   3.810 -0.10 +0.00    +0.141 N  
DOCKED: ATOM     16  C   UNL     1     -54.408 -30.973   3.586 -0.04 +0.00    +0.285 C  
DOCKED: ATOM     17  C   UNL     1     -53.829 -33.304   3.534 -0.10 +0.00    +0.285 C  
DOCKED: ENDBRANCH  14  15
DOCKED: ENDBRANCH  13  14
DOCKED: ENDBRANCH  12  13
DOCKED: ENDBRANCH   2  12
DOCKED: BRANCH   2  18
DOCKED: ATOM     18  C   UNL     1     -56.371 -34.499   9.222 -0.04 +0.00    +0.006 A  
DOCKED: ATOM     19  C   UNL     1     -57.423 -34.056  10.022 -0.02 +0.00    +0.001 A  
DOCKED: ATOM     20  C   UNL     1     -57.257 -33.969  11.405 -0.00 +0.00    +0.029 A  
DOCKED: ATOM     21  C   UNL     1     -56.041 -34.325  11.985 -0.00 +0.00    +0.140 A  
DOCKED: ATOM     22  C   UNL     1     -54.989 -34.768  11.184 -0.01 +0.00    +0.029 A  
DOCKED: ATOM     23  F   UNL     1     -55.883 -34.242  13.312 +0.00 -0.00    -0.204 F  
DOCKED: ATOM     24  C   UNL     1     -55.153 -34.856   9.801 -0.04 +0.00    +0.001 A  
DOCKED: ENDBRANCH   2  18
DOCKED: TORSDOF 5
DOCKED: TER
DOCKED: ENDMDL
________________________________________________________________________________


    FINAL DOCKED STATE:
    ________________________


Run:   68 / 512
Time taken for this run:   0.002s

DOCKED: MODEL        68
DOCKED: USER    Run = 68
DOCKED: USER
DOCKED: USER    Estimated Free Energy of Binding    =  -3.95 kcal/mol  [=(1)+(2)+(3)-(4)]
DOCKED: USER
DOCKED: USER    (1) Final Intermolecular Energy     =  -5.44 kcal/mol
DOCKED: USER        vdW + Hbond + desolv Energy     =  -5.44 kcal/mol
DOCKED: USER        Electrostatic Energy            =  +0.00 kcal/mol
DOCKED: USER        Moving Ligand-Fixed Receptor    =  -5.44 kcal/mol
DOCKED: USER        Moving Ligand-Moving Receptor   =  +0.00 kcal/mol
DOCKED: USER    (2) Final Total Internal Energy     =  -1.55 kcal/mol
DOCKED: USER    (3) Torsional Free Energy           =  +1.49 kcal/mol
DOCKED: USER    (4) Unbound System's Energy         =  -1.55 kcal/mol
DOCKED: USER
DOCKED: USER
DOCKED: REMARK  5 active torsions:
DOCKED: REMARK  status: ('A' for Active; 'I' for Inactive)
DOCKED: REMARK    1  A    between atoms: C_2  and  C_19 
DOCKED: REMARK    2  A    between atoms: C_2  and  C_11 
DOCKED: REMARK    3  A    between atoms: C_19  and  C_20 
DOCKED: REMARK    4  A    between atoms: C_20  and  C_21 
DOCKED: REMARK    5  A    between atoms: C_21  and  N_22 
DOCKED: USER                              x       y       z     vdW  Elec       q    Type
DOCKED: USER                           _______ _______ _______ _____ _____    ______ ____
DOCKED: ROOT
DOCKED: ATOM      1  O   UNL     1     -59.772 -33.630   7.700 -0.05 -0.00    -0.346 OA 
DOCKED: ATOM      2  C   UNL     1     -58.379 -33.985   7.424 -0.15 +0.00    +0.130 C  
DOCKED: ATOM      3  C   UNL     1     -58.457 -35.410   6.958 -0.23 +0.00    +0.004 A  
DOCKED: ATOM      4  C   UNL     1     -59.786 -35.801   6.869 -0.23 +0.00    +0.006 A  
DOCKED: ATOM      5  C   UNL     1     -60.667 -34.675   7.252 -0.18 +0.00    +0.169 C  
DOCKED: ATOM      6  C   UNL     1     -57.434 -36.287   6.628 -0.26 -0.00    -0.001 A  
DOCKED: ATOM      7  C   UNL     1     -60.137 -37.074   6.454 -0.24 +0.00    +0.008 A  
DOCKED: ATOM      8  C   UNL     1     -57.772 -37.576   6.212 -0.32 +0.00    +0.010 A  
DOCKED: ATOM      9  C   UNL     1     -59.116 -37.967   6.125 -0.28 +0.00    +0.068 A  
DOCKED: ATOM     10  N   UNL     1     -59.708 -40.366   5.344 -2.56 -0.00    -0.191 NA 
DOCKED: ATOM     11  C   UNL     1     -59.443 -39.290   5.695 -0.36 +0.00    +0.101 C  
DOCKED: ENDROOT
DOCKED: BRANCH   2  12
DOCKED: ATOM     12  C   UNL     1     -57.843 -33.040   6.356 -0.12 +0.00    +0.038 C  
DOCKED: BRANCH  12  13
DOCKED: ATOM     13  C   UNL     1     -58.809 -31.886   6.098 -0.18 +0.00    +0.038 C  
DOCKED: BRANCH  13  14
DOCKED: ATOM     14  C   UNL     1     -58.621 -30.771   7.125 -0.05 +0.00    +0.251 C  
DOCKED: BRANCH  14  15
DOCKED: ATOM     15  N   UNL     1     -59.899 -30.420   7.734 -0.03 +0.00    +0.141 N  
DOCKED: ATOM     16  C   UNL     1     -61.009 -30.967   6.952 -0.07 +0.00    +0.285 C  
DOCKED: ATOM     17  C   UNL     1     -59.963 -30.903   9.114 -0.00 +0.00    +0.285 C  
DOCKED: ENDBRANCH  14  15
DOCKED: ENDBRANCH  13  14
DOCKED: ENDBRANCH  12  13
DOCKED: ENDBRANCH   2  12
DOCKED: BRANCH   2  18
DOCKED: ATOM     18  C   UNL     1     -57.628 -33.833   8.705 -0.05 +0.00    +0.006 A  
DOCKED: ATOM     19  C   UNL     1     -58.161 -34.339   9.890 -0.02 +0.00    +0.001 A  
DOCKED: ATOM     20  C   UNL     1     -57.458 -34.195  11.086 -0.00 +0.00    +0.029 A  
DOCKED: ATOM     21  C   UNL     1     -56.224 -33.547  11.097 -0.00 +0.00    +0.140 A  
DOCKED: ATOM     22  C   UNL     1     -55.691 -33.041   9.911 -0.01 +0.00    +0.029 A  
DOCKED: ATOM     23  F   UNL     1     -55.548 -33.411  12.245 -0.00 -0.00    -0.204 F  
DOCKED: ATOM     24  C   UNL     1     -56.394 -33.184   8.713 -0.04 +0.00    +0.001 A  
DOCKED: ENDBRANCH   2  18
DOCKED: TORSDOF 5
DOCKED: TER
DOCKED: ENDMDL
________________________________________________________________________________


    FINAL DOCKED STATE:
    ________________________


Run:   69 / 512
Time taken for this run:   0.002s

DOCKED: MODEL        69
DOCKED: USER    Run = 69
DOCKED: USER
DOCKED: USER    Estimated Free Energy of Binding    =  -4.81 kcal/mol  [=(1)+(2)+(3)-(4)]
DOCKED: USER
DOCKED: USER    (1) Final Intermolecular Energy     =  -6.30 kcal/mol
DOCKED: USER        vdW + Hbond + desolv Energy     =  -6.30 kcal/mol
DOCKED: USER        Electrostatic Energy            =  +0.00 kcal/mol
DOCKED: USER        Moving Ligand-Fixed Receptor    =  -6.30 kcal/mol
DOCKED: USER        Moving Ligand-Moving Receptor   =  +0.00 kcal/mol
DOCKED: USER    (2) Final Total Internal Energy     =  -1.05 kcal/mol
DOCKED: USER    (3) Torsional Free Energy           =  +1.49 kcal/mol
DOCKED: USER    (4) Unbound System's Energy         =  -1.05 kcal/mol
DOCKED: USER
DOCKED: USER
DOCKED: REMARK  5 active torsions:
DOCKED: REMARK  status: ('A' for Active; 'I' for Inactive)
DOCKED: REMARK    1  A    between atoms: C_2  and  C_19 
DOCKED: REMARK    2  A    between atoms: C_2  and  C_11 
DOCKED: REMARK    3  A    between atoms: C_19  and  C_20 
DOCKED: REMARK    4  A    between atoms: C_20  and  C_21 
DOCKED: REMARK    5  A    between atoms: C_21  and  N_22 
DOCKED: USER                              x       y       z     vdW  Elec       q    Type
DOCKED: USER                           _______ _______ _______ _____ _____    ______ ____
DOCKED: ROOT
DOCKED: ATOM      1  O   UNL     1     -55.868 -29.929   0.969 -0.11 -0.00    -0.346 OA 
DOCKED: ATOM      2  C   UNL     1     -54.571 -29.917   0.292 -0.18 +0.00    +0.130 C  
DOCKED: ATOM      3  C   UNL     1     -54.857 -29.248  -1.022 -0.26 +0.00    +0.004 A  
DOCKED: ATOM      4  C   UNL     1     -56.176 -28.816  -1.048 -0.19 +0.00    +0.006 A  
DOCKED: ATOM      5  C   UNL     1     -56.840 -29.152   0.231 -0.16 +0.00    +0.169 C  
DOCKED: ATOM      6  C   UNL     1     -54.015 -29.029  -2.102 -0.22 -0.00    -0.001 A  
DOCKED: ATOM      7  C   UNL     1     -56.696 -28.158  -2.149 -0.33 +0.00    +0.008 A  
DOCKED: ATOM      8  C   UNL     1     -54.526 -28.371  -3.222 -0.27 +0.00    +0.010 A  
DOCKED: ATOM      9  C   UNL     1     -55.860 -27.938  -3.245 -0.29 +0.00    +0.068 A  
DOCKED: ATOM     10  N   UNL     1     -56.776 -26.715  -5.337 -2.49 -0.00    -0.191 NA 
DOCKED: ATOM     11  C   UNL     1     -56.366 -27.264  -4.399 -0.38 +0.00    +0.101 C  
DOCKED: ENDROOT
DOCKED: BRANCH   2  12
DOCKED: ATOM     12  C   UNL     1     -53.584 -29.137   1.152 -0.17 +0.00    +0.038 C  
DOCKED: BRANCH  12  13
DOCKED: ATOM     13  C   UNL     1     -52.268 -28.899   0.415 -0.13 +0.00    +0.038 C  
DOCKED: BRANCH  13  14
DOCKED: ATOM     14  C   UNL     1     -51.077 -29.353   1.257 -0.04 +0.00    +0.251 C  
DOCKED: BRANCH  14  15
DOCKED: ATOM     15  N   UNL     1     -50.162 -30.153   0.451 -0.01 +0.00    +0.141 N  
DOCKED: ATOM     16  C   UNL     1     -48.862 -29.490   0.335 -0.00 +0.00    +0.285 C  
DOCKED: ATOM     17  C   UNL     1     -50.000 -31.489   1.029 -0.00 +0.00    +0.285 C  
DOCKED: ENDBRANCH  14  15
DOCKED: ENDBRANCH  13  14
DOCKED: ENDBRANCH  12  13
DOCKED: ENDBRANCH   2  12
DOCKED: BRANCH   2  18
DOCKED: ATOM     18  C   UNL     1     -54.145 -31.339   0.139 -0.15 +0.00    +0.006 A  
DOCKED: ATOM     19  C   UNL     1     -54.726 -32.329   0.931 -0.19 +0.00    +0.001 A  
DOCKED: ATOM     20  C   UNL     1     -54.327 -33.658   0.788 -0.23 +0.00    +0.029 A  
DOCKED: ATOM     21  C   UNL     1     -53.349 -33.996  -0.147 -0.17 +0.00    +0.140 A  
DOCKED: ATOM     22  C   UNL     1     -52.769 -33.005  -0.939 -0.14 +0.00    +0.029 A  
DOCKED: ATOM     23  F   UNL     1     -52.967 -35.272  -0.285 -0.08 -0.00    -0.204 F  
DOCKED: ATOM     24  C   UNL     1     -53.167 -31.675  -0.796 -0.11 +0.00    +0.001 A  
DOCKED: ENDBRANCH   2  18
DOCKED: TORSDOF 5
DOCKED: TER
DOCKED: ENDMDL
________________________________________________________________________________


    FINAL DOCKED STATE:
    ________________________


Run:   70 / 512
Time taken for this run:   0.002s

DOCKED: MODEL        70
DOCKED: USER    Run = 70
DOCKED: USER
DOCKED: USER    Estimated Free Energy of Binding    =  -3.40 kcal/mol  [=(1)+(2)+(3)-(4)]
DOCKED: USER
DOCKED: USER    (1) Final Intermolecular Energy     =  -4.89 kcal/mol
DOCKED: USER        vdW + Hbond + desolv Energy     =  -4.89 kcal/mol
DOCKED: USER        Electrostatic Energy            =  +0.00 kcal/mol
DOCKED: USER        Moving Ligand-Fixed Receptor    =  -4.89 kcal/mol
DOCKED: USER        Moving Ligand-Moving Receptor   =  +0.00 kcal/mol
DOCKED: USER    (2) Final Total Internal Energy     =  -1.33 kcal/mol
DOCKED: USER    (3) Torsional Free Energy           =  +1.49 kcal/mol
DOCKED: USER    (4) Unbound System's Energy         =  -1.33 kcal/mol
DOCKED: USER
DOCKED: USER
DOCKED: REMARK  5 active torsions:
DOCKED: REMARK  status: ('A' for Active; 'I' for Inactive)
DOCKED: REMARK    1  A    between atoms: C_2  and  C_19 
DOCKED: REMARK    2  A    between atoms: C_2  and  C_11 
DOCKED: REMARK    3  A    between atoms: C_19  and  C_20 
DOCKED: REMARK    4  A    between atoms: C_20  and  C_21 
DOCKED: REMARK    5  A    between atoms: C_21  and  N_22 
DOCKED: USER                              x       y       z     vdW  Elec       q    Type
DOCKED: USER                           _______ _______ _______ _____ _____    ______ ____
DOCKED: ROOT
DOCKED: ATOM      1  O   UNL     1     -60.716 -34.304   8.521 -0.01 -0.00    -0.346 OA 
DOCKED: ATOM      2  C   UNL     1     -59.310 -34.284   8.114 -0.10 +0.00    +0.130 C  
DOCKED: ATOM      3  C   UNL     1     -59.121 -35.595   7.408 -0.19 +0.00    +0.004 A  
DOCKED: ATOM      4  C   UNL     1     -60.337 -36.258   7.321 -0.19 +0.00    +0.006 A  
DOCKED: ATOM      5  C   UNL     1     -61.402 -35.439   7.943 -0.11 +0.00    +0.169 C  
DOCKED: ATOM      6  C   UNL     1     -57.968 -36.152   6.875 -0.27 -0.00    -0.001 A  
DOCKED: ATOM      7  C   UNL     1     -60.442 -37.494   6.707 -0.23 +0.00    +0.008 A  
DOCKED: ATOM      8  C   UNL     1     -58.056 -37.400   6.256 -0.33 +0.00    +0.010 A  
DOCKED: ATOM      9  C   UNL     1     -59.287 -38.067   6.172 -0.27 +0.00    +0.068 A  
DOCKED: ATOM     10  N   UNL     1     -59.417 -40.380   5.012 -2.40 -0.00    -0.191 NA 
DOCKED: ATOM     11  C   UNL     1     -59.358 -39.343   5.533 -0.38 +0.00    +0.101 C  
DOCKED: ENDROOT
DOCKED: BRANCH   2  12
DOCKED: ATOM     12  C   UNL     1     -59.089 -33.082   7.203 -0.18 +0.00    +0.038 C  
DOCKED: BRANCH  12  13
DOCKED: ATOM     13  C   UNL     1     -60.007 -31.921   7.580 -0.11 +0.00    +0.038 C  
DOCKED: BRANCH  13  14
DOCKED: ATOM     14  C   UNL     1     -59.206 -30.641   7.813 -0.02 +0.00    +0.251 C  
DOCKED: BRANCH  14  15
DOCKED: ATOM     15  N   UNL     1     -58.965 -30.445   9.238 -0.01 +0.00    +0.141 N  
DOCKED: ATOM     16  C   UNL     1     -58.291 -29.168   9.477 -0.00 +0.00    +0.285 C  
DOCKED: ATOM     17  C   UNL     1     -60.223 -30.503   9.986 -0.00 +0.00    +0.285 C  
DOCKED: ENDBRANCH  14  15
DOCKED: ENDBRANCH  13  14
DOCKED: ENDBRANCH  12  13
DOCKED: ENDBRANCH   2  12
DOCKED: BRANCH   2  18
DOCKED: ATOM     18  C   UNL     1     -58.497 -34.172   9.360 -0.03 +0.00    +0.006 A  
DOCKED: ATOM     19  C   UNL     1     -57.440 -33.264   9.423 -0.02 +0.00    +0.001 A  
DOCKED: ATOM     20  C   UNL     1     -56.680 -33.161  10.589 -0.01 +0.00    +0.029 A  
DOCKED: ATOM     21  C   UNL     1     -56.978 -33.963  11.689 -0.00 +0.00    +0.140 A  
DOCKED: ATOM     22  C   UNL     1     -58.035 -34.870  11.626 -0.00 +0.00    +0.029 A  
DOCKED: ATOM     23  F   UNL     1     -56.249 -33.862  12.808 -0.00 -0.00    -0.204 F  
DOCKED: ATOM     24  C   UNL     1     -58.796 -34.975  10.460 -0.02 +0.00    +0.001 A  
DOCKED: ENDBRANCH   2  18
DOCKED: TORSDOF 5
DOCKED: TER
DOCKED: ENDMDL
________________________________________________________________________________


    FINAL DOCKED STATE:
    ________________________


Run:   71 / 512
Time taken for this run:   0.002s

DOCKED: MODEL        71
DOCKED: USER    Run = 71
DOCKED: USER
DOCKED: USER    Estimated Free Energy of Binding    =  -3.57 kcal/mol  [=(1)+(2)+(3)-(4)]
DOCKED: USER
DOCKED: USER    (1) Final Intermolecular Energy     =  -5.06 kcal/mol
DOCKED: USER        vdW + Hbond + desolv Energy     =  -5.06 kcal/mol
DOCKED: USER        Electrostatic Energy            =  +0.00 kcal/mol
DOCKED: USER        Moving Ligand-Fixed Receptor    =  -5.06 kcal/mol
DOCKED: USER        Moving Ligand-Moving Receptor   =  +0.00 kcal/mol
DOCKED: USER    (2) Final Total Internal Energy     =  -1.32 kcal/mol
DOCKED: USER    (3) Torsional Free Energy           =  +1.49 kcal/mol
DOCKED: USER    (4) Unbound System's Energy         =  -1.32 kcal/mol
DOCKED: USER
DOCKED: USER
DOCKED: REMARK  5 active torsions:
DOCKED: REMARK  status: ('A' for Active; 'I' for Inactive)
DOCKED: REMARK    1  A    between atoms: C_2  and  C_19 
DOCKED: REMARK    2  A    between atoms: C_2  and  C_11 
DOCKED: REMARK    3  A    between atoms: C_19  and  C_20 
DOCKED: REMARK    4  A    between atoms: C_20  and  C_21 
DOCKED: REMARK    5  A    between atoms: C_21  and  N_22 
DOCKED: USER                              x       y       z     vdW  Elec       q    Type
DOCKED: USER                           _______ _______ _______ _____ _____    ______ ____
DOCKED: ROOT
DOCKED: ATOM      1  O   UNL     1     -49.193 -35.655   0.057 +0.01 -0.00    -0.346 OA 
DOCKED: ATOM      2  C   UNL     1     -50.642 -35.459   0.017 -0.07 +0.00    +0.130 C  
DOCKED: ATOM      3  C   UNL     1     -51.172 -36.509   0.951 -0.13 +0.00    +0.004 A  
DOCKED: ATOM      4  C   UNL     1     -50.115 -37.172   1.556 -0.08 +0.00    +0.006 A  
DOCKED: ATOM      5  C   UNL     1     -48.831 -36.609   1.082 -0.02 +0.00    +0.169 C  
DOCKED: ATOM      6  C   UNL     1     -52.486 -36.841   1.249 -0.27 -0.00    -0.001 A  
DOCKED: ATOM      7  C   UNL     1     -50.331 -38.188   2.472 -0.15 +0.00    +0.008 A  
DOCKED: ATOM      8  C   UNL     1     -52.720 -37.866   2.167 -0.31 +0.00    +0.010 A  
DOCKED: ATOM      9  C   UNL     1     -51.648 -38.536   2.776 -0.28 +0.00    +0.068 A  
DOCKED: ATOM     10  N   UNL     1     -52.118 -40.431   4.479 -2.40 -0.00    -0.191 NA 
DOCKED: ATOM     11  C   UNL     1     -51.907 -39.581   3.714 -0.33 +0.00    +0.101 C  
DOCKED: ENDROOT
DOCKED: BRANCH   2  12
DOCKED: ATOM     12  C   UNL     1     -50.951 -34.041   0.481 -0.05 +0.00    +0.038 C  
DOCKED: BRANCH  12  13
DOCKED: ATOM     13  C   UNL     1     -51.011 -33.954   2.005 -0.04 +0.00    +0.038 C  
DOCKED: BRANCH  13  14
DOCKED: ATOM     14  C   UNL     1     -49.613 -33.807   2.602 -0.01 +0.00    +0.251 C  
DOCKED: BRANCH  14  15
DOCKED: ATOM     15  N   UNL     1     -48.825 -32.861   1.821 -0.00 +0.00    +0.141 N  
DOCKED: ATOM     16  C   UNL     1     -48.868 -31.529   2.427 +0.00 +0.00    +0.285 C  
DOCKED: ATOM     17  C   UNL     1     -47.440 -33.319   1.701 +0.00 +0.00    +0.285 C  
DOCKED: ENDBRANCH  14  15
DOCKED: ENDBRANCH  13  14
DOCKED: ENDBRANCH  12  13
DOCKED: ENDBRANCH   2  12
DOCKED: BRANCH   2  18
DOCKED: ATOM     18  C   UNL     1     -51.072 -35.668  -1.397 -0.12 +0.00    +0.006 A  
DOCKED: ATOM     19  C   UNL     1     -50.567 -36.744  -2.127 -0.12 +0.00    +0.001 A  
DOCKED: ATOM     20  C   UNL     1     -50.970 -36.938  -3.449 -0.08 +0.00    +0.029 A  
DOCKED: ATOM     21  C   UNL     1     -51.876 -36.057  -4.038 -0.15 +0.00    +0.140 A  
DOCKED: ATOM     22  C   UNL     1     -52.380 -34.982  -3.307 -0.20 +0.00    +0.029 A  
DOCKED: ATOM     23  F   UNL     1     -52.263 -36.245  -5.306 -0.10 -0.00    -0.204 F  
DOCKED: ATOM     24  C   UNL     1     -51.978 -34.787  -1.985 -0.18 +0.00    +0.001 A  
DOCKED: ENDBRANCH   2  18
DOCKED: TORSDOF 5
DOCKED: TER
DOCKED: ENDMDL
________________________________________________________________________________


    FINAL DOCKED STATE:
    ________________________


Run:   72 / 512
Time taken for this run:   0.002s

DOCKED: MODEL        72
DOCKED: USER    Run = 72
DOCKED: USER
DOCKED: USER    Estimated Free Energy of Binding    =  -4.21 kcal/mol  [=(1)+(2)+(3)-(4)]
DOCKED: USER
DOCKED: USER    (1) Final Intermolecular Energy     =  -5.71 kcal/mol
DOCKED: USER        vdW + Hbond + desolv Energy     =  -5.71 kcal/mol
DOCKED: USER        Electrostatic Energy            =  +0.00 kcal/mol
DOCKED: USER        Moving Ligand-Fixed Receptor    =  -5.71 kcal/mol
DOCKED: USER        Moving Ligand-Moving Receptor   =  +0.00 kcal/mol
DOCKED: USER    (2) Final Total Internal Energy     =  -1.20 kcal/mol
DOCKED: USER    (3) Torsional Free Energy           =  +1.49 kcal/mol
DOCKED: USER    (4) Unbound System's Energy         =  -1.20 kcal/mol
DOCKED: USER
DOCKED: USER
DOCKED: REMARK  5 active torsions:
DOCKED: REMARK  status: ('A' for Active; 'I' for Inactive)
DOCKED: REMARK    1  A    between atoms: C_2  and  C_19 
DOCKED: REMARK    2  A    between atoms: C_2  and  C_11 
DOCKED: REMARK    3  A    between atoms: C_19  and  C_20 
DOCKED: REMARK    4  A    between atoms: C_20  and  C_21 
DOCKED: REMARK    5  A    between atoms: C_21  and  N_22 
DOCKED: USER                              x       y       z     vdW  Elec       q    Type
DOCKED: USER                           _______ _______ _______ _____ _____    ______ ____
DOCKED: ROOT
DOCKED: ATOM      1  O   UNL     1     -50.081 -37.585  -1.751 -0.02 -0.00    -0.346 OA 
DOCKED: ATOM      2  C   UNL     1     -50.264 -36.541  -0.741 -0.09 +0.00    +0.130 C  
DOCKED: ATOM      3  C   UNL     1     -50.743 -37.290   0.468 -0.13 +0.00    +0.004 A  
DOCKED: ATOM      4  C   UNL     1     -50.730 -38.653   0.209 -0.16 +0.00    +0.006 A  
DOCKED: ATOM      5  C   UNL     1     -50.237 -38.898  -1.165 -0.09 +0.00    +0.169 C  
DOCKED: ATOM      6  C   UNL     1     -51.147 -36.804   1.703 -0.15 -0.00    -0.001 A  
DOCKED: ATOM      7  C   UNL     1     -51.122 -39.572   1.167 -0.27 +0.00    +0.008 A  
DOCKED: ATOM      8  C   UNL     1     -51.550 -37.718   2.678 -0.25 +0.00    +0.010 A  
DOCKED: ATOM      9  C   UNL     1     -51.537 -39.095   2.411 -0.30 +0.00    +0.068 A  
DOCKED: ATOM     10  N   UNL     1     -52.286 -40.766   4.245 -2.68 -0.00    -0.191 NA 
DOCKED: ATOM     11  C   UNL     1     -51.950 -40.017   3.422 -0.40 +0.00    +0.101 C  
DOCKED: ENDROOT
DOCKED: BRANCH   2  12
DOCKED: ATOM     12  C   UNL     1     -48.925 -35.847  -0.518 -0.02 +0.00    +0.038 C  
DOCKED: BRANCH  12  13
DOCKED: ATOM     13  C   UNL     1     -48.931 -35.028   0.772 -0.01 +0.00    +0.038 C  
DOCKED: BRANCH  13  14
DOCKED: ATOM     14  C   UNL     1     -47.797 -35.458   1.700 -0.00 +0.00    +0.251 C  
DOCKED: BRANCH  14  15
DOCKED: ATOM     15  N   UNL     1     -47.725 -36.913   1.773 -0.01 +0.00    +0.141 N  
DOCKED: ATOM     16  C   UNL     1     -46.381 -37.381   1.429 -0.00 +0.00    +0.285 C  
DOCKED: ATOM     17  C   UNL     1     -48.099 -37.382   3.108 -0.00 +0.00    +0.285 C  
DOCKED: ENDBRANCH  14  15
DOCKED: ENDBRANCH  13  14
DOCKED: ENDBRANCH  12  13
DOCKED: ENDBRANCH   2  12
DOCKED: BRANCH   2  18
DOCKED: ATOM     18  C   UNL     1     -51.281 -35.589  -1.277 -0.12 +0.00    +0.006 A  
DOCKED: ATOM     19  C   UNL     1     -51.997 -34.770  -0.404 -0.15 +0.00    +0.001 A  
DOCKED: ATOM     20  C   UNL     1     -52.948 -33.881  -0.906 -0.19 +0.00    +0.029 A  
DOCKED: ATOM     21  C   UNL     1     -53.181 -33.811  -2.279 -0.17 +0.00    +0.140 A  
DOCKED: ATOM     22  C   UNL     1     -52.464 -34.630  -3.151 -0.22 +0.00    +0.029 A  
DOCKED: ATOM     23  F   UNL     1     -54.092 -32.956  -2.761 -0.11 -0.00    -0.204 F  
DOCKED: ATOM     24  C   UNL     1     -51.513 -35.520  -2.650 -0.17 +0.00    +0.001 A  
DOCKED: ENDBRANCH   2  18
DOCKED: TORSDOF 5
DOCKED: TER
DOCKED: ENDMDL
________________________________________________________________________________


    FINAL DOCKED STATE:
    ________________________


Run:   73 / 512
Time taken for this run:   0.002s

DOCKED: MODEL        73
DOCKED: USER    Run = 73
DOCKED: USER
DOCKED: USER    Estimated Free Energy of Binding    =  -5.37 kcal/mol  [=(1)+(2)+(3)-(4)]
DOCKED: USER
DOCKED: USER    (1) Final Intermolecular Energy     =  -6.86 kcal/mol
DOCKED: USER        vdW + Hbond + desolv Energy     =  -6.86 kcal/mol
DOCKED: USER        Electrostatic Energy            =  +0.00 kcal/mol
DOCKED: USER        Moving Ligand-Fixed Receptor    =  -6.86 kcal/mol
DOCKED: USER        Moving Ligand-Moving Receptor   =  +0.00 kcal/mol
DOCKED: USER    (2) Final Total Internal Energy     =  -1.39 kcal/mol
DOCKED: USER    (3) Torsional Free Energy           =  +1.49 kcal/mol
DOCKED: USER    (4) Unbound System's Energy         =  -1.39 kcal/mol
DOCKED: USER
DOCKED: USER
DOCKED: REMARK  5 active torsions:
DOCKED: REMARK  status: ('A' for Active; 'I' for Inactive)
DOCKED: REMARK    1  A    between atoms: C_2  and  C_19 
DOCKED: REMARK    2  A    between atoms: C_2  and  C_11 
DOCKED: REMARK    3  A    between atoms: C_19  and  C_20 
DOCKED: REMARK    4  A    between atoms: C_20  and  C_21 
DOCKED: REMARK    5  A    between atoms: C_21  and  N_22 
DOCKED: USER                              x       y       z     vdW  Elec       q    Type
DOCKED: USER                           _______ _______ _______ _____ _____    ______ ____
DOCKED: ROOT
DOCKED: ATOM      1  O   UNL     1     -57.808 -36.060   7.814 -0.05 -0.00    -0.346 OA 
DOCKED: ATOM      2  C   UNL     1     -57.350 -37.450   7.861 -0.22 +0.00    +0.130 C  
DOCKED: ATOM      3  C   UNL     1     -57.835 -38.031   6.564 -0.34 +0.00    +0.004 A  
DOCKED: ATOM      4  C   UNL     1     -58.421 -37.036   5.796 -0.35 +0.00    +0.006 A  
DOCKED: ATOM      5  C   UNL     1     -58.354 -35.743   6.513 -0.23 +0.00    +0.169 C  
DOCKED: ATOM      6  C   UNL     1     -57.753 -39.335   6.098 -0.40 -0.00    -0.001 A  
DOCKED: ATOM      7  C   UNL     1     -58.946 -37.307   4.544 -0.09 +0.00    +0.008 A  
DOCKED: ATOM      8  C   UNL     1     -58.283 -39.626   4.839 -0.45 +0.00    +0.010 A  
DOCKED: ATOM      9  C   UNL     1     -58.876 -38.616   4.066 -0.43 +0.00    +0.068 A  
DOCKED: ATOM     10  N   UNL     1     -59.844 -39.188   1.732 -2.59 -0.00    -0.191 NA 
DOCKED: ATOM     11  C   UNL     1     -59.411 -38.932   2.779 -0.43 +0.00    +0.101 C  
DOCKED: ENDROOT
DOCKED: BRANCH   2  12
DOCKED: ATOM     12  C   UNL     1     -55.831 -37.453   7.981 -0.24 +0.00    +0.038 C  
DOCKED: BRANCH  12  13
DOCKED: ATOM     13  C   UNL     1     -55.378 -36.897   9.330 -0.16 +0.00    +0.038 C  
DOCKED: BRANCH  13  14
DOCKED: ATOM     14  C   UNL     1     -55.546 -35.379   9.382 -0.04 +0.00    +0.251 C  
DOCKED: BRANCH  14  15
DOCKED: ATOM     15  N   UNL     1     -56.591 -35.017  10.332 -0.02 +0.00    +0.141 N  
DOCKED: ATOM     16  C   UNL     1     -56.511 -35.854  11.531 -0.01 +0.00    +0.285 C  
DOCKED: ATOM     17  C   UNL     1     -56.492 -33.602  10.694 -0.00 +0.00    +0.285 C  
DOCKED: ENDBRANCH  14  15
DOCKED: ENDBRANCH  13  14
DOCKED: ENDBRANCH  12  13
DOCKED: ENDBRANCH   2  12
DOCKED: BRANCH   2  18
DOCKED: ATOM     18  C   UNL     1     -57.987 -38.079   9.055 -0.17 +0.00    +0.006 A  
DOCKED: ATOM     19  C   UNL     1     -57.374 -39.164   9.680 -0.13 +0.00    +0.001 A  
DOCKED: ATOM     20  C   UNL     1     -57.970 -39.752  10.796 -0.18 +0.00    +0.029 A  
DOCKED: ATOM     21  C   UNL     1     -59.177 -39.254  11.285 -0.11 +0.00    +0.140 A  
DOCKED: ATOM     22  C   UNL     1     -59.789 -38.169  10.659 -0.09 +0.00    +0.029 A  
DOCKED: ATOM     23  F   UNL     1     -59.748 -39.818  12.358 -0.03 -0.00    -0.204 F  
DOCKED: ATOM     24  C   UNL     1     -59.194 -37.580   9.542 -0.10 +0.00    +0.001 A  
DOCKED: ENDBRANCH   2  18
DOCKED: TORSDOF 5
DOCKED: TER
DOCKED: ENDMDL
________________________________________________________________________________


    FINAL DOCKED STATE:
    ________________________


Run:   74 / 512
Time taken for this run:   0.002s

DOCKED: MODEL        74
DOCKED: USER    Run = 74
DOCKED: USER
DOCKED: USER    Estimated Free Energy of Binding    =  -4.01 kcal/mol  [=(1)+(2)+(3)-(4)]
DOCKED: USER
DOCKED: USER    (1) Final Intermolecular Energy     =  -5.51 kcal/mol
DOCKED: USER        vdW + Hbond + desolv Energy     =  -5.51 kcal/mol
DOCKED: USER        Electrostatic Energy            =  +0.00 kcal/mol
DOCKED: USER        Moving Ligand-Fixed Receptor    =  -5.51 kcal/mol
DOCKED: USER        Moving Ligand-Moving Receptor   =  +0.00 kcal/mol
DOCKED: USER    (2) Final Total Internal Energy     =  -1.11 kcal/mol
DOCKED: USER    (3) Torsional Free Energy           =  +1.49 kcal/mol
DOCKED: USER    (4) Unbound System's Energy         =  -1.11 kcal/mol
DOCKED: USER
DOCKED: USER
DOCKED: REMARK  5 active torsions:
DOCKED: REMARK  status: ('A' for Active; 'I' for Inactive)
DOCKED: REMARK    1  A    between atoms: C_2  and  C_19 
DOCKED: REMARK    2  A    between atoms: C_2  and  C_11 
DOCKED: REMARK    3  A    between atoms: C_19  and  C_20 
DOCKED: REMARK    4  A    between atoms: C_20  and  C_21 
DOCKED: REMARK    5  A    between atoms: C_21  and  N_22 
DOCKED: USER                              x       y       z     vdW  Elec       q    Type
DOCKED: USER                           _______ _______ _______ _____ _____    ______ ____
DOCKED: ROOT
DOCKED: ATOM      1  O   UNL     1     -61.129 -33.874   7.748 -0.05 -0.00    -0.346 OA 
DOCKED: ATOM      2  C   UNL     1     -59.693 -34.058   7.965 -0.11 +0.00    +0.130 C  
DOCKED: ATOM      3  C   UNL     1     -59.427 -35.445   7.455 -0.18 +0.00    +0.004 A  
DOCKED: ATOM      4  C   UNL     1     -60.584 -35.966   6.894 -0.22 +0.00    +0.006 A  
DOCKED: ATOM      5  C   UNL     1     -61.677 -34.971   6.980 -0.18 +0.00    +0.169 C  
DOCKED: ATOM      6  C   UNL     1     -58.252 -36.182   7.475 -0.20 -0.00    -0.001 A  
DOCKED: ATOM      7  C   UNL     1     -60.609 -37.235   6.341 -0.24 +0.00    +0.008 A  
DOCKED: ATOM      8  C   UNL     1     -58.262 -37.465   6.925 -0.28 +0.00    +0.010 A  
DOCKED: ATOM      9  C   UNL     1     -59.434 -37.988   6.361 -0.24 +0.00    +0.068 A  
DOCKED: ATOM     10  N   UNL     1     -59.417 -40.372   5.345 -2.61 -0.00    -0.191 NA 
DOCKED: ATOM     11  C   UNL     1     -59.425 -39.303   5.801 -0.33 +0.00    +0.101 C  
DOCKED: ENDROOT
DOCKED: BRANCH   2  12
DOCKED: ATOM     12  C   UNL     1     -58.945 -32.984   7.183 -0.17 +0.00    +0.038 C  
DOCKED: BRANCH  12  13
DOCKED: ATOM     13  C   UNL     1     -59.832 -32.356   6.111 -0.18 +0.00    +0.038 C  
DOCKED: BRANCH  13  14
DOCKED: ATOM     14  C   UNL     1     -59.449 -30.898   5.865 -0.12 +0.00    +0.251 C  
DOCKED: BRANCH  14  15
DOCKED: ATOM     15  N   UNL     1     -60.641 -30.094   5.625 -0.11 +0.00    +0.141 N  
DOCKED: ATOM     16  C   UNL     1     -60.769 -29.771   4.203 -0.11 +0.00    +0.285 C  
DOCKED: ATOM     17  C   UNL     1     -61.838 -30.792   6.097 -0.09 +0.00    +0.285 C  
DOCKED: ENDBRANCH  14  15
DOCKED: ENDBRANCH  13  14
DOCKED: ENDBRANCH  12  13
DOCKED: ENDBRANCH   2  12
DOCKED: BRANCH   2  18
DOCKED: ATOM     18  C   UNL     1     -59.453 -33.922   9.432 -0.03 +0.00    +0.006 A  
DOCKED: ATOM     19  C   UNL     1     -58.796 -32.797   9.929 -0.01 +0.00    +0.001 A  
DOCKED: ATOM     20  C   UNL     1     -58.572 -32.672  11.300 -0.00 +0.00    +0.029 A  
DOCKED: ATOM     21  C   UNL     1     -59.005 -33.669  12.172 +0.00 +0.00    +0.140 A  
DOCKED: ATOM     22  C   UNL     1     -59.662 -34.794  11.674 -0.00 +0.00    +0.029 A  
DOCKED: ATOM     23  F   UNL     1     -58.791 -33.548  13.488 +0.00 -0.00    -0.204 F  
DOCKED: ATOM     24  C   UNL     1     -59.887 -34.921  10.302 -0.02 +0.00    +0.001 A  
DOCKED: ENDBRANCH   2  18
DOCKED: TORSDOF 5
DOCKED: TER
DOCKED: ENDMDL
________________________________________________________________________________


    FINAL DOCKED STATE:
    ________________________


Run:   75 / 512
Time taken for this run:   0.002s

DOCKED: MODEL        75
DOCKED: USER    Run = 75
DOCKED: USER
DOCKED: USER    Estimated Free Energy of Binding    =  -4.78 kcal/mol  [=(1)+(2)+(3)-(4)]
DOCKED: USER
DOCKED: USER    (1) Final Intermolecular Energy     =  -6.27 kcal/mol
DOCKED: USER        vdW + Hbond + desolv Energy     =  -6.27 kcal/mol
DOCKED: USER        Electrostatic Energy            =  +0.00 kcal/mol
DOCKED: USER        Moving Ligand-Fixed Receptor    =  -6.27 kcal/mol
DOCKED: USER        Moving Ligand-Moving Receptor   =  +0.00 kcal/mol
DOCKED: USER    (2) Final Total Internal Energy     =  -0.94 kcal/mol
DOCKED: USER    (3) Torsional Free Energy           =  +1.49 kcal/mol
DOCKED: USER    (4) Unbound System's Energy         =  -0.94 kcal/mol
DOCKED: USER
DOCKED: USER
DOCKED: REMARK  5 active torsions:
DOCKED: REMARK  status: ('A' for Active; 'I' for Inactive)
DOCKED: REMARK    1  A    between atoms: C_2  and  C_19 
DOCKED: REMARK    2  A    between atoms: C_2  and  C_11 
DOCKED: REMARK    3  A    between atoms: C_19  and  C_20 
DOCKED: REMARK    4  A    between atoms: C_20  and  C_21 
DOCKED: REMARK    5  A    between atoms: C_21  and  N_22 
DOCKED: USER                              x       y       z     vdW  Elec       q    Type
DOCKED: USER                           _______ _______ _______ _____ _____    ______ ____
DOCKED: ROOT
DOCKED: ATOM      1  O   UNL     1     -59.872 -37.830   8.615 -0.01 -0.00    -0.346 OA 
DOCKED: ATOM      2  C   UNL     1     -58.974 -36.879   7.959 -0.12 +0.00    +0.130 C  
DOCKED: ATOM      3  C   UNL     1     -59.043 -37.263   6.509 -0.28 +0.00    +0.004 A  
DOCKED: ATOM      4  C   UNL     1     -59.981 -38.270   6.336 -0.28 +0.00    +0.006 A  
DOCKED: ATOM      5  C   UNL     1     -60.599 -38.610   7.637 -0.16 +0.00    +0.169 C  
DOCKED: ATOM      6  C   UNL     1     -58.339 -36.752   5.427 -0.28 -0.00    -0.001 A  
DOCKED: ATOM      7  C   UNL     1     -60.245 -38.803   5.085 -0.38 +0.00    +0.008 A  
DOCKED: ATOM      8  C   UNL     1     -58.590 -37.282   4.160 +0.04 +0.00    +0.010 A  
DOCKED: ATOM      9  C   UNL     1     -59.539 -38.302   3.991 -0.38 +0.00    +0.068 A  
DOCKED: ATOM     10  N   UNL     1     -59.984 -39.259   1.624 -2.72 -0.00    -0.191 NA 
DOCKED: ATOM     11  C   UNL     1     -59.784 -38.830   2.686 -0.28 +0.00    +0.101 C  
DOCKED: ENDROOT
DOCKED: BRANCH   2  12
DOCKED: ATOM     12  C   UNL     1     -59.486 -35.469   8.225 -0.12 +0.00    +0.038 C  
DOCKED: BRANCH  12  13
DOCKED: ATOM     13  C   UNL     1     -60.883 -35.491   8.842 -0.08 +0.00    +0.038 C  
DOCKED: BRANCH  13  14
DOCKED: ATOM     14  C   UNL     1     -61.641 -34.201   8.532 -0.04 +0.00    +0.251 C  
DOCKED: BRANCH  14  15
DOCKED: ATOM     15  N   UNL     1     -61.177 -33.630   7.274 -0.17 +0.00    +0.141 N  
DOCKED: ATOM     16  C   UNL     1     -62.307 -33.147   6.479 -0.11 +0.00    +0.285 C  
DOCKED: ATOM     17  C   UNL     1     -60.228 -32.543   7.519 -0.09 +0.00    +0.285 C  
DOCKED: ENDBRANCH  14  15
DOCKED: ENDBRANCH  13  14
DOCKED: ENDBRANCH  12  13
DOCKED: ENDBRANCH   2  12
DOCKED: BRANCH   2  18
DOCKED: ATOM     18  C   UNL     1     -57.619 -37.081   8.550 -0.15 +0.00    +0.006 A  
DOCKED: ATOM     19  C   UNL     1     -56.585 -37.589   7.765 -0.26 +0.00    +0.001 A  
DOCKED: ATOM     20  C   UNL     1     -55.318 -37.777   8.319 -0.13 +0.00    +0.029 A  
DOCKED: ATOM     21  C   UNL     1     -55.087 -37.456   9.656 -0.07 +0.00    +0.140 A  
DOCKED: ATOM     22  C   UNL     1     -56.121 -36.947  10.440 -0.08 +0.00    +0.029 A  
DOCKED: ATOM     23  F   UNL     1     -53.870 -37.634  10.187 -0.03 -0.00    -0.204 F  
DOCKED: ATOM     24  C   UNL     1     -57.389 -36.759   9.887 -0.08 +0.00    +0.001 A  
DOCKED: ENDBRANCH   2  18
DOCKED: TORSDOF 5
DOCKED: TER
DOCKED: ENDMDL
________________________________________________________________________________


    FINAL DOCKED STATE:
    ________________________


Run:   76 / 512
Time taken for this run:   0.002s

DOCKED: MODEL        76
DOCKED: USER    Run = 76
DOCKED: USER
DOCKED: USER    Estimated Free Energy of Binding    =  -4.14 kcal/mol  [=(1)+(2)+(3)-(4)]
DOCKED: USER
DOCKED: USER    (1) Final Intermolecular Energy     =  -5.64 kcal/mol
DOCKED: USER        vdW + Hbond + desolv Energy     =  -5.64 kcal/mol
DOCKED: USER        Electrostatic Energy            =  +0.00 kcal/mol
DOCKED: USER        Moving Ligand-Fixed Receptor    =  -5.64 kcal/mol
DOCKED: USER        Moving Ligand-Moving Receptor   =  +0.00 kcal/mol
DOCKED: USER    (2) Final Total Internal Energy     =  -1.36 kcal/mol
DOCKED: USER    (3) Torsional Free Energy           =  +1.49 kcal/mol
DOCKED: USER    (4) Unbound System's Energy         =  -1.36 kcal/mol
DOCKED: USER
DOCKED: USER
DOCKED: REMARK  5 active torsions:
DOCKED: REMARK  status: ('A' for Active; 'I' for Inactive)
DOCKED: REMARK    1  A    between atoms: C_2  and  C_19 
DOCKED: REMARK    2  A    between atoms: C_2  and  C_11 
DOCKED: REMARK    3  A    between atoms: C_19  and  C_20 
DOCKED: REMARK    4  A    between atoms: C_20  and  C_21 
DOCKED: REMARK    5  A    between atoms: C_21  and  N_22 
DOCKED: USER                              x       y       z     vdW  Elec       q    Type
DOCKED: USER                           _______ _______ _______ _____ _____    ______ ____
DOCKED: ROOT
DOCKED: ATOM      1  O   UNL     1     -55.597 -35.009   8.085 -0.06 -0.00    -0.346 OA 
DOCKED: ATOM      2  C   UNL     1     -56.779 -34.425   7.449 -0.14 +0.00    +0.130 C  
DOCKED: ATOM      3  C   UNL     1     -57.508 -35.612   6.887 -0.25 +0.00    +0.004 A  
DOCKED: ATOM      4  C   UNL     1     -56.859 -36.779   7.264 -0.23 +0.00    +0.006 A  
DOCKED: ATOM      5  C   UNL     1     -55.682 -36.453   8.099 -0.14 +0.00    +0.169 C  
DOCKED: ATOM      6  C   UNL     1     -58.659 -35.655   6.114 -0.21 -0.00    -0.001 A  
DOCKED: ATOM      7  C   UNL     1     -57.333 -38.023   6.880 -0.32 +0.00    +0.008 A  
DOCKED: ATOM      8  C   UNL     1     -59.146 -36.900   5.716 -0.26 +0.00    +0.010 A  
DOCKED: ATOM      9  C   UNL     1     -58.487 -38.078   6.097 -0.31 +0.00    +0.068 A  
DOCKED: ATOM     10  N   UNL     1     -59.422 -40.375   5.345 -2.61 -0.00    -0.191 NA 
DOCKED: ATOM     11  C   UNL     1     -59.002 -39.345   5.682 -0.35 +0.00    +0.101 C  
DOCKED: ENDROOT
DOCKED: BRANCH   2  12
DOCKED: ATOM     12  C   UNL     1     -57.582 -33.684   8.510 -0.07 +0.00    +0.038 C  
DOCKED: BRANCH  12  13
DOCKED: ATOM     13  C   UNL     1     -58.584 -34.609   9.198 -0.05 +0.00    +0.038 C  
DOCKED: BRANCH  13  14
DOCKED: ATOM     14  C   UNL     1     -58.104 -35.000  10.594 -0.01 +0.00    +0.251 C  
DOCKED: BRANCH  14  15
DOCKED: ATOM     15  N   UNL     1     -56.715 -34.597  10.784 -0.01 +0.00    +0.141 N  
DOCKED: ATOM     16  C   UNL     1     -56.630 -33.448  11.687 -0.00 +0.00    +0.285 C  
DOCKED: ATOM     17  C   UNL     1     -55.921 -35.711  11.303 -0.01 +0.00    +0.285 C  
DOCKED: ENDBRANCH  14  15
DOCKED: ENDBRANCH  13  14
DOCKED: ENDBRANCH  12  13
DOCKED: ENDBRANCH   2  12
DOCKED: BRANCH   2  18
DOCKED: ATOM     18  C   UNL     1     -56.289 -33.491   6.393 -0.16 +0.00    +0.006 A  
DOCKED: ATOM     19  C   UNL     1     -55.359 -33.929   5.452 -0.03 +0.00    +0.001 A  
DOCKED: ATOM     20  C   UNL     1     -54.901 -33.054   4.466 -0.13 +0.00    +0.029 A  
DOCKED: ATOM     21  C   UNL     1     -55.375 -31.743   4.423 -0.07 +0.00    +0.140 A  
DOCKED: ATOM     22  C   UNL     1     -56.305 -31.306   5.365 -0.09 +0.00    +0.029 A  
DOCKED: ATOM     23  F   UNL     1     -54.937 -30.904   3.475 -0.01 -0.00    -0.204 F  
DOCKED: ATOM     24  C   UNL     1     -56.763 -32.180   6.352 -0.11 +0.00    +0.001 A  
DOCKED: ENDBRANCH   2  18
DOCKED: TORSDOF 5
DOCKED: TER
DOCKED: ENDMDL
________________________________________________________________________________


    FINAL DOCKED STATE:
    ________________________


Run:   77 / 512
Time taken for this run:   0.002s

DOCKED: MODEL        77
DOCKED: USER    Run = 77
DOCKED: USER
DOCKED: USER    Estimated Free Energy of Binding    =  -3.94 kcal/mol  [=(1)+(2)+(3)-(4)]
DOCKED: USER
DOCKED: USER    (1) Final Intermolecular Energy     =  -5.43 kcal/mol
DOCKED: USER        vdW + Hbond + desolv Energy     =  -5.43 kcal/mol
DOCKED: USER        Electrostatic Energy            =  +0.00 kcal/mol
DOCKED: USER        Moving Ligand-Fixed Receptor    =  -5.43 kcal/mol
DOCKED: USER        Moving Ligand-Moving Receptor   =  +0.00 kcal/mol
DOCKED: USER    (2) Final Total Internal Energy     =  -1.49 kcal/mol
DOCKED: USER    (3) Torsional Free Energy           =  +1.49 kcal/mol
DOCKED: USER    (4) Unbound System's Energy         =  -1.49 kcal/mol
DOCKED: USER
DOCKED: USER
DOCKED: REMARK  5 active torsions:
DOCKED: REMARK  status: ('A' for Active; 'I' for Inactive)
DOCKED: REMARK    1  A    between atoms: C_2  and  C_19 
DOCKED: REMARK    2  A    between atoms: C_2  and  C_11 
DOCKED: REMARK    3  A    between atoms: C_19  and  C_20 
DOCKED: REMARK    4  A    between atoms: C_20  and  C_21 
DOCKED: REMARK    5  A    between atoms: C_21  and  N_22 
DOCKED: USER                              x       y       z     vdW  Elec       q    Type
DOCKED: USER                           _______ _______ _______ _____ _____    ______ ____
DOCKED: ROOT
DOCKED: ATOM      1  O   UNL     1     -56.510 -34.066   7.472 -0.05 -0.00    -0.346 OA 
DOCKED: ATOM      2  C   UNL     1     -55.789 -35.195   8.061 -0.12 +0.00    +0.130 C  
DOCKED: ATOM      3  C   UNL     1     -56.550 -36.397   7.583 -0.20 +0.00    +0.004 A  
DOCKED: ATOM      4  C   UNL     1     -57.552 -35.999   6.709 -0.27 +0.00    +0.006 A  
DOCKED: ATOM      5  C   UNL     1     -57.515 -34.529   6.540 -0.18 +0.00    +0.169 C  
DOCKED: ATOM      6  C   UNL     1     -56.365 -37.737   7.889 -0.26 -0.00    -0.001 A  
DOCKED: ATOM      7  C   UNL     1     -58.400 -36.919   6.117 -0.33 +0.00    +0.008 A  
DOCKED: ATOM      8  C   UNL     1     -57.214 -38.677   7.304 -0.35 +0.00    +0.010 A  
DOCKED: ATOM      9  C   UNL     1     -58.227 -38.270   6.422 -0.31 +0.00    +0.068 A  
DOCKED: ATOM     10  N   UNL     1     -59.784 -40.041   5.348 -2.56 -0.00    -0.191 NA 
DOCKED: ATOM     11  C   UNL     1     -59.086 -39.246   5.830 -0.36 +0.00    +0.101 C  
DOCKED: ENDROOT
DOCKED: BRANCH   2  12
DOCKED: ATOM     12  C   UNL     1     -54.351 -35.164   7.557 -0.08 +0.00    +0.038 C  
DOCKED: BRANCH  12  13
DOCKED: ATOM     13  C   UNL     1     -54.132 -34.022   6.567 -0.13 +0.00    +0.038 C  
DOCKED: BRANCH  13  14
DOCKED: ATOM     14  C   UNL     1     -53.583 -32.782   7.272 -0.03 +0.00    +0.251 C  
DOCKED: BRANCH  14  15
DOCKED: ATOM     15  N   UNL     1     -54.418 -31.623   6.982 -0.02 +0.00    +0.141 N  
DOCKED: ATOM     16  C   UNL     1     -55.203 -31.843   5.766 -0.05 +0.00    +0.285 C  
DOCKED: ATOM     17  C   UNL     1     -55.303 -31.329   8.110 -0.01 +0.00    +0.285 C  
DOCKED: ENDBRANCH  14  15
DOCKED: ENDBRANCH  13  14
DOCKED: ENDBRANCH  12  13
DOCKED: ENDBRANCH   2  12
DOCKED: BRANCH   2  18
DOCKED: ATOM     18  C   UNL     1     -55.843 -35.022   9.542 -0.05 +0.00    +0.006 A  
DOCKED: ATOM     19  C   UNL     1     -57.073 -35.024  10.199 -0.03 +0.00    +0.001 A  
DOCKED: ATOM     20  C   UNL     1     -57.123 -34.862  11.584 -0.01 +0.00    +0.029 A  
DOCKED: ATOM     21  C   UNL     1     -55.944 -34.700  12.310 -0.00 +0.00    +0.140 A  
DOCKED: ATOM     22  C   UNL     1     -54.714 -34.700  11.653 -0.01 +0.00    +0.029 A  
DOCKED: ATOM     23  F   UNL     1     -55.992 -34.547  13.640 +0.00 -0.00    -0.204 F  
DOCKED: ATOM     24  C   UNL     1     -54.663 -34.861  10.267 -0.03 +0.00    +0.001 A  
DOCKED: ENDBRANCH   2  18
DOCKED: TORSDOF 5
DOCKED: TER
DOCKED: ENDMDL
________________________________________________________________________________


    FINAL DOCKED STATE:
    ________________________


Run:   78 / 512
Time taken for this run:   0.002s

DOCKED: MODEL        78
DOCKED: USER    Run = 78
DOCKED: USER
DOCKED: USER    Estimated Free Energy of Binding    =  -4.22 kcal/mol  [=(1)+(2)+(3)-(4)]
DOCKED: USER
DOCKED: USER    (1) Final Intermolecular Energy     =  -5.72 kcal/mol
DOCKED: USER        vdW + Hbond + desolv Energy     =  -5.72 kcal/mol
DOCKED: USER        Electrostatic Energy            =  +0.00 kcal/mol
DOCKED: USER        Moving Ligand-Fixed Receptor    =  -5.72 kcal/mol
DOCKED: USER        Moving Ligand-Moving Receptor   =  +0.00 kcal/mol
DOCKED: USER    (2) Final Total Internal Energy     =  -1.43 kcal/mol
DOCKED: USER    (3) Torsional Free Energy           =  +1.49 kcal/mol
DOCKED: USER    (4) Unbound System's Energy         =  -1.43 kcal/mol
DOCKED: USER
DOCKED: USER
DOCKED: REMARK  5 active torsions:
DOCKED: REMARK  status: ('A' for Active; 'I' for Inactive)
DOCKED: REMARK    1  A    between atoms: C_2  and  C_19 
DOCKED: REMARK    2  A    between atoms: C_2  and  C_11 
DOCKED: REMARK    3  A    between atoms: C_19  and  C_20 
DOCKED: REMARK    4  A    between atoms: C_20  and  C_21 
DOCKED: REMARK    5  A    between atoms: C_21  and  N_22 
DOCKED: USER                              x       y       z     vdW  Elec       q    Type
DOCKED: USER                           _______ _______ _______ _____ _____    ______ ____
DOCKED: ROOT
DOCKED: ATOM      1  O   UNL     1     -57.654 -33.561   7.530 -0.04 -0.00    -0.346 OA 
DOCKED: ATOM      2  C   UNL     1     -59.117 -33.579   7.577 -0.14 +0.00    +0.130 C  
DOCKED: ATOM      3  C   UNL     1     -59.476 -34.951   7.087 -0.22 +0.00    +0.004 A  
DOCKED: ATOM      4  C   UNL     1     -58.320 -35.691   6.883 -0.25 +0.00    +0.006 A  
DOCKED: ATOM      5  C   UNL     1     -57.134 -34.877   7.231 -0.17 +0.00    +0.169 C  
DOCKED: ATOM      6  C   UNL     1     -60.726 -35.505   6.852 -0.23 -0.00    -0.001 A  
DOCKED: ATOM      7  C   UNL     1     -58.371 -37.000   6.435 -0.31 +0.00    +0.008 A  
DOCKED: ATOM      8  C   UNL     1     -60.795 -36.823   6.395 -0.20 +0.00    +0.010 A  
DOCKED: ATOM      9  C   UNL     1     -59.623 -37.566   6.189 -0.24 +0.00    +0.068 A  
DOCKED: ATOM     10  N   UNL     1     -59.787 -40.011   5.346 -2.56 -0.00    -0.191 NA 
DOCKED: ATOM     11  C   UNL     1     -59.713 -38.914   5.723 -0.35 +0.00    +0.101 C  
DOCKED: ENDROOT
DOCKED: BRANCH   2  12
DOCKED: ATOM     12  C   UNL     1     -59.556 -33.328   9.015 -0.05 +0.00    +0.038 C  
DOCKED: BRANCH  12  13
DOCKED: ATOM     13  C   UNL     1     -58.401 -32.806   9.868 -0.02 +0.00    +0.038 C  
DOCKED: BRANCH  13  14
DOCKED: ATOM     14  C   UNL     1     -58.059 -31.363   9.503 -0.00 +0.00    +0.251 C  
DOCKED: BRANCH  14  15
DOCKED: ATOM     15  N   UNL     1     -56.635 -31.115   9.699 -0.00 +0.00    +0.141 N  
DOCKED: ATOM     16  C   UNL     1     -55.880 -32.367   9.640 -0.00 +0.00    +0.285 C  
DOCKED: ATOM     17  C   UNL     1     -56.133 -30.173   8.697 -0.00 +0.00    +0.285 C  
DOCKED: ENDBRANCH  14  15
DOCKED: ENDBRANCH  13  14
DOCKED: ENDBRANCH  12  13
DOCKED: ENDBRANCH   2  12
DOCKED: BRANCH   2  18
DOCKED: ATOM     18  C   UNL     1     -59.596 -32.494   6.672 -0.20 +0.00    +0.006 A  
DOCKED: ATOM     19  C   UNL     1     -58.682 -31.769   5.909 -0.15 +0.00    +0.001 A  
DOCKED: ATOM     20  C   UNL     1     -59.131 -30.754   5.062 -0.15 +0.00    +0.029 A  
DOCKED: ATOM     21  C   UNL     1     -60.493 -30.467   4.980 -0.08 +0.00    +0.140 A  
DOCKED: ATOM     22  C   UNL     1     -61.407 -31.193   5.743 -0.11 +0.00    +0.029 A  
DOCKED: ATOM     23  F   UNL     1     -60.924 -29.495   4.166 -0.03 -0.00    -0.204 F  
DOCKED: ATOM     24  C   UNL     1     -60.958 -32.208   6.590 -0.21 +0.00    +0.001 A  
DOCKED: ENDBRANCH   2  18
DOCKED: TORSDOF 5
DOCKED: TER
DOCKED: ENDMDL
________________________________________________________________________________


    FINAL DOCKED STATE:
    ________________________


Run:   79 / 512
Time taken for this run:   0.002s

DOCKED: MODEL        79
DOCKED: USER    Run = 79
DOCKED: USER
DOCKED: USER    Estimated Free Energy of Binding    =  -3.97 kcal/mol  [=(1)+(2)+(3)-(4)]
DOCKED: USER
DOCKED: USER    (1) Final Intermolecular Energy     =  -5.46 kcal/mol
DOCKED: USER        vdW + Hbond + desolv Energy     =  -5.46 kcal/mol
DOCKED: USER        Electrostatic Energy            =  +0.00 kcal/mol
DOCKED: USER        Moving Ligand-Fixed Receptor    =  -5.46 kcal/mol
DOCKED: USER        Moving Ligand-Moving Receptor   =  +0.00 kcal/mol
DOCKED: USER    (2) Final Total Internal Energy     =  -1.26 kcal/mol
DOCKED: USER    (3) Torsional Free Energy           =  +1.49 kcal/mol
DOCKED: USER    (4) Unbound System's Energy         =  -1.26 kcal/mol
DOCKED: USER
DOCKED: USER
DOCKED: REMARK  5 active torsions:
DOCKED: REMARK  status: ('A' for Active; 'I' for Inactive)
DOCKED: REMARK    1  A    between atoms: C_2  and  C_19 
DOCKED: REMARK    2  A    between atoms: C_2  and  C_11 
DOCKED: REMARK    3  A    between atoms: C_19  and  C_20 
DOCKED: REMARK    4  A    between atoms: C_20  and  C_21 
DOCKED: REMARK    5  A    between atoms: C_21  and  N_22 
DOCKED: USER                              x       y       z     vdW  Elec       q    Type
DOCKED: USER                           _______ _______ _______ _____ _____    ______ ____
DOCKED: ROOT
DOCKED: ATOM      1  O   UNL     1     -55.832 -37.096   9.994 -0.05 -0.00    -0.346 OA 
DOCKED: ATOM      2  C   UNL     1     -55.988 -36.167   8.874 -0.12 +0.00    +0.130 C  
DOCKED: ATOM      3  C   UNL     1     -56.806 -36.938   7.879 -0.22 +0.00    +0.004 A  
DOCKED: ATOM      4  C   UNL     1     -57.178 -38.158   8.425 -0.24 +0.00    +0.006 A  
DOCKED: ATOM      5  C   UNL     1     -56.652 -38.273   9.804 -0.05 +0.00    +0.169 C  
DOCKED: ATOM      6  C   UNL     1     -57.198 -36.583   6.596 -0.21 -0.00    -0.001 A  
DOCKED: ATOM      7  C   UNL     1     -57.947 -39.062   7.712 -0.31 +0.00    +0.008 A  
DOCKED: ATOM      8  C   UNL     1     -57.970 -37.486   5.863 -0.33 +0.00    +0.010 A  
DOCKED: ATOM      9  C   UNL     1     -58.343 -38.719   6.419 -0.32 +0.00    +0.068 A  
DOCKED: ATOM     10  N   UNL     1     -59.780 -40.370   5.033 -2.38 -0.00    -0.191 NA 
DOCKED: ATOM     11  C   UNL     1     -59.135 -39.630   5.654 -0.23 +0.00    +0.101 C  
DOCKED: ENDROOT
DOCKED: BRANCH   2  12
DOCKED: ATOM     12  C   UNL     1     -56.695 -34.916   9.381 -0.05 +0.00    +0.038 C  
DOCKED: BRANCH  12  13
DOCKED: ATOM     13  C   UNL     1     -58.208 -35.017   9.196 -0.06 +0.00    +0.038 C  
DOCKED: BRANCH  13  14
DOCKED: ATOM     14  C   UNL     1     -58.728 -33.898   8.297 -0.05 +0.00    +0.251 C  
DOCKED: BRANCH  14  15
DOCKED: ATOM     15  N   UNL     1     -57.744 -32.826   8.200 -0.04 +0.00    +0.141 N  
DOCKED: ATOM     16  C   UNL     1     -57.466 -32.507   6.799 -0.09 +0.00    +0.285 C  
DOCKED: ATOM     17  C   UNL     1     -58.209 -31.634   8.910 -0.01 +0.00    +0.285 C  
DOCKED: ENDBRANCH  14  15
DOCKED: ENDBRANCH  13  14
DOCKED: ENDBRANCH  12  13
DOCKED: ENDBRANCH   2  12
DOCKED: BRANCH   2  18
DOCKED: ATOM     18  C   UNL     1     -54.617 -35.847   8.378 -0.14 +0.00    +0.006 A  
DOCKED: ATOM     19  C   UNL     1     -54.333 -34.573   7.889 -0.10 +0.00    +0.001 A  
DOCKED: ATOM     20  C   UNL     1     -53.051 -34.276   7.425 -0.08 +0.00    +0.029 A  
DOCKED: ATOM     21  C   UNL     1     -52.056 -35.252   7.451 -0.07 +0.00    +0.140 A  
DOCKED: ATOM     22  C   UNL     1     -52.341 -36.526   7.942 -0.13 +0.00    +0.029 A  
DOCKED: ATOM     23  F   UNL     1     -50.825 -34.965   7.008 -0.01 -0.00    -0.204 F  
DOCKED: ATOM     24  C   UNL     1     -53.623 -36.824   8.406 -0.16 +0.00    +0.001 A  
DOCKED: ENDBRANCH   2  18
DOCKED: TORSDOF 5
DOCKED: TER
DOCKED: ENDMDL
________________________________________________________________________________


    FINAL DOCKED STATE:
    ________________________


Run:   80 / 512
Time taken for this run:   0.002s

DOCKED: MODEL        80
DOCKED: USER    Run = 80
DOCKED: USER
DOCKED: USER    Estimated Free Energy of Binding    =  -3.97 kcal/mol  [=(1)+(2)+(3)-(4)]
DOCKED: USER
DOCKED: USER    (1) Final Intermolecular Energy     =  -5.46 kcal/mol
DOCKED: USER        vdW + Hbond + desolv Energy     =  -5.46 kcal/mol
DOCKED: USER        Electrostatic Energy            =  +0.00 kcal/mol
DOCKED: USER        Moving Ligand-Fixed Receptor    =  -5.46 kcal/mol
DOCKED: USER        Moving Ligand-Moving Receptor   =  +0.00 kcal/mol
DOCKED: USER    (2) Final Total Internal Energy     =  -1.24 kcal/mol
DOCKED: USER    (3) Torsional Free Energy           =  +1.49 kcal/mol
DOCKED: USER    (4) Unbound System's Energy         =  -1.24 kcal/mol
DOCKED: USER
DOCKED: USER
DOCKED: REMARK  5 active torsions:
DOCKED: REMARK  status: ('A' for Active; 'I' for Inactive)
DOCKED: REMARK    1  A    between atoms: C_2  and  C_19 
DOCKED: REMARK    2  A    between atoms: C_2  and  C_11 
DOCKED: REMARK    3  A    between atoms: C_19  and  C_20 
DOCKED: REMARK    4  A    between atoms: C_20  and  C_21 
DOCKED: REMARK    5  A    between atoms: C_21  and  N_22 
DOCKED: USER                              x       y       z     vdW  Elec       q    Type
DOCKED: USER                           _______ _______ _______ _____ _____    ______ ____
DOCKED: ROOT
DOCKED: ATOM      1  O   UNL     1     -50.931 -25.874  -2.603 -0.01 -0.00    -0.346 OA 
DOCKED: ATOM      2  C   UNL     1     -51.070 -25.661  -4.044 -0.09 +0.00    +0.130 C  
DOCKED: ATOM      3  C   UNL     1     -52.485 -26.070  -4.334 -0.16 +0.00    +0.004 A  
DOCKED: ATOM      4  C   UNL     1     -53.132 -26.384  -3.148 -0.22 +0.00    +0.006 A  
DOCKED: ATOM      5  C   UNL     1     -52.210 -26.195  -2.006 -0.14 +0.00    +0.169 C  
DOCKED: ATOM      6  C   UNL     1     -53.149 -26.147  -5.550 -0.24 -0.00    -0.001 A  
DOCKED: ATOM      7  C   UNL     1     -54.457 -26.788  -3.135 -0.33 +0.00    +0.008 A  
DOCKED: ATOM      8  C   UNL     1     -54.483 -26.557  -5.554 -0.35 +0.00    +0.010 A  
DOCKED: ATOM      9  C   UNL     1     -55.134 -26.875  -4.352 -0.38 +0.00    +0.068 A  
DOCKED: ATOM     10  N   UNL     1     -57.613 -27.628  -4.395 -2.36 -0.00    -0.191 NA 
DOCKED: ATOM     11  C   UNL     1     -56.501 -27.291  -4.376 -0.31 +0.00    +0.101 C  
DOCKED: ENDROOT
DOCKED: BRANCH   2  12
DOCKED: ATOM     12  C   UNL     1     -50.805 -24.189  -4.342 -0.09 +0.00    +0.038 C  
DOCKED: BRANCH  12  13
DOCKED: ATOM     13  C   UNL     1     -50.923 -23.336  -3.080 -0.14 +0.00    +0.038 C  
DOCKED: BRANCH  13  14
DOCKED: ATOM     14  C   UNL     1     -52.266 -22.610  -3.032 -0.04 +0.00    +0.251 C  
DOCKED: BRANCH  14  15
DOCKED: ATOM     15  N   UNL     1     -52.980 -22.947  -1.806 -0.21 +0.00    +0.141 N  
DOCKED: ATOM     16  C   UNL     1     -52.043 -23.346  -0.755 -0.12 +0.00    +0.285 C  
DOCKED: ATOM     17  C   UNL     1     -53.794 -21.816  -1.356 -0.16 +0.00    +0.285 C  
DOCKED: ENDBRANCH  14  15
DOCKED: ENDBRANCH  13  14
DOCKED: ENDBRANCH  12  13
DOCKED: ENDBRANCH   2  12
DOCKED: BRANCH   2  18
DOCKED: ATOM     18  C   UNL     1     -50.062 -26.535  -4.714 -0.04 +0.00    +0.006 A  
DOCKED: ATOM     19  C   UNL     1     -49.935 -26.515  -6.102 -0.05 +0.00    +0.001 A  
DOCKED: ATOM     20  C   UNL     1     -48.993 -27.333  -6.726 -0.01 +0.00    +0.029 A  
DOCKED: ATOM     21  C   UNL     1     -48.180 -28.169  -5.963 +0.00 +0.00    +0.140 A  
DOCKED: ATOM     22  C   UNL     1     -48.308 -28.189  -4.574 -0.00 +0.00    +0.029 A  
DOCKED: ATOM     23  F   UNL     1     -47.275 -28.953  -6.562 +0.00 -0.00    -0.204 F  
DOCKED: ATOM     24  C   UNL     1     -49.251 -27.371  -3.948 -0.01 +0.00    +0.001 A  
DOCKED: ENDBRANCH   2  18
DOCKED: TORSDOF 5
DOCKED: TER
DOCKED: ENDMDL
________________________________________________________________________________


    FINAL DOCKED STATE:
    ________________________


Run:   81 / 512
Time taken for this run:   0.002s

DOCKED: MODEL        81
DOCKED: USER    Run = 81
DOCKED: USER
DOCKED: USER    Estimated Free Energy of Binding    =  -3.68 kcal/mol  [=(1)+(2)+(3)-(4)]
DOCKED: USER
DOCKED: USER    (1) Final Intermolecular Energy     =  -5.17 kcal/mol
DOCKED: USER        vdW + Hbond + desolv Energy     =  -5.17 kcal/mol
DOCKED: USER        Electrostatic Energy            =  +0.00 kcal/mol
DOCKED: USER        Moving Ligand-Fixed Receptor    =  -5.17 kcal/mol
DOCKED: USER        Moving Ligand-Moving Receptor   =  +0.00 kcal/mol
DOCKED: USER    (2) Final Total Internal Energy     =  -1.04 kcal/mol
DOCKED: USER    (3) Torsional Free Energy           =  +1.49 kcal/mol
DOCKED: USER    (4) Unbound System's Energy         =  -1.04 kcal/mol
DOCKED: USER
DOCKED: USER
DOCKED: REMARK  5 active torsions:
DOCKED: REMARK  status: ('A' for Active; 'I' for Inactive)
DOCKED: REMARK    1  A    between atoms: C_2  and  C_19 
DOCKED: REMARK    2  A    between atoms: C_2  and  C_11 
DOCKED: REMARK    3  A    between atoms: C_19  and  C_20 
DOCKED: REMARK    4  A    between atoms: C_20  and  C_21 
DOCKED: REMARK    5  A    between atoms: C_21  and  N_22 
DOCKED: USER                              x       y       z     vdW  Elec       q    Type
DOCKED: USER                           _______ _______ _______ _____ _____    ______ ____
DOCKED: ROOT
DOCKED: ATOM      1  O   UNL     1     -56.753 -37.087  10.749 -0.02 -0.00    -0.346 OA 
DOCKED: ATOM      2  C   UNL     1     -56.196 -36.500   9.529 -0.10 +0.00    +0.130 C  
DOCKED: ATOM      3  C   UNL     1     -56.946 -37.187   8.425 -0.19 +0.00    +0.004 A  
DOCKED: ATOM      4  C   UNL     1     -57.922 -38.012   8.966 -0.17 +0.00    +0.006 A  
DOCKED: ATOM      5  C   UNL     1     -57.895 -37.920  10.443 -0.10 +0.00    +0.169 C  
DOCKED: ATOM      6  C   UNL     1     -56.785 -37.082   7.051 -0.19 -0.00    -0.001 A  
DOCKED: ATOM      7  C   UNL     1     -58.763 -38.759   8.158 -0.23 +0.00    +0.008 A  
DOCKED: ATOM      8  C   UNL     1     -57.623 -37.832   6.223 -0.32 +0.00    +0.010 A  
DOCKED: ATOM      9  C   UNL     1     -58.607 -38.665   6.775 -0.27 +0.00    +0.068 A  
DOCKED: ATOM     10  N   UNL     1     -60.148 -40.040   5.210 -2.22 -0.00    -0.191 NA 
DOCKED: ATOM     11  C   UNL     1     -59.457 -39.424   5.912 -0.22 +0.00    +0.101 C  
DOCKED: ENDROOT
DOCKED: BRANCH   2  12
DOCKED: ATOM     12  C   UNL     1     -56.437 -34.996   9.564 -0.05 +0.00    +0.038 C  
DOCKED: BRANCH  12  13
DOCKED: ATOM     13  C   UNL     1     -56.388 -34.391   8.162 -0.11 +0.00    +0.038 C  
DOCKED: BRANCH  13  14
DOCKED: ATOM     14  C   UNL     1     -55.452 -33.184   8.117 -0.04 +0.00    +0.251 C  
DOCKED: BRANCH  14  15
DOCKED: ATOM     15  N   UNL     1     -54.811 -33.088   6.811 -0.07 +0.00    +0.141 N  
DOCKED: ATOM     16  C   UNL     1     -53.516 -33.770   6.820 -0.07 +0.00    +0.285 C  
DOCKED: ATOM     17  C   UNL     1     -55.674 -33.649   5.771 -0.11 +0.00    +0.285 C  
DOCKED: ENDBRANCH  14  15
DOCKED: ENDBRANCH  13  14
DOCKED: ENDBRANCH  12  13
DOCKED: ENDBRANCH   2  12
DOCKED: BRANCH   2  18
DOCKED: ATOM     18  C   UNL     1     -54.737 -36.812   9.522 -0.13 +0.00    +0.006 A  
DOCKED: ATOM     19  C   UNL     1     -54.115 -37.264  10.685 -0.10 +0.00    +0.001 A  
DOCKED: ATOM     20  C   UNL     1     -52.750 -37.554  10.677 -0.09 +0.00    +0.029 A  
DOCKED: ATOM     21  C   UNL     1     -52.010 -37.393   9.507 -0.08 +0.00    +0.140 A  
DOCKED: ATOM     22  C   UNL     1     -52.632 -36.941   8.344 -0.15 +0.00    +0.029 A  
DOCKED: ATOM     23  F   UNL     1     -50.700 -37.673   9.499 +0.00 -0.00    -0.204 F  
DOCKED: ATOM     24  C   UNL     1     -53.997 -36.649   8.351 -0.16 +0.00    +0.001 A  
DOCKED: ENDBRANCH   2  18
DOCKED: TORSDOF 5
DOCKED: TER
DOCKED: ENDMDL
________________________________________________________________________________


    FINAL DOCKED STATE:
    ________________________


Run:   82 / 512
Time taken for this run:   0.002s

DOCKED: MODEL        82
DOCKED: USER    Run = 82
DOCKED: USER
DOCKED: USER    Estimated Free Energy of Binding    =  -3.54 kcal/mol  [=(1)+(2)+(3)-(4)]
DOCKED: USER
DOCKED: USER    (1) Final Intermolecular Energy     =  -5.03 kcal/mol
DOCKED: USER        vdW + Hbond + desolv Energy     =  -5.03 kcal/mol
DOCKED: USER        Electrostatic Energy            =  +0.00 kcal/mol
DOCKED: USER        Moving Ligand-Fixed Receptor    =  -5.03 kcal/mol
DOCKED: USER        Moving Ligand-Moving Receptor   =  +0.00 kcal/mol
DOCKED: USER    (2) Final Total Internal Energy     =  -1.36 kcal/mol
DOCKED: USER    (3) Torsional Free Energy           =  +1.49 kcal/mol
DOCKED: USER    (4) Unbound System's Energy         =  -1.36 kcal/mol
DOCKED: USER
DOCKED: USER
DOCKED: REMARK  5 active torsions:
DOCKED: REMARK  status: ('A' for Active; 'I' for Inactive)
DOCKED: REMARK    1  A    between atoms: C_2  and  C_19 
DOCKED: REMARK    2  A    between atoms: C_2  and  C_11 
DOCKED: REMARK    3  A    between atoms: C_19  and  C_20 
DOCKED: REMARK    4  A    between atoms: C_20  and  C_21 
DOCKED: REMARK    5  A    between atoms: C_21  and  N_22 
DOCKED: USER                              x       y       z     vdW  Elec       q    Type
DOCKED: USER                           _______ _______ _______ _____ _____    ______ ____
DOCKED: ROOT
DOCKED: ATOM      1  O   UNL     1     -51.291 -25.496  -1.235 -0.05 -0.00    -0.346 OA 
DOCKED: ATOM      2  C   UNL     1     -50.913 -26.463  -2.267 -0.06 +0.00    +0.130 C  
DOCKED: ATOM      3  C   UNL     1     -52.212 -26.791  -2.944 -0.12 +0.00    +0.004 A  
DOCKED: ATOM      4  C   UNL     1     -53.225 -26.000  -2.421 -0.24 +0.00    +0.006 A  
DOCKED: ATOM      5  C   UNL     1     -52.673 -25.098  -1.385 -0.20 +0.00    +0.169 C  
DOCKED: ATOM      6  C   UNL     1     -52.475 -27.708  -3.951 -0.11 -0.00    -0.001 A  
DOCKED: ATOM      7  C   UNL     1     -54.528 -26.100  -2.879 -0.30 +0.00    +0.008 A  
DOCKED: ATOM      8  C   UNL     1     -53.784 -27.824  -4.421 -0.23 +0.00    +0.010 A  
DOCKED: ATOM      9  C   UNL     1     -54.805 -27.024  -3.888 -0.34 +0.00    +0.068 A  
DOCKED: ATOM     10  N   UNL     1     -57.224 -27.261  -4.786 -2.51 -0.00    -0.191 NA 
DOCKED: ATOM     11  C   UNL     1     -56.139 -27.155  -4.382 -0.41 +0.00    +0.101 C  
DOCKED: ENDROOT
DOCKED: BRANCH   2  12
DOCKED: ATOM     12  C   UNL     1     -49.907 -25.803  -3.202 -0.05 +0.00    +0.038 C  
DOCKED: BRANCH  12  13
DOCKED: ATOM     13  C   UNL     1     -50.574 -24.752  -4.086 -0.12 +0.00    +0.038 C  
DOCKED: BRANCH  13  14
DOCKED: ATOM     14  C   UNL     1     -50.277 -25.007  -5.563 -0.03 +0.00    +0.251 C  
DOCKED: BRANCH  14  15
DOCKED: ATOM     15  N   UNL     1     -50.845 -26.283  -5.981 -0.07 +0.00    +0.141 N  
DOCKED: ATOM     16  C   UNL     1     -51.784 -26.092  -7.088 -0.07 +0.00    +0.285 C  
DOCKED: ATOM     17  C   UNL     1     -49.786 -27.216  -6.369 +0.00 +0.00    +0.285 C  
DOCKED: ENDBRANCH  14  15
DOCKED: ENDBRANCH  13  14
DOCKED: ENDBRANCH  12  13
DOCKED: ENDBRANCH   2  12
DOCKED: BRANCH   2  18
DOCKED: ATOM     18  C   UNL     1     -50.310 -27.635  -1.567 -0.04 +0.00    +0.006 A  
DOCKED: ATOM     19  C   UNL     1     -51.065 -28.361  -0.646 -0.07 +0.00    +0.001 A  
DOCKED: ATOM     20  C   UNL     1     -50.499 -29.456   0.008 -0.03 +0.00    +0.029 A  
DOCKED: ATOM     21  C   UNL     1     -49.182 -29.824  -0.260 -0.00 +0.00    +0.140 A  
DOCKED: ATOM     22  C   UNL     1     -48.427 -29.098  -1.181 -0.00 +0.00    +0.029 A  
DOCKED: ATOM     23  F   UNL     1     -48.640 -30.877   0.366 +0.00 -0.00    -0.204 F  
DOCKED: ATOM     24  C   UNL     1     -48.992 -28.002  -1.836 -0.01 +0.00    +0.001 A  
DOCKED: ENDBRANCH   2  18
DOCKED: TORSDOF 5
DOCKED: TER
DOCKED: ENDMDL
________________________________________________________________________________


    FINAL DOCKED STATE:
    ________________________


Run:   83 / 512
Time taken for this run:   0.002s

DOCKED: MODEL        83
DOCKED: USER    Run = 83
DOCKED: USER
DOCKED: USER    Estimated Free Energy of Binding    =  -4.27 kcal/mol  [=(1)+(2)+(3)-(4)]
DOCKED: USER
DOCKED: USER    (1) Final Intermolecular Energy     =  -5.77 kcal/mol
DOCKED: USER        vdW + Hbond + desolv Energy     =  -5.77 kcal/mol
DOCKED: USER        Electrostatic Energy            =  +0.00 kcal/mol
DOCKED: USER        Moving Ligand-Fixed Receptor    =  -5.77 kcal/mol
DOCKED: USER        Moving Ligand-Moving Receptor   =  +0.00 kcal/mol
DOCKED: USER    (2) Final Total Internal Energy     =  -1.39 kcal/mol
DOCKED: USER    (3) Torsional Free Energy           =  +1.49 kcal/mol
DOCKED: USER    (4) Unbound System's Energy         =  -1.39 kcal/mol
DOCKED: USER
DOCKED: USER
DOCKED: REMARK  5 active torsions:
DOCKED: REMARK  status: ('A' for Active; 'I' for Inactive)
DOCKED: REMARK    1  A    between atoms: C_2  and  C_19 
DOCKED: REMARK    2  A    between atoms: C_2  and  C_11 
DOCKED: REMARK    3  A    between atoms: C_19  and  C_20 
DOCKED: REMARK    4  A    between atoms: C_20  and  C_21 
DOCKED: REMARK    5  A    between atoms: C_21  and  N_22 
DOCKED: USER                              x       y       z     vdW  Elec       q    Type
DOCKED: USER                           _______ _______ _______ _____ _____    ______ ____
DOCKED: ROOT
DOCKED: ATOM      1  O   UNL     1     -57.337 -33.857   7.615 -0.04 -0.00    -0.346 OA 
DOCKED: ATOM      2  C   UNL     1     -58.797 -33.825   7.707 -0.13 +0.00    +0.130 C  
DOCKED: ATOM      3  C   UNL     1     -59.219 -35.171   7.195 -0.21 +0.00    +0.004 A  
DOCKED: ATOM      4  C   UNL     1     -58.097 -35.946   6.937 -0.25 +0.00    +0.006 A  
DOCKED: ATOM      5  C   UNL     1     -56.873 -35.183   7.268 -0.17 +0.00    +0.169 C  
DOCKED: ATOM      6  C   UNL     1     -60.495 -35.675   6.984 -0.22 -0.00    -0.001 A  
DOCKED: ATOM      7  C   UNL     1     -58.209 -37.241   6.460 -0.32 +0.00    +0.008 A  
DOCKED: ATOM      8  C   UNL     1     -60.625 -36.977   6.499 -0.23 +0.00    +0.010 A  
DOCKED: ATOM      9  C   UNL     1     -59.487 -37.756   6.239 -0.25 +0.00    +0.068 A  
DOCKED: ATOM     10  N   UNL     1     -59.764 -40.172   5.343 -2.55 -0.00    -0.191 NA 
DOCKED: ATOM     11  C   UNL     1     -59.640 -39.088   5.744 -0.35 +0.00    +0.101 C  
DOCKED: ENDROOT
DOCKED: BRANCH   2  12
DOCKED: ATOM     12  C   UNL     1     -59.184 -33.595   9.163 -0.04 +0.00    +0.038 C  
DOCKED: BRANCH  12  13
DOCKED: ATOM     13  C   UNL     1     -57.957 -33.598  10.072 -0.02 +0.00    +0.038 C  
DOCKED: BRANCH  13  14
DOCKED: ATOM     14  C   UNL     1     -57.797 -32.256  10.784 -0.00 +0.00    +0.251 C  
DOCKED: BRANCH  14  15
DOCKED: ATOM     15  N   UNL     1     -58.229 -31.167   9.915 -0.00 +0.00    +0.141 N  
DOCKED: ATOM     16  C   UNL     1     -58.713 -30.036  10.708 +0.00 +0.00    +0.285 C  
DOCKED: ATOM     17  C   UNL     1     -57.135 -30.742   9.039 -0.00 +0.00    +0.285 C  
DOCKED: ENDBRANCH  14  15
DOCKED: ENDBRANCH  13  14
DOCKED: ENDBRANCH  12  13
DOCKED: ENDBRANCH   2  12
DOCKED: BRANCH   2  18
DOCKED: ATOM     18  C   UNL     1     -59.264 -32.701   6.842 -0.18 +0.00    +0.006 A  
DOCKED: ATOM     19  C   UNL     1     -60.619 -32.378   6.791 -0.20 +0.00    +0.001 A  
DOCKED: ATOM     20  C   UNL     1     -61.054 -31.328   5.982 -0.15 +0.00    +0.029 A  
DOCKED: ATOM     21  C   UNL     1     -60.134 -30.603   5.226 -0.11 +0.00    +0.140 A  
DOCKED: ATOM     22  C   UNL     1     -58.779 -30.926   5.278 -0.16 +0.00    +0.029 A  
DOCKED: ATOM     23  F   UNL     1     -60.552 -29.593   4.451 -0.03 -0.00    -0.204 F  
DOCKED: ATOM     24  C   UNL     1     -58.343 -31.977   6.086 -0.15 +0.00    +0.001 A  
DOCKED: ENDBRANCH   2  18
DOCKED: TORSDOF 5
DOCKED: TER
DOCKED: ENDMDL
________________________________________________________________________________


    FINAL DOCKED STATE:
    ________________________


Run:   84 / 512
Time taken for this run:   0.002s

DOCKED: MODEL        84
DOCKED: USER    Run = 84
DOCKED: USER
DOCKED: USER    Estimated Free Energy of Binding    =  -4.68 kcal/mol  [=(1)+(2)+(3)-(4)]
DOCKED: USER
DOCKED: USER    (1) Final Intermolecular Energy     =  -6.17 kcal/mol
DOCKED: USER        vdW + Hbond + desolv Energy     =  -6.17 kcal/mol
DOCKED: USER        Electrostatic Energy            =  +0.00 kcal/mol
DOCKED: USER        Moving Ligand-Fixed Receptor    =  -6.17 kcal/mol
DOCKED: USER        Moving Ligand-Moving Receptor   =  +0.00 kcal/mol
DOCKED: USER    (2) Final Total Internal Energy     =  -1.17 kcal/mol
DOCKED: USER    (3) Torsional Free Energy           =  +1.49 kcal/mol
DOCKED: USER    (4) Unbound System's Energy         =  -1.17 kcal/mol
DOCKED: USER
DOCKED: USER
DOCKED: REMARK  5 active torsions:
DOCKED: REMARK  status: ('A' for Active; 'I' for Inactive)
DOCKED: REMARK    1  A    between atoms: C_2  and  C_19 
DOCKED: REMARK    2  A    between atoms: C_2  and  C_11 
DOCKED: REMARK    3  A    between atoms: C_19  and  C_20 
DOCKED: REMARK    4  A    between atoms: C_20  and  C_21 
DOCKED: REMARK    5  A    between atoms: C_21  and  N_22 
DOCKED: USER                              x       y       z     vdW  Elec       q    Type
DOCKED: USER                           _______ _______ _______ _____ _____    ______ ____
DOCKED: ROOT
DOCKED: ATOM      1  O   UNL     1     -54.956 -30.350   0.645 -0.07 -0.00    -0.346 OA 
DOCKED: ATOM      2  C   UNL     1     -53.760 -30.227  -0.191 -0.13 +0.00    +0.130 C  
DOCKED: ATOM      3  C   UNL     1     -54.237 -29.460  -1.390 -0.22 +0.00    +0.004 A  
DOCKED: ATOM      4  C   UNL     1     -55.560 -29.081  -1.206 -0.29 +0.00    +0.006 A  
DOCKED: ATOM      5  C   UNL     1     -56.039 -29.553   0.112 -0.28 +0.00    +0.169 C  
DOCKED: ATOM      6  C   UNL     1     -53.552 -29.115  -2.546 -0.18 -0.00    -0.001 A  
DOCKED: ATOM      7  C   UNL     1     -56.241 -28.353  -2.167 -0.36 +0.00    +0.008 A  
DOCKED: ATOM      8  C   UNL     1     -54.226 -28.384  -3.526 -0.25 +0.00    +0.010 A  
DOCKED: ATOM      9  C   UNL     1     -55.564 -28.005  -3.337 -0.27 +0.00    +0.068 A  
DOCKED: ATOM     10  N   UNL     1     -56.784 -26.646  -5.174 -2.44 -0.00    -0.191 NA 
DOCKED: ATOM     11  C   UNL     1     -56.237 -27.256  -4.350 -0.41 +0.00    +0.101 C  
DOCKED: ENDROOT
DOCKED: BRANCH   2  12
DOCKED: ATOM     12  C   UNL     1     -52.691 -29.484   0.602 -0.12 +0.00    +0.038 C  
DOCKED: BRANCH  12  13
DOCKED: ATOM     13  C   UNL     1     -52.599 -28.020   0.176 -0.08 +0.00    +0.038 C  
DOCKED: BRANCH  13  14
DOCKED: ATOM     14  C   UNL     1     -51.259 -27.728  -0.497 -0.08 +0.00    +0.251 C  
DOCKED: BRANCH  14  15
DOCKED: ATOM     15  N   UNL     1     -51.471 -27.078  -1.786 -0.07 +0.00    +0.141 N  
DOCKED: ATOM     16  C   UNL     1     -51.422 -25.622  -1.643 -0.08 +0.00    +0.285 C  
DOCKED: ATOM     17  C   UNL     1     -50.474 -27.526  -2.759 -0.00 +0.00    +0.285 C  
DOCKED: ENDBRANCH  14  15
DOCKED: ENDBRANCH  13  14
DOCKED: ENDBRANCH  12  13
DOCKED: ENDBRANCH   2  12
DOCKED: BRANCH   2  18
DOCKED: ATOM     18  C   UNL     1     -53.317 -31.612  -0.525 -0.11 +0.00    +0.006 A  
DOCKED: ATOM     19  C   UNL     1     -53.927 -32.706   0.088 -0.17 +0.00    +0.001 A  
DOCKED: ATOM     20  C   UNL     1     -53.512 -34.000  -0.225 -0.19 +0.00    +0.029 A  
DOCKED: ATOM     21  C   UNL     1     -52.488 -34.200  -1.150 -0.15 +0.00    +0.140 A  
DOCKED: ATOM     22  C   UNL     1     -51.878 -33.105  -1.763 -0.09 +0.00    +0.029 A  
DOCKED: ATOM     23  F   UNL     1     -52.091 -35.443  -1.452 -0.06 -0.00    -0.204 F  
DOCKED: ATOM     24  C   UNL     1     -52.293 -31.810  -1.450 -0.07 +0.00    +0.001 A  
DOCKED: ENDBRANCH   2  18
DOCKED: TORSDOF 5
DOCKED: TER
DOCKED: ENDMDL
________________________________________________________________________________


    FINAL DOCKED STATE:
    ________________________


Run:   85 / 512
Time taken for this run:   0.002s

DOCKED: MODEL        85
DOCKED: USER    Run = 85
DOCKED: USER
DOCKED: USER    Estimated Free Energy of Binding    =  -3.80 kcal/mol  [=(1)+(2)+(3)-(4)]
DOCKED: USER
DOCKED: USER    (1) Final Intermolecular Energy     =  -5.29 kcal/mol
DOCKED: USER        vdW + Hbond + desolv Energy     =  -5.29 kcal/mol
DOCKED: USER        Electrostatic Energy            =  +0.00 kcal/mol
DOCKED: USER        Moving Ligand-Fixed Receptor    =  -5.29 kcal/mol
DOCKED: USER        Moving Ligand-Moving Receptor   =  +0.00 kcal/mol
DOCKED: USER    (2) Final Total Internal Energy     =  -1.44 kcal/mol
DOCKED: USER    (3) Torsional Free Energy           =  +1.49 kcal/mol
DOCKED: USER    (4) Unbound System's Energy         =  -1.44 kcal/mol
DOCKED: USER
DOCKED: USER
DOCKED: REMARK  5 active torsions:
DOCKED: REMARK  status: ('A' for Active; 'I' for Inactive)
DOCKED: REMARK    1  A    between atoms: C_2  and  C_19 
DOCKED: REMARK    2  A    between atoms: C_2  and  C_11 
DOCKED: REMARK    3  A    between atoms: C_19  and  C_20 
DOCKED: REMARK    4  A    between atoms: C_20  and  C_21 
DOCKED: REMARK    5  A    between atoms: C_21  and  N_22 
DOCKED: USER                              x       y       z     vdW  Elec       q    Type
DOCKED: USER                           _______ _______ _______ _____ _____    ______ ____
DOCKED: ROOT
DOCKED: ATOM      1  O   UNL     1     -53.030 -32.836   2.256 -0.01 -0.00    -0.346 OA 
DOCKED: ATOM      2  C   UNL     1     -53.466 -33.823   1.267 -0.17 +0.00    +0.130 C  
DOCKED: ATOM      3  C   UNL     1     -52.980 -35.130   1.825 -0.23 +0.00    +0.004 A  
DOCKED: ATOM      4  C   UNL     1     -52.414 -34.923   3.074 -0.15 +0.00    +0.006 A  
DOCKED: ATOM      5  C   UNL     1     -52.496 -33.489   3.432 -0.08 +0.00    +0.169 C  
DOCKED: ATOM      6  C   UNL     1     -53.045 -36.402   1.275 -0.30 -0.00    -0.001 A  
DOCKED: ATOM      7  C   UNL     1     -51.892 -35.972   3.812 -0.14 +0.00    +0.008 A  
DOCKED: ATOM      8  C   UNL     1     -52.519 -37.469   2.004 -0.32 +0.00    +0.010 A  
DOCKED: ATOM      9  C   UNL     1     -51.946 -37.255   3.267 -0.18 +0.00    +0.068 A  
DOCKED: ATOM     10  N   UNL     1     -50.983 -39.259   4.596 -1.87 -0.00    -0.191 NA 
DOCKED: ATOM     11  C   UNL     1     -51.414 -38.360   4.000 -0.23 +0.00    +0.101 C  
DOCKED: ENDROOT
DOCKED: BRANCH   2  12
DOCKED: ATOM     12  C   UNL     1     -54.984 -33.754   1.153 -0.29 +0.00    +0.038 C  
DOCKED: BRANCH  12  13
DOCKED: ATOM     13  C   UNL     1     -55.433 -32.466   0.467 -0.21 +0.00    +0.038 C  
DOCKED: BRANCH  13  14
DOCKED: ATOM     14  C   UNL     1     -55.738 -31.375   1.491 -0.15 +0.00    +0.251 C  
DOCKED: BRANCH  14  15
DOCKED: ATOM     15  N   UNL     1     -54.602 -30.471   1.623 -0.10 +0.00    +0.141 N  
DOCKED: ATOM     16  C   UNL     1     -54.320 -29.806   0.350 -0.12 +0.00    +0.285 C  
DOCKED: ATOM     17  C   UNL     1     -54.852 -29.478   2.670 -0.12 +0.00    +0.285 C  
DOCKED: ENDBRANCH  14  15
DOCKED: ENDBRANCH  13  14
DOCKED: ENDBRANCH  12  13
DOCKED: ENDBRANCH   2  12
DOCKED: BRANCH   2  18
DOCKED: ATOM     18  C   UNL     1     -52.812 -33.464  -0.026 -0.14 +0.00    +0.006 A  
DOCKED: ATOM     19  C   UNL     1     -52.963 -34.293  -1.137 -0.18 +0.00    +0.001 A  
DOCKED: ATOM     20  C   UNL     1     -52.351 -33.956  -2.345 -0.19 +0.00    +0.029 A  
DOCKED: ATOM     21  C   UNL     1     -51.591 -32.791  -2.440 -0.05 +0.00    +0.140 A  
DOCKED: ATOM     22  C   UNL     1     -51.441 -31.962  -1.329 -0.02 +0.00    +0.029 A  
DOCKED: ATOM     23  F   UNL     1     -51.005 -32.467  -3.600 +0.00 -0.00    -0.204 F  
DOCKED: ATOM     24  C   UNL     1     -52.052 -32.299  -0.120 -0.05 +0.00    +0.001 A  
DOCKED: ENDBRANCH   2  18
DOCKED: TORSDOF 5
DOCKED: TER
DOCKED: ENDMDL
________________________________________________________________________________


    FINAL DOCKED STATE:
    ________________________


Run:   86 / 512
Time taken for this run:   0.002s

DOCKED: MODEL        86
DOCKED: USER    Run = 86
DOCKED: USER
DOCKED: USER    Estimated Free Energy of Binding    =  -4.87 kcal/mol  [=(1)+(2)+(3)-(4)]
DOCKED: USER
DOCKED: USER    (1) Final Intermolecular Energy     =  -6.36 kcal/mol
DOCKED: USER        vdW + Hbond + desolv Energy     =  -6.36 kcal/mol
DOCKED: USER        Electrostatic Energy            =  +0.00 kcal/mol
DOCKED: USER        Moving Ligand-Fixed Receptor    =  -6.36 kcal/mol
DOCKED: USER        Moving Ligand-Moving Receptor   =  +0.00 kcal/mol
DOCKED: USER    (2) Final Total Internal Energy     =  -1.22 kcal/mol
DOCKED: USER    (3) Torsional Free Energy           =  +1.49 kcal/mol
DOCKED: USER    (4) Unbound System's Energy         =  -1.22 kcal/mol
DOCKED: USER
DOCKED: USER
DOCKED: REMARK  5 active torsions:
DOCKED: REMARK  status: ('A' for Active; 'I' for Inactive)
DOCKED: REMARK    1  A    between atoms: C_2  and  C_19 
DOCKED: REMARK    2  A    between atoms: C_2  and  C_11 
DOCKED: REMARK    3  A    between atoms: C_19  and  C_20 
DOCKED: REMARK    4  A    between atoms: C_20  and  C_21 
DOCKED: REMARK    5  A    between atoms: C_21  and  N_22 
DOCKED: USER                              x       y       z     vdW  Elec       q    Type
DOCKED: USER                           _______ _______ _______ _____ _____    ______ ____
DOCKED: ROOT
DOCKED: ATOM      1  O   UNL     1     -58.509 -38.570   8.872 -0.06 -0.00    -0.346 OA 
DOCKED: ATOM      2  C   UNL     1     -58.203 -37.285   8.241 -0.14 +0.00    +0.130 C  
DOCKED: ATOM      3  C   UNL     1     -58.489 -37.522   6.786 -0.29 +0.00    +0.004 A  
DOCKED: ATOM      4  C   UNL     1     -59.017 -38.793   6.615 -0.31 +0.00    +0.006 A  
DOCKED: ATOM      5  C   UNL     1     -59.128 -39.472   7.925 -0.10 +0.00    +0.169 C  
DOCKED: ATOM      6  C   UNL     1     -58.307 -36.674   5.703 -0.32 -0.00    -0.001 A  
DOCKED: ATOM      7  C   UNL     1     -59.375 -39.262   5.362 -0.43 +0.00    +0.008 A  
DOCKED: ATOM      8  C   UNL     1     -58.659 -37.134   4.433 -0.01 +0.00    +0.010 A  
DOCKED: ATOM      9  C   UNL     1     -59.191 -38.421   4.264 -0.42 +0.00    +0.068 A  
DOCKED: ATOM     10  N   UNL     1     -59.839 -39.240   1.893 -2.43 -0.00    -0.191 NA 
DOCKED: ATOM     11  C   UNL     1     -59.548 -38.873   2.956 -0.42 +0.00    +0.101 C  
DOCKED: ENDROOT
DOCKED: BRANCH   2  12
DOCKED: ATOM     12  C   UNL     1     -59.102 -36.220   8.857 -0.09 +0.00    +0.038 C  
DOCKED: BRANCH  12  13
DOCKED: ATOM     13  C   UNL     1     -60.477 -36.198   8.193 -0.13 +0.00    +0.038 C  
DOCKED: BRANCH  13  14
DOCKED: ATOM     14  C   UNL     1     -60.577 -35.066   7.172 -0.15 +0.00    +0.251 C  
DOCKED: BRANCH  14  15
DOCKED: ATOM     15  N   UNL     1     -59.948 -33.858   7.692 -0.11 +0.00    +0.141 N  
DOCKED: ATOM     16  C   UNL     1     -58.851 -33.432   6.822 -0.14 +0.00    +0.285 C  
DOCKED: ATOM     17  C   UNL     1     -60.932 -32.783   7.831 -0.07 +0.00    +0.285 C  
DOCKED: ENDBRANCH  14  15
DOCKED: ENDBRANCH  13  14
DOCKED: ENDBRANCH  12  13
DOCKED: ENDBRANCH   2  12
DOCKED: BRANCH   2  18
DOCKED: ATOM     18  C   UNL     1     -56.764 -36.998   8.512 -0.18 +0.00    +0.006 A  
DOCKED: ATOM     19  C   UNL     1     -56.401 -35.831   9.183 -0.09 +0.00    +0.001 A  
DOCKED: ATOM     20  C   UNL     1     -55.054 -35.564   9.435 -0.07 +0.00    +0.029 A  
DOCKED: ATOM     21  C   UNL     1     -54.075 -36.463   9.017 -0.10 +0.00    +0.140 A  
DOCKED: ATOM     22  C   UNL     1     -54.439 -37.630   8.346 -0.12 +0.00    +0.029 A  
DOCKED: ATOM     23  F   UNL     1     -52.783 -36.207   9.261 -0.01 -0.00    -0.204 F  
DOCKED: ATOM     24  C   UNL     1     -55.785 -37.898   8.093 -0.17 +0.00    +0.001 A  
DOCKED: ENDBRANCH   2  18
DOCKED: TORSDOF 5
DOCKED: TER
DOCKED: ENDMDL
________________________________________________________________________________


    FINAL DOCKED STATE:
    ________________________


Run:   87 / 512
Time taken for this run:   0.002s

DOCKED: MODEL        87
DOCKED: USER    Run = 87
DOCKED: USER
DOCKED: USER    Estimated Free Energy of Binding    =  -3.51 kcal/mol  [=(1)+(2)+(3)-(4)]
DOCKED: USER
DOCKED: USER    (1) Final Intermolecular Energy     =  -5.00 kcal/mol
DOCKED: USER        vdW + Hbond + desolv Energy     =  -5.00 kcal/mol
DOCKED: USER        Electrostatic Energy            =  +0.00 kcal/mol
DOCKED: USER        Moving Ligand-Fixed Receptor    =  -5.00 kcal/mol
DOCKED: USER        Moving Ligand-Moving Receptor   =  +0.00 kcal/mol
DOCKED: USER    (2) Final Total Internal Energy     =  -1.53 kcal/mol
DOCKED: USER    (3) Torsional Free Energy           =  +1.49 kcal/mol
DOCKED: USER    (4) Unbound System's Energy         =  -1.53 kcal/mol
DOCKED: USER
DOCKED: USER
DOCKED: REMARK  5 active torsions:
DOCKED: REMARK  status: ('A' for Active; 'I' for Inactive)
DOCKED: REMARK    1  A    between atoms: C_2  and  C_19 
DOCKED: REMARK    2  A    between atoms: C_2  and  C_11 
DOCKED: REMARK    3  A    between atoms: C_19  and  C_20 
DOCKED: REMARK    4  A    between atoms: C_20  and  C_21 
DOCKED: REMARK    5  A    between atoms: C_21  and  N_22 
DOCKED: USER                              x       y       z     vdW  Elec       q    Type
DOCKED: USER                           _______ _______ _______ _____ _____    ______ ____
DOCKED: ROOT
DOCKED: ATOM      1  O   UNL     1     -58.215 -34.545   9.045 -0.00 -0.00    -0.346 OA 
DOCKED: ATOM      2  C   UNL     1     -57.663 -34.398   7.697 -0.13 +0.00    +0.130 C  
DOCKED: ATOM      3  C   UNL     1     -58.075 -35.663   7.001 -0.24 +0.00    +0.004 A  
DOCKED: ATOM      4  C   UNL     1     -58.884 -36.416   7.841 -0.15 +0.00    +0.006 A  
DOCKED: ATOM      5  C   UNL     1     -59.072 -35.707   9.126 -0.04 +0.00    +0.169 C  
DOCKED: ATOM      6  C   UNL     1     -57.768 -36.107   5.723 -0.11 -0.00    -0.001 A  
DOCKED: ATOM      7  C   UNL     1     -59.407 -37.633   7.437 -0.19 +0.00    +0.008 A  
DOCKED: ATOM      8  C   UNL     1     -58.284 -37.334   5.303 -0.33 +0.00    +0.010 A  
DOCKED: ATOM      9  C   UNL     1     -59.100 -38.092   6.155 -0.28 +0.00    +0.068 A  
DOCKED: ATOM     10  N   UNL     1     -60.046 -40.363   5.342 -2.43 -0.00    -0.191 NA 
DOCKED: ATOM     11  C   UNL     1     -59.621 -39.345   5.707 -0.33 +0.00    +0.101 C  
DOCKED: ENDROOT
DOCKED: BRANCH   2  12
DOCKED: ATOM     12  C   UNL     1     -58.264 -33.149   7.063 -0.17 +0.00    +0.038 C  
DOCKED: BRANCH  12  13
DOCKED: ATOM     13  C   UNL     1     -59.167 -32.406   8.045 -0.08 +0.00    +0.038 C  
DOCKED: BRANCH  13  14
DOCKED: ATOM     14  C   UNL     1     -58.409 -31.278   8.743 -0.01 +0.00    +0.251 C  
DOCKED: BRANCH  14  15
DOCKED: ATOM     15  N   UNL     1     -58.425 -31.475  10.187 -0.00 +0.00    +0.141 N  
DOCKED: ATOM     16  C   UNL     1     -59.559 -32.310  10.582 -0.00 +0.00    +0.285 C  
DOCKED: ATOM     17  C   UNL     1     -57.169 -32.077  10.639 -0.00 +0.00    +0.285 C  
DOCKED: ENDBRANCH  14  15
DOCKED: ENDBRANCH  13  14
DOCKED: ENDBRANCH  12  13
DOCKED: ENDBRANCH   2  12
DOCKED: BRANCH   2  18
DOCKED: ATOM     18  C   UNL     1     -56.184 -34.270   7.843 -0.11 +0.00    +0.006 A  
DOCKED: ATOM     19  C   UNL     1     -55.431 -35.354   8.293 -0.13 +0.00    +0.001 A  
DOCKED: ATOM     20  C   UNL     1     -54.048 -35.232   8.429 -0.10 +0.00    +0.029 A  
DOCKED: ATOM     21  C   UNL     1     -53.419 -34.028   8.114 -0.05 +0.00    +0.140 A  
DOCKED: ATOM     22  C   UNL     1     -54.173 -32.944   7.664 -0.05 +0.00    +0.029 A  
DOCKED: ATOM     23  F   UNL     1     -52.091 -33.912   8.243 -0.00 -0.00    -0.204 F  
DOCKED: ATOM     24  C   UNL     1     -55.557 -33.065   7.528 -0.08 +0.00    +0.001 A  
DOCKED: ENDBRANCH   2  18
DOCKED: TORSDOF 5
DOCKED: TER
DOCKED: ENDMDL
________________________________________________________________________________


    FINAL DOCKED STATE:
    ________________________


Run:   88 / 512
Time taken for this run:   0.002s

DOCKED: MODEL        88
DOCKED: USER    Run = 88
DOCKED: USER
DOCKED: USER    Estimated Free Energy of Binding    =  -3.67 kcal/mol  [=(1)+(2)+(3)-(4)]
DOCKED: USER
DOCKED: USER    (1) Final Intermolecular Energy     =  -5.16 kcal/mol
DOCKED: USER        vdW + Hbond + desolv Energy     =  -5.16 kcal/mol
DOCKED: USER        Electrostatic Energy            =  +0.00 kcal/mol
DOCKED: USER        Moving Ligand-Fixed Receptor    =  -5.16 kcal/mol
DOCKED: USER        Moving Ligand-Moving Receptor   =  +0.00 kcal/mol
DOCKED: USER    (2) Final Total Internal Energy     =  -1.19 kcal/mol
DOCKED: USER    (3) Torsional Free Energy           =  +1.49 kcal/mol
DOCKED: USER    (4) Unbound System's Energy         =  -1.19 kcal/mol
DOCKED: USER
DOCKED: USER
DOCKED: REMARK  5 active torsions:
DOCKED: REMARK  status: ('A' for Active; 'I' for Inactive)
DOCKED: REMARK    1  A    between atoms: C_2  and  C_19 
DOCKED: REMARK    2  A    between atoms: C_2  and  C_11 
DOCKED: REMARK    3  A    between atoms: C_19  and  C_20 
DOCKED: REMARK    4  A    between atoms: C_20  and  C_21 
DOCKED: REMARK    5  A    between atoms: C_21  and  N_22 
DOCKED: USER                              x       y       z     vdW  Elec       q    Type
DOCKED: USER                           _______ _______ _______ _____ _____    ______ ____
DOCKED: ROOT
DOCKED: ATOM      1  O   UNL     1     -51.361 -29.225  -1.705 +0.00 -0.00    -0.346 OA 
DOCKED: ATOM      2  C   UNL     1     -51.481 -27.791  -1.438 -0.08 +0.00    +0.130 C  
DOCKED: ATOM      3  C   UNL     1     -52.700 -27.382  -2.214 -0.15 +0.00    +0.004 A  
DOCKED: ATOM      4  C   UNL     1     -53.289 -28.503  -2.783 -0.16 +0.00    +0.006 A  
DOCKED: ATOM      5  C   UNL     1     -52.520 -29.714  -2.419 -0.07 +0.00    +0.169 C  
DOCKED: ATOM      6  C   UNL     1     -53.251 -26.121  -2.392 -0.24 -0.00    -0.001 A  
DOCKED: ATOM      7  C   UNL     1     -54.438 -28.403  -3.548 -0.25 +0.00    +0.008 A  
DOCKED: ATOM      8  C   UNL     1     -54.407 -26.003  -3.164 -0.25 +0.00    +0.010 A  
DOCKED: ATOM      9  C   UNL     1     -54.998 -27.139  -3.739 -0.35 +0.00    +0.068 A  
DOCKED: ATOM     10  N   UNL     1     -57.147 -26.885  -5.164 -2.56 -0.00    -0.191 NA 
DOCKED: ATOM     11  C   UNL     1     -56.183 -26.999  -4.525 -0.38 +0.00    +0.101 C  
DOCKED: ENDROOT
DOCKED: BRANCH   2  12
DOCKED: ATOM     12  C   UNL     1     -51.639 -27.590   0.064 -0.13 +0.00    +0.038 C  
DOCKED: BRANCH  12  13
DOCKED: ATOM     13  C   UNL     1     -51.569 -28.919   0.814 -0.10 +0.00    +0.038 C  
DOCKED: BRANCH  13  14
DOCKED: ATOM     14  C   UNL     1     -52.526 -28.929   2.004 -0.09 +0.00    +0.251 C  
DOCKED: BRANCH  14  15
DOCKED: ATOM     15  N   UNL     1     -53.670 -29.790   1.728 -0.10 +0.00    +0.141 N  
DOCKED: ATOM     16  C   UNL     1     -54.348 -29.369   0.501 -0.11 +0.00    +0.285 C  
DOCKED: ATOM     17  C   UNL     1     -53.250 -31.188   1.621 -0.03 +0.00    +0.285 C  
DOCKED: ENDBRANCH  14  15
DOCKED: ENDBRANCH  13  14
DOCKED: ENDBRANCH  12  13
DOCKED: ENDBRANCH   2  12
DOCKED: BRANCH   2  18
DOCKED: ATOM     18  C   UNL     1     -50.231 -27.147  -1.939 -0.04 +0.00    +0.006 A  
DOCKED: ATOM     19  C   UNL     1     -49.149 -27.936  -2.327 -0.01 +0.00    +0.001 A  
DOCKED: ATOM     20  C   UNL     1     -47.980 -27.334  -2.794 -0.00 +0.00    +0.029 A  
DOCKED: ATOM     21  C   UNL     1     -47.896 -25.944  -2.874 -0.00 +0.00    +0.140 A  
DOCKED: ATOM     22  C   UNL     1     -48.979 -25.156  -2.487 -0.02 +0.00    +0.029 A  
DOCKED: ATOM     23  F   UNL     1     -46.775 -25.366  -3.325 +0.00 -0.00    -0.204 F  
DOCKED: ATOM     24  C   UNL     1     -50.148 -25.758  -2.018 -0.05 +0.00    +0.001 A  
DOCKED: ENDBRANCH   2  18
DOCKED: TORSDOF 5
DOCKED: TER
DOCKED: ENDMDL
________________________________________________________________________________


    FINAL DOCKED STATE:
    ________________________


Run:   89 / 512
Time taken for this run:   0.002s

DOCKED: MODEL        89
DOCKED: USER    Run = 89
DOCKED: USER
DOCKED: USER    Estimated Free Energy of Binding    =  -4.09 kcal/mol  [=(1)+(2)+(3)-(4)]
DOCKED: USER
DOCKED: USER    (1) Final Intermolecular Energy     =  -5.58 kcal/mol
DOCKED: USER        vdW + Hbond + desolv Energy     =  -5.58 kcal/mol
DOCKED: USER        Electrostatic Energy            =  +0.00 kcal/mol
DOCKED: USER        Moving Ligand-Fixed Receptor    =  -5.58 kcal/mol
DOCKED: USER        Moving Ligand-Moving Receptor   =  +0.00 kcal/mol
DOCKED: USER    (2) Final Total Internal Energy     =  -1.25 kcal/mol
DOCKED: USER    (3) Torsional Free Energy           =  +1.49 kcal/mol
DOCKED: USER    (4) Unbound System's Energy         =  -1.25 kcal/mol
DOCKED: USER
DOCKED: USER
DOCKED: REMARK  5 active torsions:
DOCKED: REMARK  status: ('A' for Active; 'I' for Inactive)
DOCKED: REMARK    1  A    between atoms: C_2  and  C_19 
DOCKED: REMARK    2  A    between atoms: C_2  and  C_11 
DOCKED: REMARK    3  A    between atoms: C_19  and  C_20 
DOCKED: REMARK    4  A    between atoms: C_20  and  C_21 
DOCKED: REMARK    5  A    between atoms: C_21  and  N_22 
DOCKED: USER                              x       y       z     vdW  Elec       q    Type
DOCKED: USER                           _______ _______ _______ _____ _____    ______ ____
DOCKED: ROOT
DOCKED: ATOM      1  O   UNL     1     -51.082 -25.310  -1.590 -0.03 -0.00    -0.346 OA 
DOCKED: ATOM      2  C   UNL     1     -50.845 -25.294  -3.034 -0.07 +0.00    +0.130 C  
DOCKED: ATOM      3  C   UNL     1     -52.157 -25.731  -3.619 -0.14 +0.00    +0.004 A  
DOCKED: ATOM      4  C   UNL     1     -53.094 -25.877  -2.606 -0.23 +0.00    +0.006 A  
DOCKED: ATOM      5  C   UNL     1     -52.481 -25.539  -1.302 -0.16 +0.00    +0.169 C  
DOCKED: ATOM      6  C   UNL     1     -52.496 -25.969  -4.942 -0.18 -0.00    -0.001 A  
DOCKED: ATOM      7  C   UNL     1     -54.394 -26.268  -2.878 -0.32 +0.00    +0.008 A  
DOCKED: ATOM      8  C   UNL     1     -53.802 -26.369  -5.233 -0.28 +0.00    +0.010 A  
DOCKED: ATOM      9  C   UNL     1     -54.746 -26.516  -4.205 -0.35 +0.00    +0.068 A  
DOCKED: ATOM     10  N   UNL     1     -57.163 -27.254  -4.779 -2.52 -0.00    -0.191 NA 
DOCKED: ATOM     11  C   UNL     1     -56.079 -26.924  -4.522 -0.42 +0.00    +0.101 C  
DOCKED: ENDROOT
DOCKED: BRANCH   2  12
DOCKED: ATOM     12  C   UNL     1     -50.455 -23.879  -3.443 -0.11 +0.00    +0.038 C  
DOCKED: BRANCH  12  13
DOCKED: ATOM     13  C   UNL     1     -51.672 -22.956  -3.487 -0.14 +0.00    +0.038 C  
DOCKED: BRANCH  13  14
DOCKED: ATOM     14  C   UNL     1     -51.767 -22.111  -2.219 -0.10 +0.00    +0.251 C  
DOCKED: BRANCH  14  15
DOCKED: ATOM     15  N   UNL     1     -53.140 -21.668  -2.006 -0.17 +0.00    +0.141 N  
DOCKED: ATOM     16  C   UNL     1     -53.847 -22.589  -1.115 -0.23 +0.00    +0.285 C  
DOCKED: ATOM     17  C   UNL     1     -53.165 -20.312  -1.457 -0.06 +0.00    +0.285 C  
DOCKED: ENDBRANCH  14  15
DOCKED: ENDBRANCH  13  14
DOCKED: ENDBRANCH  12  13
DOCKED: ENDBRANCH   2  12
DOCKED: BRANCH   2  18
DOCKED: ATOM     18  C   UNL     1     -49.738 -26.257  -3.305 -0.03 +0.00    +0.006 A  
DOCKED: ATOM     19  C   UNL     1     -49.791 -27.547  -2.777 -0.02 +0.00    +0.001 A  
DOCKED: ATOM     20  C   UNL     1     -48.755 -28.446  -3.031 -0.00 +0.00    +0.029 A  
DOCKED: ATOM     21  C   UNL     1     -47.668 -28.056  -3.811 -0.00 +0.00    +0.140 A  
DOCKED: ATOM     22  C   UNL     1     -47.615 -26.766  -4.339 -0.00 +0.00    +0.029 A  
DOCKED: ATOM     23  F   UNL     1     -46.675 -28.920  -4.056 +0.00 -0.00    -0.204 F  
DOCKED: ATOM     24  C   UNL     1     -48.651 -25.865  -4.085 -0.02 +0.00    +0.001 A  
DOCKED: ENDBRANCH   2  18
DOCKED: TORSDOF 5
DOCKED: TER
DOCKED: ENDMDL
________________________________________________________________________________


    FINAL DOCKED STATE:
    ________________________


Run:   90 / 512
Time taken for this run:   0.002s

DOCKED: MODEL        90
DOCKED: USER    Run = 90
DOCKED: USER
DOCKED: USER    Estimated Free Energy of Binding    =  -4.36 kcal/mol  [=(1)+(2)+(3)-(4)]
DOCKED: USER
DOCKED: USER    (1) Final Intermolecular Energy     =  -5.86 kcal/mol
DOCKED: USER        vdW + Hbond + desolv Energy     =  -5.86 kcal/mol
DOCKED: USER        Electrostatic Energy            =  +0.00 kcal/mol
DOCKED: USER        Moving Ligand-Fixed Receptor    =  -5.86 kcal/mol
DOCKED: USER        Moving Ligand-Moving Receptor   =  +0.00 kcal/mol
DOCKED: USER    (2) Final Total Internal Energy     =  -0.97 kcal/mol
DOCKED: USER    (3) Torsional Free Energy           =  +1.49 kcal/mol
DOCKED: USER    (4) Unbound System's Energy         =  -0.97 kcal/mol
DOCKED: USER
DOCKED: USER
DOCKED: REMARK  5 active torsions:
DOCKED: REMARK  status: ('A' for Active; 'I' for Inactive)
DOCKED: REMARK    1  A    between atoms: C_2  and  C_19 
DOCKED: REMARK    2  A    between atoms: C_2  and  C_11 
DOCKED: REMARK    3  A    between atoms: C_19  and  C_20 
DOCKED: REMARK    4  A    between atoms: C_20  and  C_21 
DOCKED: REMARK    5  A    between atoms: C_21  and  N_22 
DOCKED: USER                              x       y       z     vdW  Elec       q    Type
DOCKED: USER                           _______ _______ _______ _____ _____    ______ ____
DOCKED: ROOT
DOCKED: ATOM      1  O   UNL     1     -60.325 -33.331   7.492 -0.07 -0.00    -0.346 OA 
DOCKED: ATOM      2  C   UNL     1     -58.913 -33.588   7.207 -0.17 +0.00    +0.130 C  
DOCKED: ATOM      3  C   UNL     1     -58.887 -35.030   6.789 -0.23 +0.00    +0.004 A  
DOCKED: ATOM      4  C   UNL     1     -60.183 -35.523   6.733 -0.19 +0.00    +0.006 A  
DOCKED: ATOM      5  C   UNL     1     -61.143 -34.456   7.092 -0.19 +0.00    +0.169 C  
DOCKED: ATOM      6  C   UNL     1     -57.804 -35.837   6.473 -0.28 -0.00    -0.001 A  
DOCKED: ATOM      7  C   UNL     1     -60.440 -36.833   6.366 -0.20 +0.00    +0.008 A  
DOCKED: ATOM      8  C   UNL     1     -58.046 -37.162   6.105 -0.34 +0.00    +0.010 A  
DOCKED: ATOM      9  C   UNL     1     -59.358 -37.657   6.051 -0.27 +0.00    +0.068 A  
DOCKED: ATOM     10  N   UNL     1     -59.773 -40.119   5.359 -2.55 -0.00    -0.191 NA 
DOCKED: ATOM     11  C   UNL     1     -59.587 -39.015   5.670 -0.37 +0.00    +0.101 C  
DOCKED: ENDROOT
DOCKED: BRANCH   2  12
DOCKED: ATOM     12  C   UNL     1     -58.464 -32.641   6.100 -0.12 +0.00    +0.038 C  
DOCKED: BRANCH  12  13
DOCKED: ATOM     13  C   UNL     1     -59.479 -31.521   5.879 -0.18 +0.00    +0.038 C  
DOCKED: BRANCH  13  14
DOCKED: ATOM     14  C   UNL     1     -58.821 -30.304   5.232 -0.11 +0.00    +0.251 C  
DOCKED: BRANCH  14  15
DOCKED: ATOM     15  N   UNL     1     -59.108 -30.272   3.803 -0.18 +0.00    +0.141 N  
DOCKED: ATOM     16  C   UNL     1     -59.928 -29.107   3.466 -0.13 +0.00    +0.285 C  
DOCKED: ATOM     17  C   UNL     1     -57.866 -30.260   3.029 -0.14 +0.00    +0.285 C  
DOCKED: ENDBRANCH  14  15
DOCKED: ENDBRANCH  13  14
DOCKED: ENDBRANCH  12  13
DOCKED: ENDBRANCH   2  12
DOCKED: BRANCH   2  18
DOCKED: ATOM     18  C   UNL     1     -58.160 -33.335   8.470 -0.06 +0.00    +0.006 A  
DOCKED: ATOM     19  C   UNL     1     -56.768 -33.264   8.449 -0.05 +0.00    +0.001 A  
DOCKED: ATOM     20  C   UNL     1     -56.065 -33.027   9.631 -0.01 +0.00    +0.029 A  
DOCKED: ATOM     21  C   UNL     1     -56.754 -32.862  10.831 -0.00 +0.00    +0.140 A  
DOCKED: ATOM     22  C   UNL     1     -58.147 -32.933  10.852 -0.00 +0.00    +0.029 A  
DOCKED: ATOM     23  F   UNL     1     -56.080 -32.633  11.965 -0.00 -0.00    -0.204 F  
DOCKED: ATOM     24  C   UNL     1     -58.851 -33.170   9.670 -0.02 +0.00    +0.001 A  
DOCKED: ENDBRANCH   2  18
DOCKED: TORSDOF 5
DOCKED: TER
DOCKED: ENDMDL
________________________________________________________________________________


    FINAL DOCKED STATE:
    ________________________


Run:   91 / 512
Time taken for this run:   0.002s

DOCKED: MODEL        91
DOCKED: USER    Run = 91
DOCKED: USER
DOCKED: USER    Estimated Free Energy of Binding    =  -4.82 kcal/mol  [=(1)+(2)+(3)-(4)]
DOCKED: USER
DOCKED: USER    (1) Final Intermolecular Energy     =  -6.31 kcal/mol
DOCKED: USER        vdW + Hbond + desolv Energy     =  -6.31 kcal/mol
DOCKED: USER        Electrostatic Energy            =  +0.00 kcal/mol
DOCKED: USER        Moving Ligand-Fixed Receptor    =  -6.31 kcal/mol
DOCKED: USER        Moving Ligand-Moving Receptor   =  +0.00 kcal/mol
DOCKED: USER    (2) Final Total Internal Energy     =  -1.02 kcal/mol
DOCKED: USER    (3) Torsional Free Energy           =  +1.49 kcal/mol
DOCKED: USER    (4) Unbound System's Energy         =  -1.02 kcal/mol
DOCKED: USER
DOCKED: USER
DOCKED: REMARK  5 active torsions:
DOCKED: REMARK  status: ('A' for Active; 'I' for Inactive)
DOCKED: REMARK    1  A    between atoms: C_2  and  C_19 
DOCKED: REMARK    2  A    between atoms: C_2  and  C_11 
DOCKED: REMARK    3  A    between atoms: C_19  and  C_20 
DOCKED: REMARK    4  A    between atoms: C_20  and  C_21 
DOCKED: REMARK    5  A    between atoms: C_21  and  N_22 
DOCKED: USER                              x       y       z     vdW  Elec       q    Type
DOCKED: USER                           _______ _______ _______ _____ _____    ______ ____
DOCKED: ROOT
DOCKED: ATOM      1  O   UNL     1     -61.591 -36.869   8.034 -0.01 -0.00    -0.346 OA 
DOCKED: ATOM      2  C   UNL     1     -60.175 -36.558   7.838 -0.12 +0.00    +0.130 C  
DOCKED: ATOM      3  C   UNL     1     -59.872 -37.108   6.474 -0.25 +0.00    +0.004 A  
DOCKED: ATOM      4  C   UNL     1     -61.037 -37.592   5.896 -0.26 +0.00    +0.006 A  
DOCKED: ATOM      5  C   UNL     1     -62.177 -37.387   6.817 -0.19 +0.00    +0.169 C  
DOCKED: ATOM      6  C   UNL     1     -58.663 -37.165   5.795 -0.35 -0.00    -0.001 A  
DOCKED: ATOM      7  C   UNL     1     -61.034 -38.151   4.630 -0.20 +0.00    +0.008 A  
DOCKED: ATOM      8  C   UNL     1     -58.644 -37.730   4.519 -0.36 +0.00    +0.010 A  
DOCKED: ATOM      9  C   UNL     1     -59.824 -38.219   3.939 -0.30 +0.00    +0.068 A  
DOCKED: ATOM     10  N   UNL     1     -59.753 -39.256   1.565 -2.52 -0.00    -0.191 NA 
DOCKED: ATOM     11  C   UNL     1     -59.785 -38.792   2.630 -0.28 +0.00    +0.101 C  
DOCKED: ENDROOT
DOCKED: BRANCH   2  12
DOCKED: ATOM     12  C   UNL     1     -59.997 -35.046   7.921 -0.15 +0.00    +0.038 C  
DOCKED: BRANCH  12  13
DOCKED: ATOM     13  C   UNL     1     -61.331 -34.319   7.765 -0.18 +0.00    +0.038 C  
DOCKED: BRANCH  13  14
DOCKED: ATOM     14  C   UNL     1     -61.263 -33.278   6.649 -0.16 +0.00    +0.251 C  
DOCKED: BRANCH  14  15
DOCKED: ATOM     15  N   UNL     1     -61.257 -31.932   7.211 -0.11 +0.00    +0.141 N  
DOCKED: ATOM     16  C   UNL     1     -61.772 -30.966   6.239 -0.09 +0.00    +0.285 C  
DOCKED: ATOM     17  C   UNL     1     -62.047 -31.884   8.442 -0.02 +0.00    +0.285 C  
DOCKED: ENDBRANCH  14  15
DOCKED: ENDBRANCH  13  14
DOCKED: ENDBRANCH  12  13
DOCKED: ENDBRANCH   2  12
DOCKED: BRANCH   2  18
DOCKED: ATOM     18  C   UNL     1     -59.421 -37.249   8.925 -0.09 +0.00    +0.006 A  
DOCKED: ATOM     19  C   UNL     1     -58.945 -36.520  10.014 -0.05 +0.00    +0.001 A  
DOCKED: ATOM     20  C   UNL     1     -58.240 -37.168  11.029 -0.05 +0.00    +0.029 A  
DOCKED: ATOM     21  C   UNL     1     -58.014 -38.541  10.955 -0.11 +0.00    +0.140 A  
DOCKED: ATOM     22  C   UNL     1     -58.491 -39.269   9.865 -0.22 +0.00    +0.029 A  
DOCKED: ATOM     23  F   UNL     1     -57.339 -39.163  11.931 -0.04 -0.00    -0.204 F  
DOCKED: ATOM     24  C   UNL     1     -59.196 -38.622   8.849 -0.19 +0.00    +0.001 A  
DOCKED: ENDBRANCH   2  18
DOCKED: TORSDOF 5
DOCKED: TER
DOCKED: ENDMDL
________________________________________________________________________________


    FINAL DOCKED STATE:
    ________________________


Run:   92 / 512
Time taken for this run:   0.002s

DOCKED: MODEL        92
DOCKED: USER    Run = 92
DOCKED: USER
DOCKED: USER    Estimated Free Energy of Binding    =  -4.14 kcal/mol  [=(1)+(2)+(3)-(4)]
DOCKED: USER
DOCKED: USER    (1) Final Intermolecular Energy     =  -5.63 kcal/mol
DOCKED: USER        vdW + Hbond + desolv Energy     =  -5.63 kcal/mol
DOCKED: USER        Electrostatic Energy            =  +0.00 kcal/mol
DOCKED: USER        Moving Ligand-Fixed Receptor    =  -5.63 kcal/mol
DOCKED: USER        Moving Ligand-Moving Receptor   =  +0.00 kcal/mol
DOCKED: USER    (2) Final Total Internal Energy     =  -1.27 kcal/mol
DOCKED: USER    (3) Torsional Free Energy           =  +1.49 kcal/mol
DOCKED: USER    (4) Unbound System's Energy         =  -1.27 kcal/mol
DOCKED: USER
DOCKED: USER
DOCKED: REMARK  5 active torsions:
DOCKED: REMARK  status: ('A' for Active; 'I' for Inactive)
DOCKED: REMARK    1  A    between atoms: C_2  and  C_19 
DOCKED: REMARK    2  A    between atoms: C_2  and  C_11 
DOCKED: REMARK    3  A    between atoms: C_19  and  C_20 
DOCKED: REMARK    4  A    between atoms: C_20  and  C_21 
DOCKED: REMARK    5  A    between atoms: C_21  and  N_22 
DOCKED: USER                              x       y       z     vdW  Elec       q    Type
DOCKED: USER                           _______ _______ _______ _____ _____    ______ ____
DOCKED: ROOT
DOCKED: ATOM      1  O   UNL     1     -59.647 -33.596   7.539 -0.06 -0.00    -0.346 OA 
DOCKED: ATOM      2  C   UNL     1     -58.243 -33.936   7.309 -0.15 +0.00    +0.130 C  
DOCKED: ATOM      3  C   UNL     1     -58.287 -35.373   6.875 -0.24 +0.00    +0.004 A  
DOCKED: ATOM      4  C   UNL     1     -59.607 -35.785   6.760 -0.23 +0.00    +0.006 A  
DOCKED: ATOM      5  C   UNL     1     -60.514 -34.664   7.091 -0.19 +0.00    +0.169 C  
DOCKED: ATOM      6  C   UNL     1     -57.243 -36.242   6.594 -0.22 -0.00    -0.001 A  
DOCKED: ATOM      7  C   UNL     1     -59.928 -37.073   6.366 -0.25 +0.00    +0.008 A  
DOCKED: ATOM      8  C   UNL     1     -57.550 -37.545   6.200 -0.30 +0.00    +0.010 A  
DOCKED: ATOM      9  C   UNL     1     -58.886 -37.958   6.086 -0.30 +0.00    +0.068 A  
DOCKED: ATOM     10  N   UNL     1     -59.421 -40.383   5.347 -2.62 -0.00    -0.191 NA 
DOCKED: ATOM     11  C   UNL     1     -59.181 -39.296   5.679 -0.37 +0.00    +0.101 C  
DOCKED: ENDROOT
DOCKED: BRANCH   2  12
DOCKED: ATOM     12  C   UNL     1     -57.691 -33.008   6.233 -0.08 +0.00    +0.038 C  
DOCKED: BRANCH  12  13
DOCKED: ATOM     13  C   UNL     1     -58.138 -31.565   6.460 -0.14 +0.00    +0.038 C  
DOCKED: BRANCH  13  14
DOCKED: ATOM     14  C   UNL     1     -59.446 -31.274   5.728 -0.12 +0.00    +0.251 C  
DOCKED: BRANCH  14  15
DOCKED: ATOM     15  N   UNL     1     -60.531 -31.085   6.684 -0.10 +0.00    +0.141 N  
DOCKED: ATOM     16  C   UNL     1     -60.599 -29.689   7.119 -0.02 +0.00    +0.285 C  
DOCKED: ATOM     17  C   UNL     1     -61.809 -31.498   6.101 -0.10 +0.00    +0.285 C  
DOCKED: ENDBRANCH  14  15
DOCKED: ENDBRANCH  13  14
DOCKED: ENDBRANCH  12  13
DOCKED: ENDBRANCH   2  12
DOCKED: BRANCH   2  18
DOCKED: ATOM     18  C   UNL     1     -57.529 -33.742   8.605 -0.05 +0.00    +0.006 A  
DOCKED: ATOM     19  C   UNL     1     -56.321 -34.397   8.840 -0.06 +0.00    +0.001 A  
DOCKED: ATOM     20  C   UNL     1     -55.655 -34.215  10.053 -0.02 +0.00    +0.029 A  
DOCKED: ATOM     21  C   UNL     1     -56.197 -33.379  11.028 -0.00 +0.00    +0.140 A  
DOCKED: ATOM     22  C   UNL     1     -57.406 -32.724  10.792 -0.00 +0.00    +0.029 A  
DOCKED: ATOM     23  F   UNL     1     -55.557 -33.203  12.191 -0.00 -0.00    -0.204 F  
DOCKED: ATOM     24  C   UNL     1     -58.073 -32.906   9.579 -0.02 +0.00    +0.001 A  
DOCKED: ENDBRANCH   2  18
DOCKED: TORSDOF 5
DOCKED: TER
DOCKED: ENDMDL
________________________________________________________________________________


    FINAL DOCKED STATE:
    ________________________


Run:   93 / 512
Time taken for this run:   0.002s

DOCKED: MODEL        93
DOCKED: USER    Run = 93
DOCKED: USER
DOCKED: USER    Estimated Free Energy of Binding    =  -5.65 kcal/mol  [=(1)+(2)+(3)-(4)]
DOCKED: USER
DOCKED: USER    (1) Final Intermolecular Energy     =  -7.14 kcal/mol
DOCKED: USER        vdW + Hbond + desolv Energy     =  -7.14 kcal/mol
DOCKED: USER        Electrostatic Energy            =  +0.00 kcal/mol
DOCKED: USER        Moving Ligand-Fixed Receptor    =  -7.14 kcal/mol
DOCKED: USER        Moving Ligand-Moving Receptor   =  +0.00 kcal/mol
DOCKED: USER    (2) Final Total Internal Energy     =  -1.02 kcal/mol
DOCKED: USER    (3) Torsional Free Energy           =  +1.49 kcal/mol
DOCKED: USER    (4) Unbound System's Energy         =  -1.02 kcal/mol
DOCKED: USER
DOCKED: USER
DOCKED: REMARK  5 active torsions:
DOCKED: REMARK  status: ('A' for Active; 'I' for Inactive)
DOCKED: REMARK    1  A    between atoms: C_2  and  C_19 
DOCKED: REMARK    2  A    between atoms: C_2  and  C_11 
DOCKED: REMARK    3  A    between atoms: C_19  and  C_20 
DOCKED: REMARK    4  A    between atoms: C_20  and  C_21 
DOCKED: REMARK    5  A    between atoms: C_21  and  N_22 
DOCKED: USER                              x       y       z     vdW  Elec       q    Type
DOCKED: USER                           _______ _______ _______ _____ _____    ______ ____
DOCKED: ROOT
DOCKED: ATOM      1  O   UNL     1     -57.884 -36.158   7.994 -0.04 -0.00    -0.346 OA 
DOCKED: ATOM      2  C   UNL     1     -57.282 -37.491   7.950 -0.22 +0.00    +0.130 C  
DOCKED: ATOM      3  C   UNL     1     -57.769 -38.063   6.651 -0.34 +0.00    +0.004 A  
DOCKED: ATOM      4  C   UNL     1     -58.495 -37.103   5.960 -0.34 +0.00    +0.006 A  
DOCKED: ATOM      5  C   UNL     1     -58.527 -35.843   6.737 -0.22 +0.00    +0.169 C  
DOCKED: ATOM      6  C   UNL     1     -57.577 -39.329   6.117 -0.42 -0.00    -0.001 A  
DOCKED: ATOM      7  C   UNL     1     -59.053 -37.373   4.723 -0.21 +0.00    +0.008 A  
DOCKED: ATOM      8  C   UNL     1     -58.137 -39.619   4.872 -0.37 +0.00    +0.010 A  
DOCKED: ATOM      9  C   UNL     1     -58.871 -38.645   4.178 -0.43 +0.00    +0.068 A  
DOCKED: ATOM     10  N   UNL     1     -59.894 -39.214   1.866 -2.48 -0.00    -0.191 NA 
DOCKED: ATOM     11  C   UNL     1     -59.436 -38.959   2.903 -0.45 +0.00    +0.101 C  
DOCKED: ENDROOT
DOCKED: BRANCH   2  12
DOCKED: ATOM     12  C   UNL     1     -55.766 -37.338   8.000 -0.23 +0.00    +0.038 C  
DOCKED: BRANCH  12  13
DOCKED: ATOM     13  C   UNL     1     -55.362 -35.897   8.307 -0.16 +0.00    +0.038 C  
DOCKED: BRANCH  13  14
DOCKED: ATOM     14  C   UNL     1     -53.891 -35.656   7.972 -0.07 +0.00    +0.251 C  
DOCKED: BRANCH  14  15
DOCKED: ATOM     15  N   UNL     1     -53.035 -36.231   9.004 -0.08 +0.00    +0.141 N  
DOCKED: ATOM     16  C   UNL     1     -53.803 -36.500  10.221 -0.05 +0.00    +0.285 C  
DOCKED: ATOM     17  C   UNL     1     -52.400 -37.459   8.522 -0.10 +0.00    +0.285 C  
DOCKED: ENDBRANCH  14  15
DOCKED: ENDBRANCH  13  14
DOCKED: ENDBRANCH  12  13
DOCKED: ENDBRANCH   2  12
DOCKED: BRANCH   2  18
DOCKED: ATOM     18  C   UNL     1     -57.787 -38.237   9.140 -0.18 +0.00    +0.006 A  
DOCKED: ATOM     19  C   UNL     1     -56.894 -38.681  10.114 -0.08 +0.00    +0.001 A  
DOCKED: ATOM     20  C   UNL     1     -57.368 -39.379  11.226 -0.22 +0.00    +0.029 A  
DOCKED: ATOM     21  C   UNL     1     -58.732 -39.630  11.363 -0.10 +0.00    +0.140 A  
DOCKED: ATOM     22  C   UNL     1     -59.625 -39.185  10.388 -0.15 +0.00    +0.029 A  
DOCKED: ATOM     23  F   UNL     1     -59.186 -40.298  12.431 -0.04 -0.00    -0.204 F  
DOCKED: ATOM     24  C   UNL     1     -59.152 -38.487   9.275 -0.17 +0.00    +0.001 A  
DOCKED: ENDBRANCH   2  18
DOCKED: TORSDOF 5
DOCKED: TER
DOCKED: ENDMDL
________________________________________________________________________________


    FINAL DOCKED STATE:
    ________________________


Run:   94 / 512
Time taken for this run:   0.002s

DOCKED: MODEL        94
DOCKED: USER    Run = 94
DOCKED: USER
DOCKED: USER    Estimated Free Energy of Binding    =  -4.22 kcal/mol  [=(1)+(2)+(3)-(4)]
DOCKED: USER
DOCKED: USER    (1) Final Intermolecular Energy     =  -5.71 kcal/mol
DOCKED: USER        vdW + Hbond + desolv Energy     =  -5.71 kcal/mol
DOCKED: USER        Electrostatic Energy            =  +0.00 kcal/mol
DOCKED: USER        Moving Ligand-Fixed Receptor    =  -5.71 kcal/mol
DOCKED: USER        Moving Ligand-Moving Receptor   =  +0.00 kcal/mol
DOCKED: USER    (2) Final Total Internal Energy     =  -1.38 kcal/mol
DOCKED: USER    (3) Torsional Free Energy           =  +1.49 kcal/mol
DOCKED: USER    (4) Unbound System's Energy         =  -1.38 kcal/mol
DOCKED: USER
DOCKED: USER
DOCKED: REMARK  5 active torsions:
DOCKED: REMARK  status: ('A' for Active; 'I' for Inactive)
DOCKED: REMARK    1  A    between atoms: C_2  and  C_19 
DOCKED: REMARK    2  A    between atoms: C_2  and  C_11 
DOCKED: REMARK    3  A    between atoms: C_19  and  C_20 
DOCKED: REMARK    4  A    between atoms: C_20  and  C_21 
DOCKED: REMARK    5  A    between atoms: C_21  and  N_22 
DOCKED: USER                              x       y       z     vdW  Elec       q    Type
DOCKED: USER                           _______ _______ _______ _____ _____    ______ ____
DOCKED: ROOT
DOCKED: ATOM      1  O   UNL     1     -57.532 -33.644   6.799 -0.08 -0.00    -0.346 OA 
DOCKED: ATOM      2  C   UNL     1     -58.707 -33.954   7.615 -0.14 +0.00    +0.130 C  
DOCKED: ATOM      3  C   UNL     1     -59.047 -35.366   7.233 -0.21 +0.00    +0.004 A  
DOCKED: ATOM      4  C   UNL     1     -58.087 -35.857   6.360 -0.28 +0.00    +0.006 A  
DOCKED: ATOM      5  C   UNL     1     -57.054 -34.826   6.117 -0.11 +0.00    +0.169 C  
DOCKED: ATOM      6  C   UNL     1     -60.114 -36.155   7.635 -0.16 -0.00    -0.001 A  
DOCKED: ATOM      7  C   UNL     1     -58.162 -37.145   5.858 -0.34 +0.00    +0.008 A  
DOCKED: ATOM      8  C   UNL     1     -60.206 -37.455   7.134 -0.20 +0.00    +0.010 A  
DOCKED: ATOM      9  C   UNL     1     -59.234 -37.947   6.250 -0.26 +0.00    +0.068 A  
DOCKED: ATOM     10  N   UNL     1     -59.432 -40.366   5.343 -2.60 -0.00    -0.191 NA 
DOCKED: ATOM     11  C   UNL     1     -59.343 -39.281   5.750 -0.36 +0.00    +0.101 C  
DOCKED: ENDROOT
DOCKED: BRANCH   2  12
DOCKED: ATOM     12  C   UNL     1     -58.326 -33.812   9.084 -0.04 +0.00    +0.038 C  
DOCKED: BRANCH  12  13
DOCKED: ATOM     13  C   UNL     1     -56.900 -33.288   9.241 -0.03 +0.00    +0.038 C  
DOCKED: BRANCH  13  14
DOCKED: ATOM     14  C   UNL     1     -56.883 -31.764   9.347 -0.00 +0.00    +0.251 C  
DOCKED: BRANCH  14  15
DOCKED: ATOM     15  N   UNL     1     -58.241 -31.236   9.278 -0.01 +0.00    +0.141 N  
DOCKED: ATOM     16  C   UNL     1     -58.841 -31.179  10.612 +0.00 +0.00    +0.285 C  
DOCKED: ATOM     17  C   UNL     1     -58.247 -29.908   8.662 -0.00 +0.00    +0.285 C  
DOCKED: ENDBRANCH  14  15
DOCKED: ENDBRANCH  13  14
DOCKED: ENDBRANCH  12  13
DOCKED: ENDBRANCH   2  12
DOCKED: BRANCH   2  18
DOCKED: ATOM     18  C   UNL     1     -59.770 -32.977   7.238 -0.18 +0.00    +0.006 A  
DOCKED: ATOM     19  C   UNL     1     -61.009 -33.015   7.876 -0.12 +0.00    +0.001 A  
DOCKED: ATOM     20  C   UNL     1     -62.003 -32.102   7.522 -0.12 +0.00    +0.029 A  
DOCKED: ATOM     21  C   UNL     1     -61.756 -31.152   6.531 -0.11 +0.00    +0.140 A  
DOCKED: ATOM     22  C   UNL     1     -60.516 -31.115   5.894 -0.16 +0.00    +0.029 A  
DOCKED: ATOM     23  F   UNL     1     -62.709 -30.274   6.193 -0.01 -0.00    -0.204 F  
DOCKED: ATOM     24  C   UNL     1     -59.522 -32.028   6.247 -0.19 +0.00    +0.001 A  
DOCKED: ENDBRANCH   2  18
DOCKED: TORSDOF 5
DOCKED: TER
DOCKED: ENDMDL
________________________________________________________________________________


    FINAL DOCKED STATE:
    ________________________


Run:   95 / 512
Time taken for this run:   0.002s

DOCKED: MODEL        95
DOCKED: USER    Run = 95
DOCKED: USER
DOCKED: USER    Estimated Free Energy of Binding    =  -3.78 kcal/mol  [=(1)+(2)+(3)-(4)]
DOCKED: USER
DOCKED: USER    (1) Final Intermolecular Energy     =  -5.27 kcal/mol
DOCKED: USER        vdW + Hbond + desolv Energy     =  -5.27 kcal/mol
DOCKED: USER        Electrostatic Energy            =  +0.00 kcal/mol
DOCKED: USER        Moving Ligand-Fixed Receptor    =  -5.27 kcal/mol
DOCKED: USER        Moving Ligand-Moving Receptor   =  +0.00 kcal/mol
DOCKED: USER    (2) Final Total Internal Energy     =  -1.22 kcal/mol
DOCKED: USER    (3) Torsional Free Energy           =  +1.49 kcal/mol
DOCKED: USER    (4) Unbound System's Energy         =  -1.22 kcal/mol
DOCKED: USER
DOCKED: USER
DOCKED: REMARK  5 active torsions:
DOCKED: REMARK  status: ('A' for Active; 'I' for Inactive)
DOCKED: REMARK    1  A    between atoms: C_2  and  C_19 
DOCKED: REMARK    2  A    between atoms: C_2  and  C_11 
DOCKED: REMARK    3  A    between atoms: C_19  and  C_20 
DOCKED: REMARK    4  A    between atoms: C_20  and  C_21 
DOCKED: REMARK    5  A    between atoms: C_21  and  N_22 
DOCKED: USER                              x       y       z     vdW  Elec       q    Type
DOCKED: USER                           _______ _______ _______ _____ _____    ______ ____
DOCKED: ROOT
DOCKED: ATOM      1  O   UNL     1     -58.517 -34.489   9.212 -0.00 -0.00    -0.346 OA 
DOCKED: ATOM      2  C   UNL     1     -58.000 -34.239   7.866 -0.11 +0.00    +0.130 C  
DOCKED: ATOM      3  C   UNL     1     -58.264 -35.523   7.134 -0.22 +0.00    +0.004 A  
DOCKED: ATOM      4  C   UNL     1     -58.970 -36.391   7.955 -0.13 +0.00    +0.006 A  
DOCKED: ATOM      5  C   UNL     1     -59.229 -35.748   9.263 -0.04 +0.00    +0.169 C  
DOCKED: ATOM      6  C   UNL     1     -57.918 -35.890   5.842 -0.15 -0.00    -0.001 A  
DOCKED: ATOM      7  C   UNL     1     -59.348 -37.649   7.518 -0.18 +0.00    +0.008 A  
DOCKED: ATOM      8  C   UNL     1     -58.288 -37.157   5.388 -0.33 +0.00    +0.010 A  
DOCKED: ATOM      9  C   UNL     1     -59.000 -38.032   6.222 -0.28 +0.00    +0.068 A  
DOCKED: ATOM     10  N   UNL     1     -59.676 -40.374   5.346 -2.57 -0.00    -0.191 NA 
DOCKED: ATOM     11  C   UNL     1     -59.372 -39.324   5.739 -0.34 +0.00    +0.101 C  
DOCKED: ENDROOT
DOCKED: BRANCH   2  12
DOCKED: ATOM     12  C   UNL     1     -58.751 -33.053   7.272 -0.16 +0.00    +0.038 C  
DOCKED: BRANCH  12  13
DOCKED: ATOM     13  C   UNL     1     -57.991 -32.444   6.096 -0.12 +0.00    +0.038 C  
DOCKED: BRANCH  13  14
DOCKED: ATOM     14  C   UNL     1     -57.581 -31.003   6.392 -0.07 +0.00    +0.251 C  
DOCKED: BRANCH  14  15
DOCKED: ATOM     15  N   UNL     1     -56.188 -30.785   6.022 -0.05 +0.00    +0.141 N  
DOCKED: ATOM     16  C   UNL     1     -55.777 -31.727   4.980 -0.06 +0.00    +0.285 C  
DOCKED: ATOM     17  C   UNL     1     -55.983 -29.408   5.571 -0.03 +0.00    +0.285 C  
DOCKED: ENDBRANCH  14  15
DOCKED: ENDBRANCH  13  14
DOCKED: ENDBRANCH  12  13
DOCKED: ENDBRANCH   2  12
DOCKED: BRANCH   2  18
DOCKED: ATOM     18  C   UNL     1     -56.545 -33.939   8.006 -0.09 +0.00    +0.006 A  
DOCKED: ATOM     19  C   UNL     1     -56.120 -32.952   8.895 -0.03 +0.00    +0.001 A  
DOCKED: ATOM     20  C   UNL     1     -54.759 -32.672   9.026 -0.02 +0.00    +0.029 A  
DOCKED: ATOM     21  C   UNL     1     -53.826 -33.379   8.268 -0.03 +0.00    +0.140 A  
DOCKED: ATOM     22  C   UNL     1     -54.252 -34.366   7.380 -0.11 +0.00    +0.029 A  
DOCKED: ATOM     23  F   UNL     1     -52.520 -33.112   8.395 -0.00 -0.00    -0.204 F  
DOCKED: ATOM     24  C   UNL     1     -55.613 -34.646   7.248 -0.15 +0.00    +0.001 A  
DOCKED: ENDBRANCH   2  18
DOCKED: TORSDOF 5
DOCKED: TER
DOCKED: ENDMDL
________________________________________________________________________________


    FINAL DOCKED STATE:
    ________________________


Run:   96 / 512
Time taken for this run:   0.002s

DOCKED: MODEL        96
DOCKED: USER    Run = 96
DOCKED: USER
DOCKED: USER    Estimated Free Energy of Binding    =  -3.92 kcal/mol  [=(1)+(2)+(3)-(4)]
DOCKED: USER
DOCKED: USER    (1) Final Intermolecular Energy     =  -5.41 kcal/mol
DOCKED: USER        vdW + Hbond + desolv Energy     =  -5.41 kcal/mol
DOCKED: USER        Electrostatic Energy            =  +0.00 kcal/mol
DOCKED: USER        Moving Ligand-Fixed Receptor    =  -5.41 kcal/mol
DOCKED: USER        Moving Ligand-Moving Receptor   =  +0.00 kcal/mol
DOCKED: USER    (2) Final Total Internal Energy     =  -1.53 kcal/mol
DOCKED: USER    (3) Torsional Free Energy           =  +1.49 kcal/mol
DOCKED: USER    (4) Unbound System's Energy         =  -1.53 kcal/mol
DOCKED: USER
DOCKED: USER
DOCKED: REMARK  5 active torsions:
DOCKED: REMARK  status: ('A' for Active; 'I' for Inactive)
DOCKED: REMARK    1  A    between atoms: C_2  and  C_19 
DOCKED: REMARK    2  A    between atoms: C_2  and  C_11 
DOCKED: REMARK    3  A    between atoms: C_19  and  C_20 
DOCKED: REMARK    4  A    between atoms: C_20  and  C_21 
DOCKED: REMARK    5  A    between atoms: C_21  and  N_22 
DOCKED: USER                              x       y       z     vdW  Elec       q    Type
DOCKED: USER                           _______ _______ _______ _____ _____    ______ ____
DOCKED: ROOT
DOCKED: ATOM      1  O   UNL     1     -49.808 -34.939   0.528 +0.01 -0.00    -0.346 OA 
DOCKED: ATOM      2  C   UNL     1     -51.269 -34.899   0.462 -0.08 +0.00    +0.130 C  
DOCKED: ATOM      3  C   UNL     1     -51.695 -36.158   1.159 -0.17 +0.00    +0.004 A  
DOCKED: ATOM      4  C   UNL     1     -50.582 -36.806   1.676 -0.10 +0.00    +0.006 A  
DOCKED: ATOM      5  C   UNL     1     -49.361 -36.025   1.372 -0.02 +0.00    +0.169 C  
DOCKED: ATOM      6  C   UNL     1     -52.968 -36.683   1.332 -0.29 -0.00    -0.001 A  
DOCKED: ATOM      7  C   UNL     1     -50.699 -37.995   2.375 -0.17 +0.00    +0.008 A  
DOCKED: ATOM      8  C   UNL     1     -53.102 -37.884   2.031 -0.20 +0.00    +0.010 A  
DOCKED: ATOM      9  C   UNL     1     -51.974 -38.536   2.550 -0.30 +0.00    +0.068 A  
DOCKED: ATOM     10  N   UNL     1     -52.260 -40.760   3.847 -2.53 -0.00    -0.191 NA 
DOCKED: ATOM     11  C   UNL     1     -52.131 -39.763   3.265 -0.34 +0.00    +0.101 C  
DOCKED: ENDROOT
DOCKED: BRANCH   2  12
DOCKED: ATOM     12  C   UNL     1     -51.750 -33.637   1.169 -0.06 +0.00    +0.038 C  
DOCKED: BRANCH  12  13
DOCKED: ATOM     13  C   UNL     1     -50.611 -32.639   1.363 -0.01 +0.00    +0.038 C  
DOCKED: BRANCH  13  14
DOCKED: ATOM     14  C   UNL     1     -50.319 -31.880   0.070 -0.00 +0.00    +0.251 C  
DOCKED: BRANCH  14  15
DOCKED: ATOM     15  N   UNL     1     -49.049 -32.316  -0.498 -0.00 +0.00    +0.141 N  
DOCKED: ATOM     16  C   UNL     1     -49.146 -32.425  -1.955 +0.00 +0.00    +0.285 C  
DOCKED: ATOM     17  C   UNL     1     -47.975 -31.392  -0.129 +0.00 +0.00    +0.285 C  
DOCKED: ENDBRANCH  14  15
DOCKED: ENDBRANCH  13  14
DOCKED: ENDBRANCH  12  13
DOCKED: ENDBRANCH   2  12
DOCKED: BRANCH   2  18
DOCKED: ATOM     18  C   UNL     1     -51.640 -34.880  -0.984 -0.14 +0.00    +0.006 A  
DOCKED: ATOM     19  C   UNL     1     -52.618 -33.998  -1.441 -0.19 +0.00    +0.001 A  
DOCKED: ATOM     20  C   UNL     1     -52.964 -33.982  -2.792 -0.23 +0.00    +0.029 A  
DOCKED: ATOM     21  C   UNL     1     -52.332 -34.847  -3.684 -0.21 +0.00    +0.140 A  
DOCKED: ATOM     22  C   UNL     1     -51.353 -35.729  -3.226 -0.17 +0.00    +0.029 A  
DOCKED: ATOM     23  F   UNL     1     -52.663 -34.830  -4.982 -0.09 -0.00    -0.204 F  
DOCKED: ATOM     24  C   UNL     1     -51.007 -35.746  -1.874 -0.13 +0.00    +0.001 A  
DOCKED: ENDBRANCH   2  18
DOCKED: TORSDOF 5
DOCKED: TER
DOCKED: ENDMDL
________________________________________________________________________________


    FINAL DOCKED STATE:
    ________________________


Run:   97 / 512
Time taken for this run:   0.002s

DOCKED: MODEL        97
DOCKED: USER    Run = 97
DOCKED: USER
DOCKED: USER    Estimated Free Energy of Binding    =  -5.49 kcal/mol  [=(1)+(2)+(3)-(4)]
DOCKED: USER
DOCKED: USER    (1) Final Intermolecular Energy     =  -6.98 kcal/mol
DOCKED: USER        vdW + Hbond + desolv Energy     =  -6.98 kcal/mol
DOCKED: USER        Electrostatic Energy            =  +0.00 kcal/mol
DOCKED: USER        Moving Ligand-Fixed Receptor    =  -6.98 kcal/mol
DOCKED: USER        Moving Ligand-Moving Receptor   =  +0.00 kcal/mol
DOCKED: USER    (2) Final Total Internal Energy     =  -1.18 kcal/mol
DOCKED: USER    (3) Torsional Free Energy           =  +1.49 kcal/mol
DOCKED: USER    (4) Unbound System's Energy         =  -1.18 kcal/mol
DOCKED: USER
DOCKED: USER
DOCKED: REMARK  5 active torsions:
DOCKED: REMARK  status: ('A' for Active; 'I' for Inactive)
DOCKED: REMARK    1  A    between atoms: C_2  and  C_19 
DOCKED: REMARK    2  A    between atoms: C_2  and  C_11 
DOCKED: REMARK    3  A    between atoms: C_19  and  C_20 
DOCKED: REMARK    4  A    between atoms: C_20  and  C_21 
DOCKED: REMARK    5  A    between atoms: C_21  and  N_22 
DOCKED: USER                              x       y       z     vdW  Elec       q    Type
DOCKED: USER                           _______ _______ _______ _____ _____    ______ ____
DOCKED: ROOT
DOCKED: ATOM      1  O   UNL     1     -56.631 -39.372   8.107 -0.08 -0.00    -0.346 OA 
DOCKED: ATOM      2  C   UNL     1     -57.042 -37.974   7.979 -0.25 +0.00    +0.130 C  
DOCKED: ATOM      3  C   UNL     1     -57.675 -37.908   6.619 -0.33 +0.00    +0.004 A  
DOCKED: ATOM      4  C   UNL     1     -57.722 -39.179   6.064 -0.42 +0.00    +0.006 A  
DOCKED: ATOM      5  C   UNL     1     -57.144 -40.161   7.008 -0.03 +0.00    +0.169 C  
DOCKED: ATOM      6  C   UNL     1     -58.180 -36.813   5.933 -0.33 -0.00    -0.001 A  
DOCKED: ATOM      7  C   UNL     1     -58.267 -39.398   4.810 -0.44 +0.00    +0.008 A  
DOCKED: ATOM      8  C   UNL     1     -58.728 -37.016   4.666 +0.00 +0.00    +0.010 A  
DOCKED: ATOM      9  C   UNL     1     -58.772 -38.303   4.108 -0.38 +0.00    +0.068 A  
DOCKED: ATOM     10  N   UNL     1     -59.802 -38.647   1.755 -2.87 -0.00    -0.191 NA 
DOCKED: ATOM     11  C   UNL     1     -59.339 -38.492   2.810 -0.43 +0.00    +0.101 C  
DOCKED: ENDROOT
DOCKED: BRANCH   2  12
DOCKED: ATOM     12  C   UNL     1     -58.019 -37.653   9.104 -0.16 +0.00    +0.038 C  
DOCKED: BRANCH  12  13
DOCKED: ATOM     13  C   UNL     1     -58.538 -38.926   9.770 -0.23 +0.00    +0.038 C  
DOCKED: BRANCH  13  14
DOCKED: ATOM     14  C   UNL     1     -59.994 -38.764  10.204 -0.08 +0.00    +0.251 C  
DOCKED: BRANCH  14  15
DOCKED: ATOM     15  N   UNL     1     -60.862 -39.607   9.391 -0.15 +0.00    +0.141 N  
DOCKED: ATOM     16  C   UNL     1     -62.269 -39.278   9.627 -0.06 +0.00    +0.285 C  
DOCKED: ATOM     17  C   UNL     1     -60.539 -39.462   7.971 -0.08 +0.00    +0.285 C  
DOCKED: ENDBRANCH  14  15
DOCKED: ENDBRANCH  13  14
DOCKED: ENDBRANCH  12  13
DOCKED: ENDBRANCH   2  12
DOCKED: BRANCH   2  18
DOCKED: ATOM     18  C   UNL     1     -55.806 -37.144   8.086 -0.20 +0.00    +0.006 A  
DOCKED: ATOM     19  C   UNL     1     -55.900 -35.753   8.097 -0.15 +0.00    +0.001 A  
DOCKED: ATOM     20  C   UNL     1     -54.744 -34.978   8.197 -0.11 +0.00    +0.029 A  
DOCKED: ATOM     21  C   UNL     1     -53.497 -35.595   8.286 -0.09 +0.00    +0.140 A  
DOCKED: ATOM     22  C   UNL     1     -53.404 -36.986   8.275 -0.15 +0.00    +0.029 A  
DOCKED: ATOM     23  F   UNL     1     -52.387 -34.851   8.383 -0.01 -0.00    -0.204 F  
DOCKED: ATOM     24  C   UNL     1     -54.560 -37.762   8.174 +0.03 +0.00    +0.001 A  
DOCKED: ENDBRANCH   2  18
DOCKED: TORSDOF 5
DOCKED: TER
DOCKED: ENDMDL
________________________________________________________________________________


    FINAL DOCKED STATE:
    ________________________


Run:   98 / 512
Time taken for this run:   0.002s

DOCKED: MODEL        98
DOCKED: USER    Run = 98
DOCKED: USER
DOCKED: USER    Estimated Free Energy of Binding    =  -4.04 kcal/mol  [=(1)+(2)+(3)-(4)]
DOCKED: USER
DOCKED: USER    (1) Final Intermolecular Energy     =  -5.53 kcal/mol
DOCKED: USER        vdW + Hbond + desolv Energy     =  -5.53 kcal/mol
DOCKED: USER        Electrostatic Energy            =  +0.00 kcal/mol
DOCKED: USER        Moving Ligand-Fixed Receptor    =  -5.53 kcal/mol
DOCKED: USER        Moving Ligand-Moving Receptor   =  +0.00 kcal/mol
DOCKED: USER    (2) Final Total Internal Energy     =  -1.44 kcal/mol
DOCKED: USER    (3) Torsional Free Energy           =  +1.49 kcal/mol
DOCKED: USER    (4) Unbound System's Energy         =  -1.44 kcal/mol
DOCKED: USER
DOCKED: USER
DOCKED: REMARK  5 active torsions:
DOCKED: REMARK  status: ('A' for Active; 'I' for Inactive)
DOCKED: REMARK    1  A    between atoms: C_2  and  C_19 
DOCKED: REMARK    2  A    between atoms: C_2  and  C_11 
DOCKED: REMARK    3  A    between atoms: C_19  and  C_20 
DOCKED: REMARK    4  A    between atoms: C_20  and  C_21 
DOCKED: REMARK    5  A    between atoms: C_21  and  N_22 
DOCKED: USER                              x       y       z     vdW  Elec       q    Type
DOCKED: USER                           _______ _______ _______ _____ _____    ______ ____
DOCKED: ROOT
DOCKED: ATOM      1  O   UNL     1     -60.500 -33.761   7.765 -0.05 -0.00    -0.346 OA 
DOCKED: ATOM      2  C   UNL     1     -59.138 -33.825   7.234 -0.18 +0.00    +0.130 C  
DOCKED: ATOM      3  C   UNL     1     -59.001 -35.245   6.765 -0.23 +0.00    +0.004 A  
DOCKED: ATOM      4  C   UNL     1     -60.213 -35.904   6.913 -0.22 +0.00    +0.006 A  
DOCKED: ATOM      5  C   UNL     1     -61.225 -34.978   7.469 -0.16 +0.00    +0.169 C  
DOCKED: ATOM      6  C   UNL     1     -57.896 -35.897   6.239 -0.28 -0.00    -0.001 A  
DOCKED: ATOM      7  C   UNL     1     -60.361 -37.231   6.547 -0.24 +0.00    +0.008 A  
DOCKED: ATOM      8  C   UNL     1     -58.027 -37.237   5.869 -0.33 +0.00    +0.010 A  
DOCKED: ATOM      9  C   UNL     1     -59.254 -37.900   6.022 -0.28 +0.00    +0.068 A  
DOCKED: ATOM     10  N   UNL     1     -59.466 -40.385   5.320 -2.59 -0.00    -0.191 NA 
DOCKED: ATOM     11  C   UNL     1     -59.371 -39.271   5.635 -0.38 +0.00    +0.101 C  
DOCKED: ENDROOT
DOCKED: BRANCH   2  12
DOCKED: ATOM     12  C   UNL     1     -59.013 -32.812   6.102 -0.14 +0.00    +0.038 C  
DOCKED: BRANCH  12  13
DOCKED: ATOM     13  C   UNL     1     -60.083 -31.726   6.207 -0.20 +0.00    +0.038 C  
DOCKED: BRANCH  13  14
DOCKED: ATOM     14  C   UNL     1     -59.713 -30.691   7.268 -0.04 +0.00    +0.251 C  
DOCKED: BRANCH  14  15
DOCKED: ATOM     15  N   UNL     1     -60.820 -30.501   8.198 -0.02 +0.00    +0.141 N  
DOCKED: ATOM     16  C   UNL     1     -60.339 -30.513   9.581 -0.00 +0.00    +0.285 C  
DOCKED: ATOM     17  C   UNL     1     -61.521 -29.248   7.916 -0.00 +0.00    +0.285 C  
DOCKED: ENDBRANCH  14  15
DOCKED: ENDBRANCH  13  14
DOCKED: ENDBRANCH  12  13
DOCKED: ENDBRANCH   2  12
DOCKED: BRANCH   2  18
DOCKED: ATOM     18  C   UNL     1     -58.215 -33.493   8.358 -0.07 +0.00    +0.006 A  
DOCKED: ATOM     19  C   UNL     1     -56.921 -33.050   8.090 -0.06 +0.00    +0.001 A  
DOCKED: ATOM     20  C   UNL     1     -56.058 -32.740   9.142 -0.02 +0.00    +0.029 A  
DOCKED: ATOM     21  C   UNL     1     -56.491 -32.872  10.460 -0.00 +0.00    +0.140 A  
DOCKED: ATOM     22  C   UNL     1     -57.786 -33.315  10.729 -0.01 +0.00    +0.029 A  
DOCKED: ATOM     23  F   UNL     1     -55.664 -32.573  11.470 -0.00 -0.00    -0.204 F  
DOCKED: ATOM     24  C   UNL     1     -58.650 -33.626   9.677 -0.02 +0.00    +0.001 A  
DOCKED: ENDBRANCH   2  18
DOCKED: TORSDOF 5
DOCKED: TER
DOCKED: ENDMDL
________________________________________________________________________________


    FINAL DOCKED STATE:
    ________________________


Run:   99 / 512
Time taken for this run:   0.002s

DOCKED: MODEL        99
DOCKED: USER    Run = 99
DOCKED: USER
DOCKED: USER    Estimated Free Energy of Binding    =  -4.36 kcal/mol  [=(1)+(2)+(3)-(4)]
DOCKED: USER
DOCKED: USER    (1) Final Intermolecular Energy     =  -5.86 kcal/mol
DOCKED: USER        vdW + Hbond + desolv Energy     =  -5.86 kcal/mol
DOCKED: USER        Electrostatic Energy            =  +0.00 kcal/mol
DOCKED: USER        Moving Ligand-Fixed Receptor    =  -5.86 kcal/mol
DOCKED: USER        Moving Ligand-Moving Receptor   =  +0.00 kcal/mol
DOCKED: USER    (2) Final Total Internal Energy     =  -1.46 kcal/mol
DOCKED: USER    (3) Torsional Free Energy           =  +1.49 kcal/mol
DOCKED: USER    (4) Unbound System's Energy         =  -1.46 kcal/mol
DOCKED: USER
DOCKED: USER
DOCKED: REMARK  5 active torsions:
DOCKED: REMARK  status: ('A' for Active; 'I' for Inactive)
DOCKED: REMARK    1  A    between atoms: C_2  and  C_19 
DOCKED: REMARK    2  A    between atoms: C_2  and  C_11 
DOCKED: REMARK    3  A    between atoms: C_19  and  C_20 
DOCKED: REMARK    4  A    between atoms: C_20  and  C_21 
DOCKED: REMARK    5  A    between atoms: C_21  and  N_22 
DOCKED: USER                              x       y       z     vdW  Elec       q    Type
DOCKED: USER                           _______ _______ _______ _____ _____    ______ ____
DOCKED: ROOT
DOCKED: ATOM      1  O   UNL     1     -57.709 -33.687   6.932 -0.07 -0.00    -0.346 OA 
DOCKED: ATOM      2  C   UNL     1     -58.973 -33.991   7.605 -0.14 +0.00    +0.130 C  
DOCKED: ATOM      3  C   UNL     1     -59.280 -35.397   7.177 -0.21 +0.00    +0.004 A  
DOCKED: ATOM      4  C   UNL     1     -58.230 -35.893   6.417 -0.28 +0.00    +0.006 A  
DOCKED: ATOM      5  C   UNL     1     -57.166 -34.871   6.301 -0.16 +0.00    +0.169 C  
DOCKED: ATOM      6  C   UNL     1     -60.394 -36.178   7.449 -0.18 -0.00    -0.001 A  
DOCKED: ATOM      7  C   UNL     1     -58.258 -37.178   5.901 -0.35 +0.00    +0.008 A  
DOCKED: ATOM      8  C   UNL     1     -60.439 -37.474   6.932 -0.21 +0.00    +0.010 A  
DOCKED: ATOM      9  C   UNL     1     -59.376 -37.971   6.163 -0.26 +0.00    +0.068 A  
DOCKED: ATOM     10  N   UNL     1     -59.490 -40.383   5.223 -2.53 -0.00    -0.191 NA 
DOCKED: ATOM     11  C   UNL     1     -59.439 -39.301   5.644 -0.37 +0.00    +0.101 C  
DOCKED: ENDROOT
DOCKED: BRANCH   2  12
DOCKED: ATOM     12  C   UNL     1     -58.763 -33.860   9.109 -0.05 +0.00    +0.038 C  
DOCKED: BRANCH  12  13
DOCKED: ATOM     13  C   UNL     1     -58.572 -32.402   9.520 -0.02 +0.00    +0.038 C  
DOCKED: BRANCH  13  14
DOCKED: ATOM     14  C   UNL     1     -57.187 -31.896   9.122 -0.01 +0.00    +0.251 C  
DOCKED: BRANCH  14  15
DOCKED: ATOM     15  N   UNL     1     -57.297 -30.880   8.082 -0.02 +0.00    +0.141 N  
DOCKED: ATOM     16  C   UNL     1     -58.230 -29.827   8.486 -0.00 +0.00    +0.285 C  
DOCKED: ATOM     17  C   UNL     1     -55.985 -30.306   7.779 -0.00 +0.00    +0.285 C  
DOCKED: ENDBRANCH  14  15
DOCKED: ENDBRANCH  13  14
DOCKED: ENDBRANCH  12  13
DOCKED: ENDBRANCH   2  12
DOCKED: BRANCH   2  18
DOCKED: ATOM     18  C   UNL     1     -59.977 -33.001   7.114 -0.20 +0.00    +0.006 A  
DOCKED: ATOM     19  C   UNL     1     -61.293 -33.058   7.572 -0.16 +0.00    +0.001 A  
DOCKED: ATOM     20  C   UNL     1     -62.230 -32.133   7.112 -0.16 +0.00    +0.029 A  
DOCKED: ATOM     21  C   UNL     1     -61.851 -31.153   6.196 -0.12 +0.00    +0.140 A  
DOCKED: ATOM     22  C   UNL     1     -60.535 -31.097   5.738 -0.16 +0.00    +0.029 A  
DOCKED: ATOM     23  F   UNL     1     -62.751 -30.264   5.756 -0.02 -0.00    -0.204 F  
DOCKED: ATOM     24  C   UNL     1     -59.597 -32.022   6.197 -0.19 +0.00    +0.001 A  
DOCKED: ENDBRANCH   2  18
DOCKED: TORSDOF 5
DOCKED: TER
DOCKED: ENDMDL
________________________________________________________________________________


    FINAL DOCKED STATE:
    ________________________


Run:   100 / 512
Time taken for this run:   0.002s

DOCKED: MODEL        100
DOCKED: USER    Run = 100
DOCKED: USER
DOCKED: USER    Estimated Free Energy of Binding    =  -4.12 kcal/mol  [=(1)+(2)+(3)-(4)]
DOCKED: USER
DOCKED: USER    (1) Final Intermolecular Energy     =  -5.61 kcal/mol
DOCKED: USER        vdW + Hbond + desolv Energy     =  -5.61 kcal/mol
DOCKED: USER        Electrostatic Energy            =  +0.00 kcal/mol
DOCKED: USER        Moving Ligand-Fixed Receptor    =  -5.61 kcal/mol
DOCKED: USER        Moving Ligand-Moving Receptor   =  +0.00 kcal/mol
DOCKED: USER    (2) Final Total Internal Energy     =  -1.34 kcal/mol
DOCKED: USER    (3) Torsional Free Energy           =  +1.49 kcal/mol
DOCKED: USER    (4) Unbound System's Energy         =  -1.34 kcal/mol
DOCKED: USER
DOCKED: USER
DOCKED: REMARK  5 active torsions:
DOCKED: REMARK  status: ('A' for Active; 'I' for Inactive)
DOCKED: REMARK    1  A    between atoms: C_2  and  C_19 
DOCKED: REMARK    2  A    between atoms: C_2  and  C_11 
DOCKED: REMARK    3  A    between atoms: C_19  and  C_20 
DOCKED: REMARK    4  A    between atoms: C_20  and  C_21 
DOCKED: REMARK    5  A    between atoms: C_21  and  N_22 
DOCKED: USER                              x       y       z     vdW  Elec       q    Type
DOCKED: USER                           _______ _______ _______ _____ _____    ______ ____
DOCKED: ROOT
DOCKED: ATOM      1  O   UNL     1     -59.823 -33.583   7.457 -0.07 -0.00    -0.346 OA 
DOCKED: ATOM      2  C   UNL     1     -58.413 -33.972   7.501 -0.14 +0.00    +0.130 C  
DOCKED: ATOM      3  C   UNL     1     -58.422 -35.408   7.064 -0.22 +0.00    +0.004 A  
DOCKED: ATOM      4  C   UNL     1     -59.709 -35.776   6.696 -0.22 +0.00    +0.006 A  
DOCKED: ATOM      5  C   UNL     1     -60.624 -34.623   6.849 -0.20 +0.00    +0.169 C  
DOCKED: ATOM      6  C   UNL     1     -57.374 -36.313   6.987 -0.26 -0.00    -0.001 A  
DOCKED: ATOM      7  C   UNL     1     -59.992 -37.054   6.246 -0.24 +0.00    +0.008 A  
DOCKED: ATOM      8  C   UNL     1     -57.644 -37.607   6.539 -0.32 +0.00    +0.010 A  
DOCKED: ATOM      9  C   UNL     1     -58.946 -37.975   6.170 -0.29 +0.00    +0.068 A  
DOCKED: ATOM     10  N   UNL     1     -59.412 -40.384   5.337 -2.61 -0.00    -0.191 NA 
DOCKED: ATOM     11  C   UNL     1     -59.203 -39.304   5.711 -0.36 +0.00    +0.101 C  
DOCKED: ENDROOT
DOCKED: BRANCH   2  12
DOCKED: ATOM     12  C   UNL     1     -57.634 -33.068   6.553 -0.16 +0.00    +0.038 C  
DOCKED: BRANCH  12  13
DOCKED: ATOM     13  C   UNL     1     -58.182 -31.642   6.566 -0.14 +0.00    +0.038 C  
DOCKED: BRANCH  13  14
DOCKED: ATOM     14  C   UNL     1     -59.287 -31.470   5.526 -0.05 +0.00    +0.251 C  
DOCKED: BRANCH  14  15
DOCKED: ATOM     15  N   UNL     1     -60.320 -30.571   6.027 -0.11 +0.00    +0.141 N  
DOCKED: ATOM     16  C   UNL     1     -61.530 -31.319   6.375 -0.10 +0.00    +0.285 C  
DOCKED: ATOM     17  C   UNL     1     -59.834 -29.824   7.188 -0.02 +0.00    +0.285 C  
DOCKED: ENDBRANCH  14  15
DOCKED: ENDBRANCH  13  14
DOCKED: ENDBRANCH  12  13
DOCKED: ENDBRANCH   2  12
DOCKED: BRANCH   2  18
DOCKED: ATOM     18  C   UNL     1     -57.956 -33.796   8.911 -0.04 +0.00    +0.006 A  
DOCKED: ATOM     19  C   UNL     1     -56.842 -33.005   9.188 -0.02 +0.00    +0.001 A  
DOCKED: ATOM     20  C   UNL     1     -56.415 -32.841  10.507 -0.00 +0.00    +0.029 A  
DOCKED: ATOM     21  C   UNL     1     -57.103 -33.468  11.545 -0.00 +0.00    +0.140 A  
DOCKED: ATOM     22  C   UNL     1     -58.217 -34.259  11.267 -0.00 +0.00    +0.029 A  
DOCKED: ATOM     23  F   UNL     1     -56.694 -33.309  12.810 +0.00 -0.00    -0.204 F  
DOCKED: ATOM     24  C   UNL     1     -58.644 -34.423   9.948 -0.02 +0.00    +0.001 A  
DOCKED: ENDBRANCH   2  18
DOCKED: TORSDOF 5
DOCKED: TER
DOCKED: ENDMDL
________________________________________________________________________________


    FINAL DOCKED STATE:
    ________________________


Run:   101 / 512
Time taken for this run:   0.002s

DOCKED: MODEL        101
DOCKED: USER    Run = 101
DOCKED: USER
DOCKED: USER    Estimated Free Energy of Binding    =  -4.55 kcal/mol  [=(1)+(2)+(3)-(4)]
DOCKED: USER
DOCKED: USER    (1) Final Intermolecular Energy     =  -6.04 kcal/mol
DOCKED: USER        vdW + Hbond + desolv Energy     =  -6.04 kcal/mol
DOCKED: USER        Electrostatic Energy            =  +0.00 kcal/mol
DOCKED: USER        Moving Ligand-Fixed Receptor    =  -6.04 kcal/mol
DOCKED: USER        Moving Ligand-Moving Receptor   =  +0.00 kcal/mol
DOCKED: USER    (2) Final Total Internal Energy     =  -1.44 kcal/mol
DOCKED: USER    (3) Torsional Free Energy           =  +1.49 kcal/mol
DOCKED: USER    (4) Unbound System's Energy         =  -1.44 kcal/mol
DOCKED: USER
DOCKED: USER
DOCKED: REMARK  5 active torsions:
DOCKED: REMARK  status: ('A' for Active; 'I' for Inactive)
DOCKED: REMARK    1  A    between atoms: C_2  and  C_19 
DOCKED: REMARK    2  A    between atoms: C_2  and  C_11 
DOCKED: REMARK    3  A    between atoms: C_19  and  C_20 
DOCKED: REMARK    4  A    between atoms: C_20  and  C_21 
DOCKED: REMARK    5  A    between atoms: C_21  and  N_22 
DOCKED: USER                              x       y       z     vdW  Elec       q    Type
DOCKED: USER                           _______ _______ _______ _____ _____    ______ ____
DOCKED: ROOT
DOCKED: ATOM      1  O   UNL     1     -57.172 -33.661   6.821 -0.07 -0.00    -0.346 OA 
DOCKED: ATOM      2  C   UNL     1     -58.534 -33.715   7.352 -0.15 +0.00    +0.130 C  
DOCKED: ATOM      3  C   UNL     1     -59.009 -35.091   6.983 -0.22 +0.00    +0.004 A  
DOCKED: ATOM      4  C   UNL     1     -57.973 -35.800   6.392 -0.27 +0.00    +0.006 A  
DOCKED: ATOM      5  C   UNL     1     -56.755 -34.960   6.341 -0.12 +0.00    +0.169 C  
DOCKED: ATOM      6  C   UNL     1     -60.255 -35.673   7.166 -0.21 -0.00    -0.001 A  
DOCKED: ATOM      7  C   UNL     1     -58.145 -37.104   5.962 -0.34 +0.00    +0.008 A  
DOCKED: ATOM      8  C   UNL     1     -60.446 -36.986   6.734 -0.22 +0.00    +0.010 A  
DOCKED: ATOM      9  C   UNL     1     -59.396 -37.698   6.136 -0.26 +0.00    +0.068 A  
DOCKED: ATOM     10  N   UNL     1     -59.783 -40.137   5.349 -2.56 -0.00    -0.191 NA 
DOCKED: ATOM     11  C   UNL     1     -59.609 -39.043   5.701 -0.36 +0.00    +0.101 C  
DOCKED: ENDROOT
DOCKED: BRANCH   2  12
DOCKED: ATOM     12  C   UNL     1     -58.475 -33.492   8.858 -0.05 +0.00    +0.038 C  
DOCKED: BRANCH  12  13
DOCKED: ATOM     13  C   UNL     1     -57.054 -33.664   9.391 -0.03 +0.00    +0.038 C  
DOCKED: BRANCH  13  14
DOCKED: ATOM     14  C   UNL     1     -56.944 -34.907  10.272 -0.01 +0.00    +0.251 C  
DOCKED: BRANCH  14  15
DOCKED: ATOM     15  N   UNL     1     -57.503 -36.066   9.586 -0.04 +0.00    +0.141 N  
DOCKED: ATOM     16  C   UNL     1     -56.449 -37.026   9.251 -0.08 +0.00    +0.285 C  
DOCKED: ATOM     17  C   UNL     1     -58.530 -36.707  10.410 -0.02 +0.00    +0.285 C  
DOCKED: ENDBRANCH  14  15
DOCKED: ENDBRANCH  13  14
DOCKED: ENDBRANCH  12  13
DOCKED: ENDBRANCH   2  12
DOCKED: BRANCH   2  18
DOCKED: ATOM     18  C   UNL     1     -59.309 -32.633   6.678 -0.19 +0.00    +0.006 A  
DOCKED: ATOM     19  C   UNL     1     -58.642 -31.652   5.945 -0.16 +0.00    +0.001 A  
DOCKED: ATOM     20  C   UNL     1     -59.368 -30.640   5.315 -0.16 +0.00    +0.029 A  
DOCKED: ATOM     21  C   UNL     1     -60.758 -30.610   5.418 -0.12 +0.00    +0.140 A  
DOCKED: ATOM     22  C   UNL     1     -61.424 -31.592   6.151 -0.17 +0.00    +0.029 A  
DOCKED: ATOM     23  F   UNL     1     -61.454 -29.640   4.812 -0.02 -0.00    -0.204 F  
DOCKED: ATOM     24  C   UNL     1     -60.699 -32.605   6.782 -0.21 +0.00    +0.001 A  
DOCKED: ENDBRANCH   2  18
DOCKED: TORSDOF 5
DOCKED: TER
DOCKED: ENDMDL
________________________________________________________________________________


    FINAL DOCKED STATE:
    ________________________


Run:   102 / 512
Time taken for this run:   0.002s

DOCKED: MODEL        102
DOCKED: USER    Run = 102
DOCKED: USER
DOCKED: USER    Estimated Free Energy of Binding    =  -4.50 kcal/mol  [=(1)+(2)+(3)-(4)]
DOCKED: USER
DOCKED: USER    (1) Final Intermolecular Energy     =  -5.99 kcal/mol
DOCKED: USER        vdW + Hbond + desolv Energy     =  -5.99 kcal/mol
DOCKED: USER        Electrostatic Energy            =  +0.00 kcal/mol
DOCKED: USER        Moving Ligand-Fixed Receptor    =  -5.99 kcal/mol
DOCKED: USER        Moving Ligand-Moving Receptor   =  +0.00 kcal/mol
DOCKED: USER    (2) Final Total Internal Energy     =  -0.97 kcal/mol
DOCKED: USER    (3) Torsional Free Energy           =  +1.49 kcal/mol
DOCKED: USER    (4) Unbound System's Energy         =  -0.97 kcal/mol
DOCKED: USER
DOCKED: USER
DOCKED: REMARK  5 active torsions:
DOCKED: REMARK  status: ('A' for Active; 'I' for Inactive)
DOCKED: REMARK    1  A    between atoms: C_2  and  C_19 
DOCKED: REMARK    2  A    between atoms: C_2  and  C_11 
DOCKED: REMARK    3  A    between atoms: C_19  and  C_20 
DOCKED: REMARK    4  A    between atoms: C_20  and  C_21 
DOCKED: REMARK    5  A    between atoms: C_21  and  N_22 
DOCKED: USER                              x       y       z     vdW  Elec       q    Type
DOCKED: USER                           _______ _______ _______ _____ _____    ______ ____
DOCKED: ROOT
DOCKED: ATOM      1  O   UNL     1     -60.484 -36.551   8.583 -0.00 -0.00    -0.346 OA 
DOCKED: ATOM      2  C   UNL     1     -59.061 -36.808   8.357 -0.10 +0.00    +0.130 C  
DOCKED: ATOM      3  C   UNL     1     -59.015 -37.376   6.968 -0.24 +0.00    +0.004 A  
DOCKED: ATOM      4  C   UNL     1     -60.283 -37.343   6.408 -0.25 +0.00    +0.006 A  
DOCKED: ATOM      5  C   UNL     1     -61.241 -36.748   7.367 -0.15 +0.00    +0.169 C  
DOCKED: ATOM      6  C   UNL     1     -57.934 -37.871   6.254 -0.35 -0.00    -0.001 A  
DOCKED: ATOM      7  C   UNL     1     -60.516 -37.805   5.123 -0.19 +0.00    +0.008 A  
DOCKED: ATOM      8  C   UNL     1     -58.153 -38.345   4.959 -0.21 +0.00    +0.010 A  
DOCKED: ATOM      9  C   UNL     1     -59.437 -38.311   4.397 -0.38 +0.00    +0.068 A  
DOCKED: ATOM     10  N   UNL     1     -59.809 -39.193   1.989 -2.37 -0.00    -0.191 NA 
DOCKED: ATOM     11  C   UNL     1     -59.642 -38.798   3.069 -0.40 +0.00    +0.101 C  
DOCKED: ENDROOT
DOCKED: BRANCH   2  12
DOCKED: ATOM     12  C   UNL     1     -58.306 -35.491   8.486 -0.10 +0.00    +0.038 C  
DOCKED: BRANCH  12  13
DOCKED: ATOM     13  C   UNL     1     -59.204 -34.300   8.157 -0.11 +0.00    +0.038 C  
DOCKED: BRANCH  13  14
DOCKED: ATOM     14  C   UNL     1     -58.401 -33.001   8.115 -0.05 +0.00    +0.251 C  
DOCKED: BRANCH  14  15
DOCKED: ATOM     15  N   UNL     1     -58.768 -32.215   6.944 -0.12 +0.00    +0.141 N  
DOCKED: ATOM     16  C   UNL     1     -59.200 -30.873   7.337 -0.04 +0.00    +0.285 C  
DOCKED: ATOM     17  C   UNL     1     -57.647 -32.133   6.006 -0.06 +0.00    +0.285 C  
DOCKED: ENDBRANCH  14  15
DOCKED: ENDBRANCH  13  14
DOCKED: ENDBRANCH  12  13
DOCKED: ENDBRANCH   2  12
DOCKED: BRANCH   2  18
DOCKED: ATOM     18  C   UNL     1     -58.623 -37.783   9.399 -0.12 +0.00    +0.006 A  
DOCKED: ATOM     19  C   UNL     1     -59.537 -38.692   9.930 -0.16 +0.00    +0.001 A  
DOCKED: ATOM     20  C   UNL     1     -59.127 -39.603  10.905 -0.05 +0.00    +0.029 A  
DOCKED: ATOM     21  C   UNL     1     -57.804 -39.604  11.345 -0.18 +0.00    +0.140 A  
DOCKED: ATOM     22  C   UNL     1     -56.890 -38.695  10.813 -0.15 +0.00    +0.029 A  
DOCKED: ATOM     23  F   UNL     1     -57.410 -40.480  12.279 -0.09 -0.00    -0.204 F  
DOCKED: ATOM     24  C   UNL     1     -57.300 -37.783   9.839 -0.14 +0.00    +0.001 A  
DOCKED: ENDBRANCH   2  18
DOCKED: TORSDOF 5
DOCKED: TER
DOCKED: ENDMDL
________________________________________________________________________________


    FINAL DOCKED STATE:
    ________________________


Run:   103 / 512
Time taken for this run:   0.002s

DOCKED: MODEL        103
DOCKED: USER    Run = 103
DOCKED: USER
DOCKED: USER    Estimated Free Energy of Binding    =  -4.13 kcal/mol  [=(1)+(2)+(3)-(4)]
DOCKED: USER
DOCKED: USER    (1) Final Intermolecular Energy     =  -5.62 kcal/mol
DOCKED: USER        vdW + Hbond + desolv Energy     =  -5.62 kcal/mol
DOCKED: USER        Electrostatic Energy            =  +0.00 kcal/mol
DOCKED: USER        Moving Ligand-Fixed Receptor    =  -5.62 kcal/mol
DOCKED: USER        Moving Ligand-Moving Receptor   =  +0.00 kcal/mol
DOCKED: USER    (2) Final Total Internal Energy     =  -1.20 kcal/mol
DOCKED: USER    (3) Torsional Free Energy           =  +1.49 kcal/mol
DOCKED: USER    (4) Unbound System's Energy         =  -1.20 kcal/mol
DOCKED: USER
DOCKED: USER
DOCKED: REMARK  5 active torsions:
DOCKED: REMARK  status: ('A' for Active; 'I' for Inactive)
DOCKED: REMARK    1  A    between atoms: C_2  and  C_19 
DOCKED: REMARK    2  A    between atoms: C_2  and  C_11 
DOCKED: REMARK    3  A    between atoms: C_19  and  C_20 
DOCKED: REMARK    4  A    between atoms: C_20  and  C_21 
DOCKED: REMARK    5  A    between atoms: C_21  and  N_22 
DOCKED: USER                              x       y       z     vdW  Elec       q    Type
DOCKED: USER                           _______ _______ _______ _____ _____    ______ ____
DOCKED: ROOT
DOCKED: ATOM      1  O   UNL     1     -59.876 -36.316   9.238 +0.00 -0.00    -0.346 OA 
DOCKED: ATOM      2  C   UNL     1     -58.527 -36.859   9.072 -0.08 +0.00    +0.130 C  
DOCKED: ATOM      3  C   UNL     1     -58.524 -37.395   7.670 -0.19 +0.00    +0.004 A  
DOCKED: ATOM      4  C   UNL     1     -59.727 -37.087   7.051 -0.21 +0.00    +0.006 A  
DOCKED: ATOM      5  C   UNL     1     -60.592 -36.327   7.981 -0.10 +0.00    +0.169 C  
DOCKED: ATOM      6  C   UNL     1     -57.532 -38.089   6.993 -0.33 -0.00    -0.001 A  
DOCKED: ATOM      7  C   UNL     1     -59.982 -37.464   5.743 -0.26 +0.00    +0.008 A  
DOCKED: ATOM      8  C   UNL     1     -57.775 -38.480   5.675 -0.31 +0.00    +0.010 A  
DOCKED: ATOM      9  C   UNL     1     -58.994 -38.168   5.053 -0.37 +0.00    +0.068 A  
DOCKED: ATOM     10  N   UNL     1     -59.410 -38.904   2.604 -1.94 -0.00    -0.191 NA 
DOCKED: ATOM     11  C   UNL     1     -59.224 -38.575   3.703 -0.51 +0.00    +0.101 C  
DOCKED: ENDROOT
DOCKED: BRANCH   2  12
DOCKED: ATOM     12  C   UNL     1     -57.524 -35.729   9.278 -0.07 +0.00    +0.038 C  
DOCKED: BRANCH  12  13
DOCKED: ATOM     13  C   UNL     1     -56.092 -36.205   9.035 -0.13 +0.00    +0.038 C  
DOCKED: BRANCH  13  14
DOCKED: ATOM     14  C   UNL     1     -55.279 -36.179  10.328 -0.04 +0.00    +0.251 C  
DOCKED: BRANCH  14  15
DOCKED: ATOM     15  N   UNL     1     -54.785 -37.514  10.644 -0.08 +0.00    +0.141 N  
DOCKED: ATOM     16  C   UNL     1     -53.498 -37.757   9.990 -0.05 +0.00    +0.285 C  
DOCKED: ATOM     17  C   UNL     1     -54.660 -37.688  12.092 -0.05 +0.00    +0.285 C  
DOCKED: ENDBRANCH  14  15
DOCKED: ENDBRANCH  13  14
DOCKED: ENDBRANCH  12  13
DOCKED: ENDBRANCH   2  12
DOCKED: BRANCH   2  18
DOCKED: ATOM     18  C   UNL     1     -58.356 -37.924  10.103 -0.12 +0.00    +0.006 A  
DOCKED: ATOM     19  C   UNL     1     -58.893 -37.753  11.378 -0.07 +0.00    +0.001 A  
DOCKED: ATOM     20  C   UNL     1     -58.732 -38.751  12.340 -0.11 +0.00    +0.029 A  
DOCKED: ATOM     21  C   UNL     1     -58.035 -39.917  12.027 -0.16 +0.00    +0.140 A  
DOCKED: ATOM     22  C   UNL     1     -57.498 -40.087  10.751 -0.16 +0.00    +0.029 A  
DOCKED: ATOM     23  F   UNL     1     -57.883 -40.875  12.950 -0.07 -0.00    -0.204 F  
DOCKED: ATOM     24  C   UNL     1     -57.658 -39.090   9.788 -0.22 +0.00    +0.001 A  
DOCKED: ENDBRANCH   2  18
DOCKED: TORSDOF 5
DOCKED: TER
DOCKED: ENDMDL
________________________________________________________________________________


    FINAL DOCKED STATE:
    ________________________


Run:   104 / 512
Time taken for this run:   0.002s

DOCKED: MODEL        104
DOCKED: USER    Run = 104
DOCKED: USER
DOCKED: USER    Estimated Free Energy of Binding    =  -4.15 kcal/mol  [=(1)+(2)+(3)-(4)]
DOCKED: USER
DOCKED: USER    (1) Final Intermolecular Energy     =  -5.64 kcal/mol
DOCKED: USER        vdW + Hbond + desolv Energy     =  -5.64 kcal/mol
DOCKED: USER        Electrostatic Energy            =  +0.00 kcal/mol
DOCKED: USER        Moving Ligand-Fixed Receptor    =  -5.64 kcal/mol
DOCKED: USER        Moving Ligand-Moving Receptor   =  +0.00 kcal/mol
DOCKED: USER    (2) Final Total Internal Energy     =  -1.55 kcal/mol
DOCKED: USER    (3) Torsional Free Energy           =  +1.49 kcal/mol
DOCKED: USER    (4) Unbound System's Energy         =  -1.55 kcal/mol
DOCKED: USER
DOCKED: USER
DOCKED: REMARK  5 active torsions:
DOCKED: REMARK  status: ('A' for Active; 'I' for Inactive)
DOCKED: REMARK    1  A    between atoms: C_2  and  C_19 
DOCKED: REMARK    2  A    between atoms: C_2  and  C_11 
DOCKED: REMARK    3  A    between atoms: C_19  and  C_20 
DOCKED: REMARK    4  A    between atoms: C_20  and  C_21 
DOCKED: REMARK    5  A    between atoms: C_21  and  N_22 
DOCKED: USER                              x       y       z     vdW  Elec       q    Type
DOCKED: USER                           _______ _______ _______ _____ _____    ______ ____
DOCKED: ROOT
DOCKED: ATOM      1  O   UNL     1     -55.218 -35.998   8.997 -0.05 -0.00    -0.346 OA 
DOCKED: ATOM      2  C   UNL     1     -55.885 -35.141   8.016 -0.12 +0.00    +0.130 C  
DOCKED: ATOM      3  C   UNL     1     -56.804 -36.078   7.286 -0.22 +0.00    +0.004 A  
DOCKED: ATOM      4  C   UNL     1     -56.749 -37.335   7.870 -0.24 +0.00    +0.006 A  
DOCKED: ATOM      5  C   UNL     1     -55.814 -37.316   9.018 -0.15 +0.00    +0.169 C  
DOCKED: ATOM      6  C   UNL     1     -57.630 -35.833   6.199 -0.25 -0.00    -0.001 A  
DOCKED: ATOM      7  C   UNL     1     -57.510 -38.387   7.389 -0.32 +0.00    +0.008 A  
DOCKED: ATOM      8  C   UNL     1     -58.401 -36.885   5.700 -0.33 +0.00    +0.010 A  
DOCKED: ATOM      9  C   UNL     1     -58.341 -38.155   6.292 -0.31 +0.00    +0.068 A  
DOCKED: ATOM     10  N   UNL     1     -59.788 -40.083   5.343 -2.56 -0.00    -0.191 NA 
DOCKED: ATOM     11  C   UNL     1     -59.138 -39.218   5.768 -0.37 +0.00    +0.101 C  
DOCKED: ENDROOT
DOCKED: BRANCH   2  12
DOCKED: ATOM     12  C   UNL     1     -56.630 -34.042   8.764 -0.06 +0.00    +0.038 C  
DOCKED: BRANCH  12  13
DOCKED: ATOM     13  C   UNL     1     -56.485 -34.200  10.276 -0.02 +0.00    +0.038 C  
DOCKED: BRANCH  13  14
DOCKED: ATOM     14  C   UNL     1     -55.407 -33.268  10.825 -0.00 +0.00    +0.251 C  
DOCKED: BRANCH  14  15
DOCKED: ATOM     15  N   UNL     1     -54.178 -33.402  10.051 -0.01 +0.00    +0.141 N  
DOCKED: ATOM     16  C   UNL     1     -53.568 -32.091   9.821 -0.00 +0.00    +0.285 C  
DOCKED: ATOM     17  C   UNL     1     -53.234 -34.289  10.732 -0.00 +0.00    +0.285 C  
DOCKED: ENDBRANCH  14  15
DOCKED: ENDBRANCH  13  14
DOCKED: ENDBRANCH  12  13
DOCKED: ENDBRANCH   2  12
DOCKED: BRANCH   2  18
DOCKED: ATOM     18  C   UNL     1     -54.820 -34.570   7.140 -0.10 +0.00    +0.006 A  
DOCKED: ATOM     19  C   UNL     1     -55.149 -33.622   6.172 -0.15 +0.00    +0.001 A  
DOCKED: ATOM     20  C   UNL     1     -54.153 -33.089   5.354 -0.12 +0.00    +0.029 A  
DOCKED: ATOM     21  C   UNL     1     -52.831 -33.504   5.504 -0.07 +0.00    +0.140 A  
DOCKED: ATOM     22  C   UNL     1     -52.503 -34.452   6.472 -0.10 +0.00    +0.029 A  
DOCKED: ATOM     23  F   UNL     1     -51.874 -32.991   4.719 -0.01 -0.00    -0.204 F  
DOCKED: ATOM     24  C   UNL     1     -53.499 -34.987   7.291 -0.07 +0.00    +0.001 A  
DOCKED: ENDBRANCH   2  18
DOCKED: TORSDOF 5
DOCKED: TER
DOCKED: ENDMDL
________________________________________________________________________________


    FINAL DOCKED STATE:
    ________________________


Run:   105 / 512
Time taken for this run:   0.002s

DOCKED: MODEL        105
DOCKED: USER    Run = 105
DOCKED: USER
DOCKED: USER    Estimated Free Energy of Binding    =  -4.10 kcal/mol  [=(1)+(2)+(3)-(4)]
DOCKED: USER
DOCKED: USER    (1) Final Intermolecular Energy     =  -5.59 kcal/mol
DOCKED: USER        vdW + Hbond + desolv Energy     =  -5.59 kcal/mol
DOCKED: USER        Electrostatic Energy            =  +0.00 kcal/mol
DOCKED: USER        Moving Ligand-Fixed Receptor    =  -5.59 kcal/mol
DOCKED: USER        Moving Ligand-Moving Receptor   =  +0.00 kcal/mol
DOCKED: USER    (2) Final Total Internal Energy     =  -1.22 kcal/mol
DOCKED: USER    (3) Torsional Free Energy           =  +1.49 kcal/mol
DOCKED: USER    (4) Unbound System's Energy         =  -1.22 kcal/mol
DOCKED: USER
DOCKED: USER
DOCKED: REMARK  5 active torsions:
DOCKED: REMARK  status: ('A' for Active; 'I' for Inactive)
DOCKED: REMARK    1  A    between atoms: C_2  and  C_19 
DOCKED: REMARK    2  A    between atoms: C_2  and  C_11 
DOCKED: REMARK    3  A    between atoms: C_19  and  C_20 
DOCKED: REMARK    4  A    between atoms: C_20  and  C_21 
DOCKED: REMARK    5  A    between atoms: C_21  and  N_22 
DOCKED: USER                              x       y       z     vdW  Elec       q    Type
DOCKED: USER                           _______ _______ _______ _____ _____    ______ ____
DOCKED: ROOT
DOCKED: ATOM      1  O   UNL     1     -55.354 -30.391   0.836 -0.07 -0.00    -0.346 OA 
DOCKED: ATOM      2  C   UNL     1     -54.126 -29.705   0.434 -0.16 +0.00    +0.130 C  
DOCKED: ATOM      3  C   UNL     1     -54.509 -28.994  -0.832 -0.17 +0.00    +0.004 A  
DOCKED: ATOM      4  C   UNL     1     -55.865 -29.168  -1.073 -0.29 +0.00    +0.006 A  
DOCKED: ATOM      5  C   UNL     1     -56.466 -29.982   0.007 -0.11 +0.00    +0.169 C  
DOCKED: ATOM      6  C   UNL     1     -53.723 -28.245  -1.695 -0.17 -0.00    -0.001 A  
DOCKED: ATOM      7  C   UNL     1     -56.478 -28.605  -2.179 -0.25 +0.00    +0.008 A  
DOCKED: ATOM      8  C   UNL     1     -54.326 -27.675  -2.818 -0.27 +0.00    +0.010 A  
DOCKED: ATOM      9  C   UNL     1     -55.696 -27.854  -3.058 -0.34 +0.00    +0.068 A  
DOCKED: ATOM     10  N   UNL     1     -56.784 -26.779  -5.149 -2.49 -0.00    -0.191 NA 
DOCKED: ATOM     11  C   UNL     1     -56.296 -27.262  -4.212 -0.41 +0.00    +0.101 C  
DOCKED: ENDROOT
DOCKED: BRANCH   2  12
DOCKED: ATOM     12  C   UNL     1     -53.718 -28.751   1.550 -0.10 +0.00    +0.038 C  
DOCKED: BRANCH  12  13
DOCKED: ATOM     13  C   UNL     1     -54.738 -28.755   2.687 -0.19 +0.00    +0.038 C  
DOCKED: BRANCH  13  14
DOCKED: ATOM     14  C   UNL     1     -54.488 -29.919   3.644 -0.07 +0.00    +0.251 C  
DOCKED: BRANCH  14  15
DOCKED: ATOM     15  N   UNL     1     -53.594 -29.508   4.720 -0.04 +0.00    +0.141 N  
DOCKED: ATOM     16  C   UNL     1     -52.221 -29.933   4.440 -0.02 +0.00    +0.285 C  
DOCKED: ATOM     17  C   UNL     1     -53.648 -28.057   4.909 -0.07 +0.00    +0.285 C  
DOCKED: ENDBRANCH  14  15
DOCKED: ENDBRANCH  13  14
DOCKED: ENDBRANCH  12  13
DOCKED: ENDBRANCH   2  12
DOCKED: BRANCH   2  18
DOCKED: ATOM     18  C   UNL     1     -53.089 -30.757   0.219 -0.08 +0.00    +0.006 A  
DOCKED: ATOM     19  C   UNL     1     -53.403 -31.907  -0.503 -0.13 +0.00    +0.001 A  
DOCKED: ATOM     20  C   UNL     1     -52.432 -32.890  -0.703 -0.10 +0.00    +0.029 A  
DOCKED: ATOM     21  C   UNL     1     -51.151 -32.721  -0.182 -0.01 +0.00    +0.140 A  
DOCKED: ATOM     22  C   UNL     1     -50.837 -31.569   0.540 -0.01 +0.00    +0.029 A  
DOCKED: ATOM     23  F   UNL     1     -50.219 -33.663  -0.375 +0.00 -0.00    -0.204 F  
DOCKED: ATOM     24  C   UNL     1     -51.807 -30.586   0.741 -0.04 +0.00    +0.001 A  
DOCKED: ENDBRANCH   2  18
DOCKED: TORSDOF 5
DOCKED: TER
DOCKED: ENDMDL
________________________________________________________________________________


    FINAL DOCKED STATE:
    ________________________


Run:   106 / 512
Time taken for this run:   0.002s

DOCKED: MODEL        106
DOCKED: USER    Run = 106
DOCKED: USER
DOCKED: USER    Estimated Free Energy of Binding    =  -4.44 kcal/mol  [=(1)+(2)+(3)-(4)]
DOCKED: USER
DOCKED: USER    (1) Final Intermolecular Energy     =  -5.93 kcal/mol
DOCKED: USER        vdW + Hbond + desolv Energy     =  -5.93 kcal/mol
DOCKED: USER        Electrostatic Energy            =  +0.00 kcal/mol
DOCKED: USER        Moving Ligand-Fixed Receptor    =  -5.93 kcal/mol
DOCKED: USER        Moving Ligand-Moving Receptor   =  +0.00 kcal/mol
DOCKED: USER    (2) Final Total Internal Energy     =  -1.39 kcal/mol
DOCKED: USER    (3) Torsional Free Energy           =  +1.49 kcal/mol
DOCKED: USER    (4) Unbound System's Energy         =  -1.39 kcal/mol
DOCKED: USER
DOCKED: USER
DOCKED: REMARK  5 active torsions:
DOCKED: REMARK  status: ('A' for Active; 'I' for Inactive)
DOCKED: REMARK    1  A    between atoms: C_2  and  C_19 
DOCKED: REMARK    2  A    between atoms: C_2  and  C_11 
DOCKED: REMARK    3  A    between atoms: C_19  and  C_20 
DOCKED: REMARK    4  A    between atoms: C_20  and  C_21 
DOCKED: REMARK    5  A    between atoms: C_21  and  N_22 
DOCKED: USER                              x       y       z     vdW  Elec       q    Type
DOCKED: USER                           _______ _______ _______ _____ _____    ______ ____
DOCKED: ROOT
DOCKED: ATOM      1  O   UNL     1     -59.795 -39.906   7.199 -1.81 -0.00    -0.346 OA 
DOCKED: ATOM      2  C   UNL     1     -59.050 -38.742   6.717 -0.26 +0.00    +0.130 C  
DOCKED: ATOM      3  C   UNL     1     -59.698 -37.585   7.420 -0.18 +0.00    +0.004 A  
DOCKED: ATOM      4  C   UNL     1     -60.654 -38.054   8.309 -0.15 +0.00    +0.006 A  
DOCKED: ATOM      5  C   UNL     1     -60.696 -39.533   8.267 -0.17 +0.00    +0.169 C  
DOCKED: ATOM      6  C   UNL     1     -59.453 -36.225   7.291 -0.20 -0.00    -0.001 A  
DOCKED: ATOM      7  C   UNL     1     -61.397 -37.188   9.093 -0.08 +0.00    +0.008 A  
DOCKED: ATOM      8  C   UNL     1     -60.197 -35.338   8.071 -0.12 +0.00    +0.010 A  
DOCKED: ATOM      9  C   UNL     1     -61.164 -35.817   8.968 -0.05 +0.00    +0.068 A  
DOCKED: ATOM     10  N   UNL     1     -62.524 -34.144  10.404 -0.01 -0.00    -0.191 NA 
DOCKED: ATOM     11  C   UNL     1     -61.915 -34.895   9.759 -0.04 +0.00    +0.101 C  
DOCKED: ENDROOT
DOCKED: BRANCH   2  12
DOCKED: ATOM     12  C   UNL     1     -57.583 -38.918   7.092 -0.41 +0.00    +0.038 C  
DOCKED: BRANCH  12  13
DOCKED: ATOM     13  C   UNL     1     -57.319 -38.478   8.531 -0.27 +0.00    +0.038 C  
DOCKED: BRANCH  13  14
DOCKED: ATOM     14  C   UNL     1     -57.758 -39.554   9.523 -0.15 +0.00    +0.251 C  
DOCKED: BRANCH  14  15
DOCKED: ATOM     15  N   UNL     1     -57.933 -38.977  10.851 -0.15 +0.00    +0.141 N  
DOCKED: ATOM     16  C   UNL     1     -57.694 -37.533  10.822 -0.04 +0.00    +0.285 C  
DOCKED: ATOM     17  C   UNL     1     -59.276 -39.259  11.362 -0.08 +0.00    +0.285 C  
DOCKED: ENDBRANCH  14  15
DOCKED: ENDBRANCH  13  14
DOCKED: ENDBRANCH  12  13
DOCKED: ENDBRANCH   2  12
DOCKED: BRANCH   2  18
DOCKED: ATOM     18  C   UNL     1     -59.225 -38.695   5.236 -0.43 +0.00    +0.006 A  
DOCKED: ATOM     19  C   UNL     1     -58.655 -37.657   4.500 -0.35 +0.00    +0.001 A  
DOCKED: ATOM     20  C   UNL     1     -58.820 -37.614   3.115 -0.24 +0.00    +0.029 A  
DOCKED: ATOM     21  C   UNL     1     -59.554 -38.608   2.469 -0.13 +0.00    +0.140 A  
DOCKED: ATOM     22  C   UNL     1     -60.123 -39.646   3.206 -0.16 +0.00    +0.029 A  
DOCKED: ATOM     23  F   UNL     1     -59.710 -38.567   1.139 -0.05 -0.00    -0.204 F  
DOCKED: ATOM     24  C   UNL     1     -59.960 -39.690   4.591 -0.39 +0.00    +0.001 A  
DOCKED: ENDBRANCH   2  18
DOCKED: TORSDOF 5
DOCKED: TER
DOCKED: ENDMDL
________________________________________________________________________________


    FINAL DOCKED STATE:
    ________________________


Run:   107 / 512
Time taken for this run:   0.002s

DOCKED: MODEL        107
DOCKED: USER    Run = 107
DOCKED: USER
DOCKED: USER    Estimated Free Energy of Binding    =  -4.27 kcal/mol  [=(1)+(2)+(3)-(4)]
DOCKED: USER
DOCKED: USER    (1) Final Intermolecular Energy     =  -5.77 kcal/mol
DOCKED: USER        vdW + Hbond + desolv Energy     =  -5.77 kcal/mol
DOCKED: USER        Electrostatic Energy            =  +0.00 kcal/mol
DOCKED: USER        Moving Ligand-Fixed Receptor    =  -5.77 kcal/mol
DOCKED: USER        Moving Ligand-Moving Receptor   =  +0.00 kcal/mol
DOCKED: USER    (2) Final Total Internal Energy     =  -1.26 kcal/mol
DOCKED: USER    (3) Torsional Free Energy           =  +1.49 kcal/mol
DOCKED: USER    (4) Unbound System's Energy         =  -1.26 kcal/mol
DOCKED: USER
DOCKED: USER
DOCKED: REMARK  5 active torsions:
DOCKED: REMARK  status: ('A' for Active; 'I' for Inactive)
DOCKED: REMARK    1  A    between atoms: C_2  and  C_19 
DOCKED: REMARK    2  A    between atoms: C_2  and  C_11 
DOCKED: REMARK    3  A    between atoms: C_19  and  C_20 
DOCKED: REMARK    4  A    between atoms: C_20  and  C_21 
DOCKED: REMARK    5  A    between atoms: C_21  and  N_22 
DOCKED: USER                              x       y       z     vdW  Elec       q    Type
DOCKED: USER                           _______ _______ _______ _____ _____    ______ ____
DOCKED: ROOT
DOCKED: ATOM      1  O   UNL     1     -59.438 -36.132   8.570 -0.01 -0.00    -0.346 OA 
DOCKED: ATOM      2  C   UNL     1     -58.267 -37.004   8.459 -0.11 +0.00    +0.130 C  
DOCKED: ATOM      3  C   UNL     1     -58.430 -37.654   7.115 -0.26 +0.00    +0.004 A  
DOCKED: ATOM      4  C   UNL     1     -59.535 -37.120   6.468 -0.26 +0.00    +0.006 A  
DOCKED: ATOM      5  C   UNL     1     -60.164 -36.086   7.320 -0.15 +0.00    +0.169 C  
DOCKED: ATOM      6  C   UNL     1     -57.654 -38.632   6.509 -0.38 -0.00    -0.001 A  
DOCKED: ATOM      7  C   UNL     1     -59.905 -37.545   5.204 -0.10 +0.00    +0.008 A  
DOCKED: ATOM      8  C   UNL     1     -58.017 -39.074   5.236 -0.36 +0.00    +0.010 A  
DOCKED: ATOM      9  C   UNL     1     -59.136 -38.532   4.586 -0.41 +0.00    +0.068 A  
DOCKED: ATOM     10  N   UNL     1     -59.778 -39.371   2.221 -2.01 -0.00    -0.191 NA 
DOCKED: ATOM     11  C   UNL     1     -59.491 -38.996   3.282 -0.49 +0.00    +0.101 C  
DOCKED: ENDROOT
DOCKED: BRANCH   2  12
DOCKED: ATOM     12  C   UNL     1     -57.014 -36.142   8.553 -0.14 +0.00    +0.038 C  
DOCKED: BRANCH  12  13
DOCKED: ATOM     13  C   UNL     1     -57.285 -34.711   8.092 -0.12 +0.00    +0.038 C  
DOCKED: BRANCH  13  14
DOCKED: ATOM     14  C   UNL     1     -57.839 -33.862   9.235 -0.02 +0.00    +0.251 C  
DOCKED: BRANCH  14  15
DOCKED: ATOM     15  N   UNL     1     -59.164 -33.357   8.895 -0.03 +0.00    +0.141 N  
DOCKED: ATOM     16  C   UNL     1     -60.087 -33.533  10.017 -0.00 +0.00    +0.285 C  
DOCKED: ATOM     17  C   UNL     1     -59.095 -31.946   8.510 -0.02 +0.00    +0.285 C  
DOCKED: ENDBRANCH  14  15
DOCKED: ENDBRANCH  13  14
DOCKED: ENDBRANCH  12  13
DOCKED: ENDBRANCH   2  12
DOCKED: BRANCH   2  18
DOCKED: ATOM     18  C   UNL     1     -58.338 -37.976   9.588 -0.14 +0.00    +0.006 A  
DOCKED: ATOM     19  C   UNL     1     -59.238 -37.767  10.632 -0.08 +0.00    +0.001 A  
DOCKED: ATOM     20  C   UNL     1     -59.303 -38.677  11.688 -0.11 +0.00    +0.029 A  
DOCKED: ATOM     21  C   UNL     1     -58.470 -39.795  11.698 -0.10 +0.00    +0.140 A  
DOCKED: ATOM     22  C   UNL     1     -57.570 -40.003  10.653 -0.20 +0.00    +0.029 A  
DOCKED: ATOM     23  F   UNL     1     -58.533 -40.669  12.710 -0.05 -0.00    -0.204 F  
DOCKED: ATOM     24  C   UNL     1     -57.503 -39.093   9.597 -0.20 +0.00    +0.001 A  
DOCKED: ENDBRANCH   2  18
DOCKED: TORSDOF 5
DOCKED: TER
DOCKED: ENDMDL
________________________________________________________________________________


    FINAL DOCKED STATE:
    ________________________


Run:   108 / 512
Time taken for this run:   0.002s

DOCKED: MODEL        108
DOCKED: USER    Run = 108
DOCKED: USER
DOCKED: USER    Estimated Free Energy of Binding    =  -3.45 kcal/mol  [=(1)+(2)+(3)-(4)]
DOCKED: USER
DOCKED: USER    (1) Final Intermolecular Energy     =  -4.94 kcal/mol
DOCKED: USER        vdW + Hbond + desolv Energy     =  -4.94 kcal/mol
DOCKED: USER        Electrostatic Energy            =  +0.00 kcal/mol
DOCKED: USER        Moving Ligand-Fixed Receptor    =  -4.94 kcal/mol
DOCKED: USER        Moving Ligand-Moving Receptor   =  +0.00 kcal/mol
DOCKED: USER    (2) Final Total Internal Energy     =  -1.44 kcal/mol
DOCKED: USER    (3) Torsional Free Energy           =  +1.49 kcal/mol
DOCKED: USER    (4) Unbound System's Energy         =  -1.44 kcal/mol
DOCKED: USER
DOCKED: USER
DOCKED: REMARK  5 active torsions:
DOCKED: REMARK  status: ('A' for Active; 'I' for Inactive)
DOCKED: REMARK    1  A    between atoms: C_2  and  C_19 
DOCKED: REMARK    2  A    between atoms: C_2  and  C_11 
DOCKED: REMARK    3  A    between atoms: C_19  and  C_20 
DOCKED: REMARK    4  A    between atoms: C_20  and  C_21 
DOCKED: REMARK    5  A    between atoms: C_21  and  N_22 
DOCKED: USER                              x       y       z     vdW  Elec       q    Type
DOCKED: USER                           _______ _______ _______ _____ _____    ______ ____
DOCKED: ROOT
DOCKED: ATOM      1  O   UNL     1     -50.783 -26.180  -1.434 -0.02 -0.00    -0.346 OA 
DOCKED: ATOM      2  C   UNL     1     -50.615 -25.514  -2.726 -0.06 +0.00    +0.130 C  
DOCKED: ATOM      3  C   UNL     1     -51.905 -25.790  -3.444 -0.14 +0.00    +0.004 A  
DOCKED: ATOM      4  C   UNL     1     -52.776 -26.459  -2.596 -0.19 +0.00    +0.006 A  
DOCKED: ATOM      5  C   UNL     1     -52.139 -26.659  -1.275 -0.13 +0.00    +0.169 C  
DOCKED: ATOM      6  C   UNL     1     -52.281 -25.464  -4.738 -0.09 -0.00    -0.001 A  
DOCKED: ATOM      7  C   UNL     1     -54.044 -26.828  -3.012 -0.28 +0.00    +0.008 A  
DOCKED: ATOM      8  C   UNL     1     -53.555 -25.833  -5.174 -0.10 +0.00    +0.010 A  
DOCKED: ATOM      9  C   UNL     1     -54.432 -26.511  -4.315 -0.32 +0.00    +0.068 A  
DOCKED: ATOM     10  N   UNL     1     -56.791 -27.177  -5.153 -2.33 -0.00    -0.191 NA 
DOCKED: ATOM     11  C   UNL     1     -55.733 -26.879  -4.777 -0.45 +0.00    +0.101 C  
DOCKED: ENDROOT
DOCKED: BRANCH   2  12
DOCKED: ATOM     12  C   UNL     1     -50.380 -24.029  -2.477 -0.08 +0.00    +0.038 C  
DOCKED: BRANCH  12  13
DOCKED: ATOM     13  C   UNL     1     -50.377 -23.709  -0.983 -0.07 +0.00    +0.038 C  
DOCKED: BRANCH  13  14
DOCKED: ATOM     14  C   UNL     1     -51.692 -23.059  -0.557 -0.10 +0.00    +0.251 C  
DOCKED: BRANCH  14  15
DOCKED: ATOM     15  N   UNL     1     -52.594 -22.947  -1.696 -0.17 +0.00    +0.141 N  
DOCKED: ATOM     16  C   UNL     1     -53.957 -23.321  -1.314 -0.23 +0.00    +0.285 C  
DOCKED: ATOM     17  C   UNL     1     -52.575 -21.587  -2.238 -0.09 +0.00    +0.285 C  
DOCKED: ENDBRANCH  14  15
DOCKED: ENDBRANCH  13  14
DOCKED: ENDBRANCH  12  13
DOCKED: ENDBRANCH   2  12
DOCKED: BRANCH   2  18
DOCKED: ATOM     18  C   UNL     1     -49.435 -26.141  -3.390 -0.02 +0.00    +0.006 A  
DOCKED: ATOM     19  C   UNL     1     -48.980 -27.390  -2.969 -0.01 +0.00    +0.001 A  
DOCKED: ATOM     20  C   UNL     1     -47.876 -27.975  -3.590 -0.00 +0.00    +0.029 A  
DOCKED: ATOM     21  C   UNL     1     -47.229 -27.311  -4.632 +0.00 +0.00    +0.140 A  
DOCKED: ATOM     22  C   UNL     1     -47.685 -26.062  -5.053 -0.01 +0.00    +0.029 A  
DOCKED: ATOM     23  F   UNL     1     -46.171 -27.874  -5.230 +0.00 -0.00    -0.204 F  
DOCKED: ATOM     24  C   UNL     1     -48.789 -25.476  -4.432 -0.03 +0.00    +0.001 A  
DOCKED: ENDBRANCH   2  18
DOCKED: TORSDOF 5
DOCKED: TER
DOCKED: ENDMDL
________________________________________________________________________________


    FINAL DOCKED STATE:
    ________________________


Run:   109 / 512
Time taken for this run:   0.002s

DOCKED: MODEL        109
DOCKED: USER    Run = 109
DOCKED: USER
DOCKED: USER    Estimated Free Energy of Binding    =  -4.35 kcal/mol  [=(1)+(2)+(3)-(4)]
DOCKED: USER
DOCKED: USER    (1) Final Intermolecular Energy     =  -5.85 kcal/mol
DOCKED: USER        vdW + Hbond + desolv Energy     =  -5.85 kcal/mol
DOCKED: USER        Electrostatic Energy            =  +0.00 kcal/mol
DOCKED: USER        Moving Ligand-Fixed Receptor    =  -5.85 kcal/mol
DOCKED: USER        Moving Ligand-Moving Receptor   =  +0.00 kcal/mol
DOCKED: USER    (2) Final Total Internal Energy     =  -1.36 kcal/mol
DOCKED: USER    (3) Torsional Free Energy           =  +1.49 kcal/mol
DOCKED: USER    (4) Unbound System's Energy         =  -1.36 kcal/mol
DOCKED: USER
DOCKED: USER
DOCKED: REMARK  5 active torsions:
DOCKED: REMARK  status: ('A' for Active; 'I' for Inactive)
DOCKED: REMARK    1  A    between atoms: C_2  and  C_19 
DOCKED: REMARK    2  A    between atoms: C_2  and  C_11 
DOCKED: REMARK    3  A    between atoms: C_19  and  C_20 
DOCKED: REMARK    4  A    between atoms: C_20  and  C_21 
DOCKED: REMARK    5  A    between atoms: C_21  and  N_22 
DOCKED: USER                              x       y       z     vdW  Elec       q    Type
DOCKED: USER                           _______ _______ _______ _____ _____    ______ ____
DOCKED: ROOT
DOCKED: ATOM      1  O   UNL     1     -57.646 -35.939   8.625 -0.02 -0.00    -0.346 OA 
DOCKED: ATOM      2  C   UNL     1     -57.482 -37.390   8.721 -0.14 +0.00    +0.130 C  
DOCKED: ATOM      3  C   UNL     1     -57.897 -37.890   7.368 -0.28 +0.00    +0.004 A  
DOCKED: ATOM      4  C   UNL     1     -58.168 -36.813   6.535 -0.31 +0.00    +0.006 A  
DOCKED: ATOM      5  C   UNL     1     -57.942 -35.545   7.265 -0.18 +0.00    +0.169 C  
DOCKED: ATOM      6  C   UNL     1     -58.014 -39.193   6.906 -0.32 -0.00    -0.001 A  
DOCKED: ATOM      7  C   UNL     1     -58.567 -36.999   5.223 -0.29 +0.00    +0.008 A  
DOCKED: ATOM      8  C   UNL     1     -58.420 -39.397   5.586 -0.39 +0.00    +0.010 A  
DOCKED: ATOM      9  C   UNL     1     -58.694 -38.305   4.749 -0.39 +0.00    +0.068 A  
DOCKED: ATOM     10  N   UNL     1     -59.440 -38.719   2.302 -2.01 -0.00    -0.191 NA 
DOCKED: ATOM     11  C   UNL     1     -59.106 -38.533   3.400 -0.51 +0.00    +0.101 C  
DOCKED: ENDROOT
DOCKED: BRANCH   2  12
DOCKED: ATOM     12  C   UNL     1     -56.023 -37.691   9.043 -0.18 +0.00    +0.038 C  
DOCKED: BRANCH  12  13
DOCKED: ATOM     13  C   UNL     1     -55.090 -37.135   7.969 -0.07 +0.00    +0.038 C  
DOCKED: BRANCH  13  14
DOCKED: ATOM     14  C   UNL     1     -54.662 -35.706   8.298 -0.09 +0.00    +0.251 C  
DOCKED: BRANCH  14  15
DOCKED: ATOM     15  N   UNL     1     -55.015 -35.376   9.674 -0.04 +0.00    +0.141 N  
DOCKED: ATOM     16  C   UNL     1     -53.868 -35.570  10.562 -0.02 +0.00    +0.285 C  
DOCKED: ATOM     17  C   UNL     1     -55.499 -33.997   9.765 -0.01 +0.00    +0.285 C  
DOCKED: ENDBRANCH  14  15
DOCKED: ENDBRANCH  13  14
DOCKED: ENDBRANCH  12  13
DOCKED: ENDBRANCH   2  12
DOCKED: BRANCH   2  18
DOCKED: ATOM     18  C   UNL     1     -58.382 -37.860   9.815 -0.12 +0.00    +0.006 A  
DOCKED: ATOM     19  C   UNL     1     -58.346 -39.192  10.223 -0.22 +0.00    +0.001 A  
DOCKED: ATOM     20  C   UNL     1     -59.189 -39.630  11.246 -0.09 +0.00    +0.029 A  
DOCKED: ATOM     21  C   UNL     1     -60.064 -38.735  11.859 -0.07 +0.00    +0.140 A  
DOCKED: ATOM     22  C   UNL     1     -60.099 -37.402  11.450 -0.04 +0.00    +0.029 A  
DOCKED: ATOM     23  F   UNL     1     -60.871 -39.154  12.842 -0.00 -0.00    -0.204 F  
DOCKED: ATOM     24  C   UNL     1     -59.257 -36.963  10.427 -0.05 +0.00    +0.001 A  
DOCKED: ENDBRANCH   2  18
DOCKED: TORSDOF 5
DOCKED: TER
DOCKED: ENDMDL
________________________________________________________________________________


    FINAL DOCKED STATE:
    ________________________


Run:   110 / 512
Time taken for this run:   0.002s

DOCKED: MODEL        110
DOCKED: USER    Run = 110
DOCKED: USER
DOCKED: USER    Estimated Free Energy of Binding    =  -3.62 kcal/mol  [=(1)+(2)+(3)-(4)]
DOCKED: USER
DOCKED: USER    (1) Final Intermolecular Energy     =  -5.11 kcal/mol
DOCKED: USER        vdW + Hbond + desolv Energy     =  -5.11 kcal/mol
DOCKED: USER        Electrostatic Energy            =  +0.00 kcal/mol
DOCKED: USER        Moving Ligand-Fixed Receptor    =  -5.11 kcal/mol
DOCKED: USER        Moving Ligand-Moving Receptor   =  +0.00 kcal/mol
DOCKED: USER    (2) Final Total Internal Energy     =  -1.53 kcal/mol
DOCKED: USER    (3) Torsional Free Energy           =  +1.49 kcal/mol
DOCKED: USER    (4) Unbound System's Energy         =  -1.53 kcal/mol
DOCKED: USER
DOCKED: USER
DOCKED: REMARK  5 active torsions:
DOCKED: REMARK  status: ('A' for Active; 'I' for Inactive)
DOCKED: REMARK    1  A    between atoms: C_2  and  C_19 
DOCKED: REMARK    2  A    between atoms: C_2  and  C_11 
DOCKED: REMARK    3  A    between atoms: C_19  and  C_20 
DOCKED: REMARK    4  A    between atoms: C_20  and  C_21 
DOCKED: REMARK    5  A    between atoms: C_21  and  N_22 
DOCKED: USER                              x       y       z     vdW  Elec       q    Type
DOCKED: USER                           _______ _______ _______ _____ _____    ______ ____
DOCKED: ROOT
DOCKED: ATOM      1  O   UNL     1     -49.530 -35.016   0.892 +0.01 -0.00    -0.346 OA 
DOCKED: ATOM      2  C   UNL     1     -50.955 -35.063   0.562 -0.07 +0.00    +0.130 C  
DOCKED: ATOM      3  C   UNL     1     -51.445 -36.301   1.256 -0.15 +0.00    +0.004 A  
DOCKED: ATOM      4  C   UNL     1     -50.417 -36.852   2.008 -0.09 +0.00    +0.006 A  
DOCKED: ATOM      5  C   UNL     1     -49.198 -36.024   1.876 -0.02 +0.00    +0.169 C  
DOCKED: ATOM      6  C   UNL     1     -52.703 -36.886   1.234 -0.27 -0.00    -0.001 A  
DOCKED: ATOM      7  C   UNL     1     -50.607 -38.002   2.755 -0.17 +0.00    +0.008 A  
DOCKED: ATOM      8  C   UNL     1     -52.909 -38.049   1.978 -0.27 +0.00    +0.010 A  
DOCKED: ATOM      9  C   UNL     1     -51.867 -38.603   2.735 -0.30 +0.00    +0.068 A  
DOCKED: ATOM     10  N   UNL     1     -52.285 -40.759   4.110 -2.65 -0.00    -0.191 NA 
DOCKED: ATOM     11  C   UNL     1     -52.097 -39.793   3.493 -0.30 +0.00    +0.101 C  
DOCKED: ENDROOT
DOCKED: BRANCH   2  12
DOCKED: ATOM     12  C   UNL     1     -51.614 -33.791   1.083 -0.06 +0.00    +0.038 C  
DOCKED: BRANCH  12  13
DOCKED: ATOM     13  C   UNL     1     -50.679 -32.589   0.958 -0.01 +0.00    +0.038 C  
DOCKED: BRANCH  13  14
DOCKED: ATOM     14  C   UNL     1     -50.999 -31.773  -0.293 -0.00 +0.00    +0.251 C  
DOCKED: BRANCH  14  15
DOCKED: ATOM     15  N   UNL     1     -50.030 -32.057  -1.345 -0.00 +0.00    +0.141 N  
DOCKED: ATOM     16  C   UNL     1     -49.906 -30.916  -2.254 +0.00 +0.00    +0.285 C  
DOCKED: ATOM     17  C   UNL     1     -48.726 -32.391  -0.769 -0.00 +0.00    +0.285 C  
DOCKED: ENDBRANCH  14  15
DOCKED: ENDBRANCH  13  14
DOCKED: ENDBRANCH  12  13
DOCKED: ENDBRANCH   2  12
DOCKED: BRANCH   2  18
DOCKED: ATOM     18  C   UNL     1     -51.056 -35.152  -0.924 -0.11 +0.00    +0.006 A  
DOCKED: ATOM     19  C   UNL     1     -49.956 -35.570  -1.673 -0.06 +0.00    +0.001 A  
DOCKED: ATOM     20  C   UNL     1     -50.052 -35.652  -3.063 -0.07 +0.00    +0.029 A  
DOCKED: ATOM     21  C   UNL     1     -51.245 -35.317  -3.701 -0.14 +0.00    +0.140 A  
DOCKED: ATOM     22  C   UNL     1     -52.344 -34.899  -2.951 -0.19 +0.00    +0.029 A  
DOCKED: ATOM     23  F   UNL     1     -51.337 -35.397  -5.035 -0.03 -0.00    -0.204 F  
DOCKED: ATOM     24  C   UNL     1     -52.250 -34.816  -1.561 -0.17 +0.00    +0.001 A  
DOCKED: ENDBRANCH   2  18
DOCKED: TORSDOF 5
DOCKED: TER
DOCKED: ENDMDL
________________________________________________________________________________


    FINAL DOCKED STATE:
    ________________________


Run:   111 / 512
Time taken for this run:   0.002s

DOCKED: MODEL        111
DOCKED: USER    Run = 111
DOCKED: USER
DOCKED: USER    Estimated Free Energy of Binding    =  -4.09 kcal/mol  [=(1)+(2)+(3)-(4)]
DOCKED: USER
DOCKED: USER    (1) Final Intermolecular Energy     =  -5.58 kcal/mol
DOCKED: USER        vdW + Hbond + desolv Energy     =  -5.58 kcal/mol
DOCKED: USER        Electrostatic Energy            =  +0.00 kcal/mol
DOCKED: USER        Moving Ligand-Fixed Receptor    =  -5.58 kcal/mol
DOCKED: USER        Moving Ligand-Moving Receptor   =  +0.00 kcal/mol
DOCKED: USER    (2) Final Total Internal Energy     =  -1.45 kcal/mol
DOCKED: USER    (3) Torsional Free Energy           =  +1.49 kcal/mol
DOCKED: USER    (4) Unbound System's Energy         =  -1.45 kcal/mol
DOCKED: USER
DOCKED: USER
DOCKED: REMARK  5 active torsions:
DOCKED: REMARK  status: ('A' for Active; 'I' for Inactive)
DOCKED: REMARK    1  A    between atoms: C_2  and  C_19 
DOCKED: REMARK    2  A    between atoms: C_2  and  C_11 
DOCKED: REMARK    3  A    between atoms: C_19  and  C_20 
DOCKED: REMARK    4  A    between atoms: C_20  and  C_21 
DOCKED: REMARK    5  A    between atoms: C_21  and  N_22 
DOCKED: USER                              x       y       z     vdW  Elec       q    Type
DOCKED: USER                           _______ _______ _______ _____ _____    ______ ____
DOCKED: ROOT
DOCKED: ATOM      1  O   UNL     1     -60.731 -33.682   7.425 -0.09 -0.00    -0.346 OA 
DOCKED: ATOM      2  C   UNL     1     -59.278 -33.844   7.362 -0.17 +0.00    +0.130 C  
DOCKED: ATOM      3  C   UNL     1     -59.093 -35.273   6.940 -0.23 +0.00    +0.004 A  
DOCKED: ATOM      4  C   UNL     1     -60.330 -35.846   6.678 -0.18 +0.00    +0.006 A  
DOCKED: ATOM      5  C   UNL     1     -61.401 -34.848   6.892 -0.19 +0.00    +0.169 C  
DOCKED: ATOM      6  C   UNL     1     -57.924 -36.004   6.790 -0.27 -0.00    -0.001 A  
DOCKED: ATOM      7  C   UNL     1     -60.440 -37.162   6.263 -0.23 +0.00    +0.008 A  
DOCKED: ATOM      8  C   UNL     1     -58.019 -37.333   6.377 -0.33 +0.00    +0.010 A  
DOCKED: ATOM      9  C   UNL     1     -59.271 -37.909   6.114 -0.27 +0.00    +0.068 A  
DOCKED: ATOM     10  N   UNL     1     -59.412 -40.379   5.343 -2.61 -0.00    -0.191 NA 
DOCKED: ATOM     11  C   UNL     1     -59.349 -39.271   5.690 -0.37 +0.00    +0.101 C  
DOCKED: ENDROOT
DOCKED: BRANCH   2  12
DOCKED: ATOM     12  C   UNL     1     -58.726 -32.849   6.348 -0.17 +0.00    +0.038 C  
DOCKED: BRANCH  12  13
DOCKED: ATOM     13  C   UNL     1     -59.777 -31.813   5.954 -0.16 +0.00    +0.038 C  
DOCKED: BRANCH  13  14
DOCKED: ATOM     14  C   UNL     1     -59.789 -30.643   6.936 -0.06 +0.00    +0.251 C  
DOCKED: BRANCH  14  15
DOCKED: ATOM     15  N   UNL     1     -61.160 -30.246   7.234 -0.04 +0.00    +0.141 N  
DOCKED: ATOM     16  C   UNL     1     -62.075 -30.736   6.201 -0.08 +0.00    +0.285 C  
DOCKED: ATOM     17  C   UNL     1     -61.567 -30.744   8.549 -0.01 +0.00    +0.285 C  
DOCKED: ENDBRANCH  14  15
DOCKED: ENDBRANCH  13  14
DOCKED: ENDBRANCH  12  13
DOCKED: ENDBRANCH   2  12
DOCKED: BRANCH   2  18
DOCKED: ATOM     18  C   UNL     1     -58.749 -33.568   8.730 -0.05 +0.00    +0.006 A  
DOCKED: ATOM     19  C   UNL     1     -57.384 -33.695   8.987 -0.04 +0.00    +0.001 A  
DOCKED: ATOM     20  C   UNL     1     -56.891 -33.437  10.267 -0.01 +0.00    +0.029 A  
DOCKED: ATOM     21  C   UNL     1     -57.761 -33.052  11.286 -0.00 +0.00    +0.140 A  
DOCKED: ATOM     22  C   UNL     1     -59.126 -32.925  11.027 -0.00 +0.00    +0.029 A  
DOCKED: ATOM     23  F   UNL     1     -57.287 -32.803  12.513 +0.00 -0.00    -0.204 F  
DOCKED: ATOM     24  C   UNL     1     -59.621 -33.183   9.748 -0.02 +0.00    +0.001 A  
DOCKED: ENDBRANCH   2  18
DOCKED: TORSDOF 5
DOCKED: TER
DOCKED: ENDMDL
________________________________________________________________________________


    FINAL DOCKED STATE:
    ________________________


Run:   112 / 512
Time taken for this run:   0.002s

DOCKED: MODEL        112
DOCKED: USER    Run = 112
DOCKED: USER
DOCKED: USER    Estimated Free Energy of Binding    =  -3.93 kcal/mol  [=(1)+(2)+(3)-(4)]
DOCKED: USER
DOCKED: USER    (1) Final Intermolecular Energy     =  -5.42 kcal/mol
DOCKED: USER        vdW + Hbond + desolv Energy     =  -5.42 kcal/mol
DOCKED: USER        Electrostatic Energy            =  +0.00 kcal/mol
DOCKED: USER        Moving Ligand-Fixed Receptor    =  -5.42 kcal/mol
DOCKED: USER        Moving Ligand-Moving Receptor   =  +0.00 kcal/mol
DOCKED: USER    (2) Final Total Internal Energy     =  -1.14 kcal/mol
DOCKED: USER    (3) Torsional Free Energy           =  +1.49 kcal/mol
DOCKED: USER    (4) Unbound System's Energy         =  -1.14 kcal/mol
DOCKED: USER
DOCKED: USER
DOCKED: REMARK  5 active torsions:
DOCKED: REMARK  status: ('A' for Active; 'I' for Inactive)
DOCKED: REMARK    1  A    between atoms: C_2  and  C_19 
DOCKED: REMARK    2  A    between atoms: C_2  and  C_11 
DOCKED: REMARK    3  A    between atoms: C_19  and  C_20 
DOCKED: REMARK    4  A    between atoms: C_20  and  C_21 
DOCKED: REMARK    5  A    between atoms: C_21  and  N_22 
DOCKED: USER                              x       y       z     vdW  Elec       q    Type
DOCKED: USER                           _______ _______ _______ _____ _____    ______ ____
DOCKED: ROOT
DOCKED: ATOM      1  O   UNL     1     -60.098 -34.182   8.805 -0.01 -0.00    -0.346 OA 
DOCKED: ATOM      2  C   UNL     1     -59.095 -33.992   7.757 -0.13 +0.00    +0.130 C  
DOCKED: ATOM      3  C   UNL     1     -59.002 -35.339   7.100 -0.22 +0.00    +0.004 A  
DOCKED: ATOM      4  C   UNL     1     -59.947 -36.193   7.650 -0.16 +0.00    +0.006 A  
DOCKED: ATOM      5  C   UNL     1     -60.729 -35.478   8.684 -0.06 +0.00    +0.169 C  
DOCKED: ATOM      6  C   UNL     1     -58.156 -35.771   6.089 -0.24 -0.00    -0.001 A  
DOCKED: ATOM      7  C   UNL     1     -60.077 -37.501   7.215 -0.19 +0.00    +0.008 A  
DOCKED: ATOM      8  C   UNL     1     -58.272 -37.088   5.642 -0.34 +0.00    +0.010 A  
DOCKED: ATOM      9  C   UNL     1     -59.228 -37.948   6.202 -0.27 +0.00    +0.068 A  
DOCKED: ATOM     10  N   UNL     1     -59.419 -40.386   5.345 -2.62 -0.00    -0.191 NA 
DOCKED: ATOM     11  C   UNL     1     -59.333 -39.293   5.730 -0.36 +0.00    +0.101 C  
DOCKED: ENDROOT
DOCKED: BRANCH   2  12
DOCKED: ATOM     12  C   UNL     1     -59.585 -32.903   6.811 -0.22 +0.00    +0.038 C  
DOCKED: BRANCH  12  13
DOCKED: ATOM     13  C   UNL     1     -58.782 -31.614   6.981 -0.12 +0.00    +0.038 C  
DOCKED: BRANCH  13  14
DOCKED: ATOM     14  C   UNL     1     -58.431 -31.003   5.626 -0.12 +0.00    +0.251 C  
DOCKED: BRANCH  14  15
DOCKED: ATOM     15  N   UNL     1     -57.028 -30.607   5.597 -0.07 +0.00    +0.141 N  
DOCKED: ATOM     16  C   UNL     1     -56.654 -29.940   6.845 -0.01 +0.00    +0.285 C  
DOCKED: ATOM     17  C   UNL     1     -56.168 -31.768   5.364 -0.06 +0.00    +0.285 C  
DOCKED: ENDBRANCH  14  15
DOCKED: ENDBRANCH  13  14
DOCKED: ENDBRANCH  12  13
DOCKED: ENDBRANCH   2  12
DOCKED: BRANCH   2  18
DOCKED: ATOM     18  C   UNL     1     -57.828 -33.587   8.434 -0.06 +0.00    +0.006 A  
DOCKED: ATOM     19  C   UNL     1     -56.599 -33.875   7.842 -0.10 +0.00    +0.001 A  
DOCKED: ATOM     20  C   UNL     1     -55.415 -33.496   8.477 -0.05 +0.00    +0.029 A  
DOCKED: ATOM     21  C   UNL     1     -55.462 -32.829   9.700 -0.01 +0.00    +0.140 A  
DOCKED: ATOM     22  C   UNL     1     -56.692 -32.541  10.291 -0.01 +0.00    +0.029 A  
DOCKED: ATOM     23  F   UNL     1     -54.326 -32.464  10.308 +0.00 -0.00    -0.204 F  
DOCKED: ATOM     24  C   UNL     1     -57.877 -32.920   9.658 -0.02 +0.00    +0.001 A  
DOCKED: ENDBRANCH   2  18
DOCKED: TORSDOF 5
DOCKED: TER
DOCKED: ENDMDL
________________________________________________________________________________


    FINAL DOCKED STATE:
    ________________________


Run:   113 / 512
Time taken for this run:   0.002s

DOCKED: MODEL        113
DOCKED: USER    Run = 113
DOCKED: USER
DOCKED: USER    Estimated Free Energy of Binding    =  -4.06 kcal/mol  [=(1)+(2)+(3)-(4)]
DOCKED: USER
DOCKED: USER    (1) Final Intermolecular Energy     =  -5.56 kcal/mol
DOCKED: USER        vdW + Hbond + desolv Energy     =  -5.56 kcal/mol
DOCKED: USER        Electrostatic Energy            =  +0.00 kcal/mol
DOCKED: USER        Moving Ligand-Fixed Receptor    =  -5.56 kcal/mol
DOCKED: USER        Moving Ligand-Moving Receptor   =  +0.00 kcal/mol
DOCKED: USER    (2) Final Total Internal Energy     =  -1.46 kcal/mol
DOCKED: USER    (3) Torsional Free Energy           =  +1.49 kcal/mol
DOCKED: USER    (4) Unbound System's Energy         =  -1.46 kcal/mol
DOCKED: USER
DOCKED: USER
DOCKED: REMARK  5 active torsions:
DOCKED: REMARK  status: ('A' for Active; 'I' for Inactive)
DOCKED: REMARK    1  A    between atoms: C_2  and  C_19 
DOCKED: REMARK    2  A    between atoms: C_2  and  C_11 
DOCKED: REMARK    3  A    between atoms: C_19  and  C_20 
DOCKED: REMARK    4  A    between atoms: C_20  and  C_21 
DOCKED: REMARK    5  A    between atoms: C_21  and  N_22 
DOCKED: USER                              x       y       z     vdW  Elec       q    Type
DOCKED: USER                           _______ _______ _______ _____ _____    ______ ____
DOCKED: ROOT
DOCKED: ATOM      1  O   UNL     1     -49.822 -34.897   0.711 +0.01 -0.00    -0.346 OA 
DOCKED: ATOM      2  C   UNL     1     -51.279 -34.899   0.570 -0.08 +0.00    +0.130 C  
DOCKED: ATOM      3  C   UNL     1     -51.705 -36.164   1.256 -0.17 +0.00    +0.004 A  
DOCKED: ATOM      4  C   UNL     1     -50.602 -36.776   1.834 -0.10 +0.00    +0.006 A  
DOCKED: ATOM      5  C   UNL     1     -49.390 -35.965   1.586 -0.02 +0.00    +0.169 C  
DOCKED: ATOM      6  C   UNL     1     -52.970 -36.723   1.369 -0.29 -0.00    -0.001 A  
DOCKED: ATOM      7  C   UNL     1     -50.723 -37.963   2.537 -0.17 +0.00    +0.008 A  
DOCKED: ATOM      8  C   UNL     1     -53.107 -37.922   2.071 -0.16 +0.00    +0.010 A  
DOCKED: ATOM      9  C   UNL     1     -51.989 -38.538   2.653 -0.30 +0.00    +0.068 A  
DOCKED: ATOM     10  N   UNL     1     -52.280 -40.760   3.954 -2.59 -0.00    -0.191 NA 
DOCKED: ATOM     11  C   UNL     1     -52.149 -39.764   3.370 -0.31 +0.00    +0.101 C  
DOCKED: ENDROOT
DOCKED: BRANCH   2  12
DOCKED: ATOM     12  C   UNL     1     -51.830 -33.646   1.240 -0.06 +0.00    +0.038 C  
DOCKED: BRANCH  12  13
DOCKED: ATOM     13  C   UNL     1     -51.121 -33.365   2.564 -0.03 +0.00    +0.038 C  
DOCKED: BRANCH  13  14
DOCKED: ATOM     14  C   UNL     1     -51.847 -34.036   3.729 -0.06 +0.00    +0.251 C  
DOCKED: BRANCH  14  15
DOCKED: ATOM     15  N   UNL     1     -50.966 -34.991   4.393 -0.06 +0.00    +0.141 N  
DOCKED: ATOM     16  C   UNL     1     -49.684 -34.367   4.722 -0.01 +0.00    +0.285 C  
DOCKED: ATOM     17  C   UNL     1     -51.599 -35.520   5.602 -0.06 +0.00    +0.285 C  
DOCKED: ENDBRANCH  14  15
DOCKED: ENDBRANCH  13  14
DOCKED: ENDBRANCH  12  13
DOCKED: ENDBRANCH   2  12
DOCKED: BRANCH   2  18
DOCKED: ATOM     18  C   UNL     1     -51.576 -34.901  -0.893 -0.13 +0.00    +0.006 A  
DOCKED: ATOM     19  C   UNL     1     -52.399 -33.917  -1.438 -0.17 +0.00    +0.001 A  
DOCKED: ATOM     20  C   UNL     1     -52.676 -33.921  -2.806 -0.22 +0.00    +0.029 A  
DOCKED: ATOM     21  C   UNL     1     -52.130 -34.908  -3.625 -0.19 +0.00    +0.140 A  
DOCKED: ATOM     22  C   UNL     1     -51.306 -35.892  -3.079 -0.16 +0.00    +0.029 A  
DOCKED: ATOM     23  F   UNL     1     -52.395 -34.910  -4.938 -0.08 -0.00    -0.204 F  
DOCKED: ATOM     24  C   UNL     1     -51.029 -35.889  -1.711 -0.13 +0.00    +0.001 A  
DOCKED: ENDBRANCH   2  18
DOCKED: TORSDOF 5
DOCKED: TER
DOCKED: ENDMDL
________________________________________________________________________________


    FINAL DOCKED STATE:
    ________________________


Run:   114 / 512
Time taken for this run:   0.002s

DOCKED: MODEL        114
DOCKED: USER    Run = 114
DOCKED: USER
DOCKED: USER    Estimated Free Energy of Binding    =  -4.11 kcal/mol  [=(1)+(2)+(3)-(4)]
DOCKED: USER
DOCKED: USER    (1) Final Intermolecular Energy     =  -5.60 kcal/mol
DOCKED: USER        vdW + Hbond + desolv Energy     =  -5.60 kcal/mol
DOCKED: USER        Electrostatic Energy            =  +0.00 kcal/mol
DOCKED: USER        Moving Ligand-Fixed Receptor    =  -5.60 kcal/mol
DOCKED: USER        Moving Ligand-Moving Receptor   =  +0.00 kcal/mol
DOCKED: USER    (2) Final Total Internal Energy     =  -1.43 kcal/mol
DOCKED: USER    (3) Torsional Free Energy           =  +1.49 kcal/mol
DOCKED: USER    (4) Unbound System's Energy         =  -1.43 kcal/mol
DOCKED: USER
DOCKED: USER
DOCKED: REMARK  5 active torsions:
DOCKED: REMARK  status: ('A' for Active; 'I' for Inactive)
DOCKED: REMARK    1  A    between atoms: C_2  and  C_19 
DOCKED: REMARK    2  A    between atoms: C_2  and  C_11 
DOCKED: REMARK    3  A    between atoms: C_19  and  C_20 
DOCKED: REMARK    4  A    between atoms: C_20  and  C_21 
DOCKED: REMARK    5  A    between atoms: C_21  and  N_22 
DOCKED: USER                              x       y       z     vdW  Elec       q    Type
DOCKED: USER                           _______ _______ _______ _____ _____    ______ ____
DOCKED: ROOT
DOCKED: ATOM      1  O   UNL     1     -58.087 -33.688   7.948 -0.02 -0.00    -0.346 OA 
DOCKED: ATOM      2  C   UNL     1     -59.545 -33.762   7.840 -0.12 +0.00    +0.130 C  
DOCKED: ATOM      3  C   UNL     1     -59.794 -35.129   7.271 -0.20 +0.00    +0.004 A  
DOCKED: ATOM      4  C   UNL     1     -58.594 -35.817   7.166 -0.22 +0.00    +0.006 A  
DOCKED: ATOM      5  C   UNL     1     -57.485 -34.972   7.663 -0.14 +0.00    +0.169 C  
DOCKED: ATOM      6  C   UNL     1     -60.989 -35.720   6.887 -0.22 -0.00    -0.001 A  
DOCKED: ATOM      7  C   UNL     1     -58.545 -37.110   6.673 -0.29 +0.00    +0.008 A  
DOCKED: ATOM      8  C   UNL     1     -60.956 -37.022   6.384 -0.23 +0.00    +0.010 A  
DOCKED: ATOM      9  C   UNL     1     -59.740 -37.713   6.278 -0.23 +0.00    +0.068 A  
DOCKED: ATOM     10  N   UNL     1     -59.715 -40.130   5.345 -2.54 -0.00    -0.191 NA 
DOCKED: ATOM     11  C   UNL     1     -59.726 -39.046   5.763 -0.35 +0.00    +0.101 C  
DOCKED: ENDROOT
DOCKED: BRANCH   2  12
DOCKED: ATOM     12  C   UNL     1     -60.142 -33.581   9.230 -0.04 +0.00    +0.038 C  
DOCKED: BRANCH  12  13
DOCKED: ATOM     13  C   UNL     1     -59.531 -32.377   9.946 -0.02 +0.00    +0.038 C  
DOCKED: BRANCH  13  14
DOCKED: ATOM     14  C   UNL     1     -58.621 -32.822  11.089 -0.00 +0.00    +0.251 C  
DOCKED: BRANCH  14  15
DOCKED: ATOM     15  N   UNL     1     -57.274 -32.296  10.899 -0.00 +0.00    +0.141 N  
DOCKED: ATOM     16  C   UNL     1     -56.354 -33.364  10.503 -0.00 +0.00    +0.285 C  
DOCKED: ATOM     17  C   UNL     1     -57.274 -31.229   9.898 -0.00 +0.00    +0.285 C  
DOCKED: ENDBRANCH  14  15
DOCKED: ENDBRANCH  13  14
DOCKED: ENDBRANCH  12  13
DOCKED: ENDBRANCH   2  12
DOCKED: BRANCH   2  18
DOCKED: ATOM     18  C   UNL     1     -59.971 -32.664   6.924 -0.20 +0.00    +0.006 A  
DOCKED: ATOM     19  C   UNL     1     -61.317 -32.310   6.839 -0.20 +0.00    +0.001 A  
DOCKED: ATOM     20  C   UNL     1     -61.714 -31.283   5.982 -0.14 +0.00    +0.029 A  
DOCKED: ATOM     21  C   UNL     1     -60.765 -30.612   5.211 -0.08 +0.00    +0.140 A  
DOCKED: ATOM     22  C   UNL     1     -59.419 -30.967   5.296 -0.14 +0.00    +0.029 A  
DOCKED: ATOM     23  F   UNL     1     -61.147 -29.625   4.390 -0.03 -0.00    -0.204 F  
DOCKED: ATOM     24  C   UNL     1     -59.021 -31.994   6.153 -0.18 +0.00    +0.001 A  
DOCKED: ENDBRANCH   2  18
DOCKED: TORSDOF 5
DOCKED: TER
DOCKED: ENDMDL
________________________________________________________________________________


    FINAL DOCKED STATE:
    ________________________


Run:   115 / 512
Time taken for this run:   0.002s

DOCKED: MODEL        115
DOCKED: USER    Run = 115
DOCKED: USER
DOCKED: USER    Estimated Free Energy of Binding    =  -4.01 kcal/mol  [=(1)+(2)+(3)-(4)]
DOCKED: USER
DOCKED: USER    (1) Final Intermolecular Energy     =  -5.50 kcal/mol
DOCKED: USER        vdW + Hbond + desolv Energy     =  -5.50 kcal/mol
DOCKED: USER        Electrostatic Energy            =  +0.00 kcal/mol
DOCKED: USER        Moving Ligand-Fixed Receptor    =  -5.50 kcal/mol
DOCKED: USER        Moving Ligand-Moving Receptor   =  +0.00 kcal/mol
DOCKED: USER    (2) Final Total Internal Energy     =  -1.38 kcal/mol
DOCKED: USER    (3) Torsional Free Energy           =  +1.49 kcal/mol
DOCKED: USER    (4) Unbound System's Energy         =  -1.38 kcal/mol
DOCKED: USER
DOCKED: USER
DOCKED: REMARK  5 active torsions:
DOCKED: REMARK  status: ('A' for Active; 'I' for Inactive)
DOCKED: REMARK    1  A    between atoms: C_2  and  C_19 
DOCKED: REMARK    2  A    between atoms: C_2  and  C_11 
DOCKED: REMARK    3  A    between atoms: C_19  and  C_20 
DOCKED: REMARK    4  A    between atoms: C_20  and  C_21 
DOCKED: REMARK    5  A    between atoms: C_21  and  N_22 
DOCKED: USER                              x       y       z     vdW  Elec       q    Type
DOCKED: USER                           _______ _______ _______ _____ _____    ______ ____
DOCKED: ROOT
DOCKED: ATOM      1  O   UNL     1     -58.134 -34.162   8.576 -0.01 -0.00    -0.346 OA 
DOCKED: ATOM      2  C   UNL     1     -59.532 -34.151   8.144 -0.10 +0.00    +0.130 C  
DOCKED: ATOM      3  C   UNL     1     -59.706 -35.474   7.456 -0.18 +0.00    +0.004 A  
DOCKED: ATOM      4  C   UNL     1     -58.544 -36.222   7.581 -0.18 +0.00    +0.006 A  
DOCKED: ATOM      5  C   UNL     1     -57.540 -35.463   8.360 -0.09 +0.00    +0.169 C  
DOCKED: ATOM      6  C   UNL     1     -60.809 -35.980   6.784 -0.21 -0.00    -0.001 A  
DOCKED: ATOM      7  C   UNL     1     -58.442 -37.492   7.039 -0.26 +0.00    +0.008 A  
DOCKED: ATOM      8  C   UNL     1     -60.721 -37.258   6.227 -0.24 +0.00    +0.010 A  
DOCKED: ATOM      9  C   UNL     1     -59.543 -38.009   6.355 -0.24 +0.00    +0.068 A  
DOCKED: ATOM     10  N   UNL     1     -59.414 -40.379   5.314 -2.60 -0.00    -0.191 NA 
DOCKED: ATOM     11  C   UNL     1     -59.471 -39.316   5.780 -0.33 +0.00    +0.101 C  
DOCKED: ENDROOT
DOCKED: BRANCH   2  12
DOCKED: ATOM     12  C   UNL     1     -60.418 -34.001   9.375 -0.04 +0.00    +0.038 C  
DOCKED: BRANCH  12  13
DOCKED: ATOM     13  C   UNL     1     -60.911 -35.358   9.875 -0.04 +0.00    +0.038 C  
DOCKED: BRANCH  13  14
DOCKED: ATOM     14  C   UNL     1     -60.305 -35.696  11.236 -0.00 +0.00    +0.251 C  
DOCKED: BRANCH  14  15
DOCKED: ATOM     15  N   UNL     1     -59.081 -36.469  11.068 -0.02 +0.00    +0.141 N  
DOCKED: ATOM     16  C   UNL     1     -58.382 -36.612  12.347 -0.01 +0.00    +0.285 C  
DOCKED: ATOM     17  C   UNL     1     -59.376 -37.786  10.501 -0.03 +0.00    +0.285 C  
DOCKED: ENDBRANCH  14  15
DOCKED: ENDBRANCH  13  14
DOCKED: ENDBRANCH  12  13
DOCKED: ENDBRANCH   2  12
DOCKED: BRANCH   2  18
DOCKED: ATOM     18  C   UNL     1     -59.694 -32.990   7.220 -0.18 +0.00    +0.006 A  
DOCKED: ATOM     19  C   UNL     1     -60.898 -32.288   7.188 -0.17 +0.00    +0.001 A  
DOCKED: ATOM     20  C   UNL     1     -61.048 -31.202   6.324 -0.16 +0.00    +0.029 A  
DOCKED: ATOM     21  C   UNL     1     -59.994 -30.821   5.494 -0.11 +0.00    +0.140 A  
DOCKED: ATOM     22  C   UNL     1     -58.790 -31.524   5.527 -0.11 +0.00    +0.029 A  
DOCKED: ATOM     23  F   UNL     1     -60.138 -29.779   4.666 -0.03 -0.00    -0.204 F  
DOCKED: ATOM     24  C   UNL     1     -58.640 -32.610   6.391 -0.17 +0.00    +0.001 A  
DOCKED: ENDBRANCH   2  18
DOCKED: TORSDOF 5
DOCKED: TER
DOCKED: ENDMDL
________________________________________________________________________________


    FINAL DOCKED STATE:
    ________________________


Run:   116 / 512
Time taken for this run:   0.002s

DOCKED: MODEL        116
DOCKED: USER    Run = 116
DOCKED: USER
DOCKED: USER    Estimated Free Energy of Binding    =  -5.16 kcal/mol  [=(1)+(2)+(3)-(4)]
DOCKED: USER
DOCKED: USER    (1) Final Intermolecular Energy     =  -6.65 kcal/mol
DOCKED: USER        vdW + Hbond + desolv Energy     =  -6.65 kcal/mol
DOCKED: USER        Electrostatic Energy            =  +0.00 kcal/mol
DOCKED: USER        Moving Ligand-Fixed Receptor    =  -6.65 kcal/mol
DOCKED: USER        Moving Ligand-Moving Receptor   =  +0.00 kcal/mol
DOCKED: USER    (2) Final Total Internal Energy     =  -1.07 kcal/mol
DOCKED: USER    (3) Torsional Free Energy           =  +1.49 kcal/mol
DOCKED: USER    (4) Unbound System's Energy         =  -1.07 kcal/mol
DOCKED: USER
DOCKED: USER
DOCKED: REMARK  5 active torsions:
DOCKED: REMARK  status: ('A' for Active; 'I' for Inactive)
DOCKED: REMARK    1  A    between atoms: C_2  and  C_19 
DOCKED: REMARK    2  A    between atoms: C_2  and  C_11 
DOCKED: REMARK    3  A    between atoms: C_19  and  C_20 
DOCKED: REMARK    4  A    between atoms: C_20  and  C_21 
DOCKED: REMARK    5  A    between atoms: C_21  and  N_22 
DOCKED: USER                              x       y       z     vdW  Elec       q    Type
DOCKED: USER                           _______ _______ _______ _____ _____    ______ ____
DOCKED: ROOT
DOCKED: ATOM      1  O   UNL     1     -58.506 -36.154   8.432 -0.01 -0.00    -0.346 OA 
DOCKED: ATOM      2  C   UNL     1     -57.694 -37.370   8.362 -0.16 +0.00    +0.130 C  
DOCKED: ATOM      3  C   UNL     1     -58.038 -37.955   7.023 -0.30 +0.00    +0.004 A  
DOCKED: ATOM      4  C   UNL     1     -58.886 -37.094   6.340 -0.30 +0.00    +0.006 A  
DOCKED: ATOM      5  C   UNL     1     -59.148 -35.891   7.162 -0.18 +0.00    +0.169 C  
DOCKED: ATOM      6  C   UNL     1     -57.624 -39.149   6.449 -0.41 -0.00    -0.001 A  
DOCKED: ATOM      7  C   UNL     1     -59.350 -37.395   5.072 -0.20 +0.00    +0.008 A  
DOCKED: ATOM      8  C   UNL     1     -58.088 -39.469   5.172 -0.40 +0.00    +0.010 A  
DOCKED: ATOM      9  C   UNL     1     -58.946 -38.596   4.487 -0.42 +0.00    +0.068 A  
DOCKED: ATOM     10  N   UNL     1     -59.783 -39.219   2.115 -2.23 -0.00    -0.191 NA 
DOCKED: ATOM     11  C   UNL     1     -59.408 -38.940   3.179 -0.52 +0.00    +0.101 C  
DOCKED: ENDROOT
DOCKED: BRANCH   2  12
DOCKED: ATOM     12  C   UNL     1     -56.226 -36.978   8.479 -0.21 +0.00    +0.038 C  
DOCKED: BRANCH  12  13
DOCKED: ATOM     13  C   UNL     1     -56.058 -35.461   8.546 -0.13 +0.00    +0.038 C  
DOCKED: BRANCH  13  14
DOCKED: ATOM     14  C   UNL     1     -55.680 -34.890   7.181 -0.10 +0.00    +0.251 C  
DOCKED: BRANCH  14  15
DOCKED: ATOM     15  N   UNL     1     -54.351 -34.292   7.232 -0.10 +0.00    +0.141 N  
DOCKED: ATOM     16  C   UNL     1     -53.342 -35.305   7.545 -0.04 +0.00    +0.285 C  
DOCKED: ATOM     17  C   UNL     1     -54.032 -33.634   5.964 -0.09 +0.00    +0.285 C  
DOCKED: ENDBRANCH  14  15
DOCKED: ENDBRANCH  13  14
DOCKED: ENDBRANCH  12  13
DOCKED: ENDBRANCH   2  12
DOCKED: BRANCH   2  18
DOCKED: ATOM     18  C   UNL     1     -58.112 -38.239   9.501 -0.16 +0.00    +0.006 A  
DOCKED: ATOM     19  C   UNL     1     -57.153 -38.946  10.225 -0.15 +0.00    +0.001 A  
DOCKED: ATOM     20  C   UNL     1     -57.545 -39.759  11.290 -0.24 +0.00    +0.029 A  
DOCKED: ATOM     21  C   UNL     1     -58.894 -39.863  11.628 +0.03 +0.00    +0.140 A  
DOCKED: ATOM     22  C   UNL     1     -59.852 -39.155  10.903 -0.14 +0.00    +0.029 A  
DOCKED: ATOM     23  F   UNL     1     -59.269 -40.642  12.651 -0.04 -0.00    -0.204 F  
DOCKED: ATOM     24  C   UNL     1     -59.461 -38.342   9.838 -0.14 +0.00    +0.001 A  
DOCKED: ENDBRANCH   2  18
DOCKED: TORSDOF 5
DOCKED: TER
DOCKED: ENDMDL
________________________________________________________________________________


    FINAL DOCKED STATE:
    ________________________


Run:   117 / 512
Time taken for this run:   0.002s

DOCKED: MODEL        117
DOCKED: USER    Run = 117
DOCKED: USER
DOCKED: USER    Estimated Free Energy of Binding    =  -4.75 kcal/mol  [=(1)+(2)+(3)-(4)]
DOCKED: USER
DOCKED: USER    (1) Final Intermolecular Energy     =  -6.24 kcal/mol
DOCKED: USER        vdW + Hbond + desolv Energy     =  -6.24 kcal/mol
DOCKED: USER        Electrostatic Energy            =  +0.00 kcal/mol
DOCKED: USER        Moving Ligand-Fixed Receptor    =  -6.24 kcal/mol
DOCKED: USER        Moving Ligand-Moving Receptor   =  +0.00 kcal/mol
DOCKED: USER    (2) Final Total Internal Energy     =  -1.43 kcal/mol
DOCKED: USER    (3) Torsional Free Energy           =  +1.49 kcal/mol
DOCKED: USER    (4) Unbound System's Energy         =  -1.43 kcal/mol
DOCKED: USER
DOCKED: USER
DOCKED: REMARK  5 active torsions:
DOCKED: REMARK  status: ('A' for Active; 'I' for Inactive)
DOCKED: REMARK    1  A    between atoms: C_2  and  C_19 
DOCKED: REMARK    2  A    between atoms: C_2  and  C_11 
DOCKED: REMARK    3  A    between atoms: C_19  and  C_20 
DOCKED: REMARK    4  A    between atoms: C_20  and  C_21 
DOCKED: REMARK    5  A    between atoms: C_21  and  N_22 
DOCKED: USER                              x       y       z     vdW  Elec       q    Type
DOCKED: USER                           _______ _______ _______ _____ _____    ______ ____
DOCKED: ROOT
DOCKED: ATOM      1  O   UNL     1     -57.359 -33.687   6.754 -0.08 -0.00    -0.346 OA 
DOCKED: ATOM      2  C   UNL     1     -58.652 -33.896   7.408 -0.15 +0.00    +0.130 C  
DOCKED: ATOM      3  C   UNL     1     -59.015 -35.307   7.045 -0.22 +0.00    +0.004 A  
DOCKED: ATOM      4  C   UNL     1     -57.972 -35.890   6.338 -0.28 +0.00    +0.006 A  
DOCKED: ATOM      5  C   UNL     1     -56.859 -34.926   6.198 -0.10 +0.00    +0.169 C  
DOCKED: ATOM      6  C   UNL     1     -60.171 -36.021   7.326 -0.19 -0.00    -0.001 A  
DOCKED: ATOM      7  C   UNL     1     -58.050 -37.197   5.888 -0.33 +0.00    +0.008 A  
DOCKED: ATOM      8  C   UNL     1     -60.265 -37.338   6.875 -0.21 +0.00    +0.010 A  
DOCKED: ATOM      9  C   UNL     1     -59.210 -37.923   6.160 -0.27 +0.00    +0.068 A  
DOCKED: ATOM     10  N   UNL     1     -59.416 -40.373   5.342 -2.61 -0.00    -0.191 NA 
DOCKED: ATOM     11  C   UNL     1     -59.324 -39.274   5.708 -0.37 +0.00    +0.101 C  
DOCKED: ENDROOT
DOCKED: BRANCH   2  12
DOCKED: ATOM     12  C   UNL     1     -58.471 -33.698   8.908 -0.05 +0.00    +0.038 C  
DOCKED: BRANCH  12  13
DOCKED: ATOM     13  C   UNL     1     -57.258 -34.466   9.430 -0.04 +0.00    +0.038 C  
DOCKED: BRANCH  13  14
DOCKED: ATOM     14  C   UNL     1     -57.685 -35.741  10.154 -0.02 +0.00    +0.251 C  
DOCKED: BRANCH  14  15
DOCKED: ATOM     15  N   UNL     1     -57.458 -36.906   9.307 -0.07 +0.00    +0.141 N  
DOCKED: ATOM     16  C   UNL     1     -56.026 -37.170   9.165 -0.10 +0.00    +0.285 C  
DOCKED: ATOM     17  C   UNL     1     -58.139 -38.081   9.854 -0.07 +0.00    +0.285 C  
DOCKED: ENDBRANCH  14  15
DOCKED: ENDBRANCH  13  14
DOCKED: ENDBRANCH  12  13
DOCKED: ENDBRANCH   2  12
DOCKED: BRANCH   2  18
DOCKED: ATOM     18  C   UNL     1     -59.595 -32.888   6.842 -0.20 +0.00    +0.006 A  
DOCKED: ATOM     19  C   UNL     1     -59.102 -31.782   6.151 -0.18 +0.00    +0.001 A  
DOCKED: ATOM     20  C   UNL     1     -59.985 -30.841   5.622 -0.15 +0.00    +0.029 A  
DOCKED: ATOM     21  C   UNL     1     -61.360 -31.006   5.784 -0.11 +0.00    +0.140 A  
DOCKED: ATOM     22  C   UNL     1     -61.853 -32.113   6.475 -0.19 +0.00    +0.029 A  
DOCKED: ATOM     23  F   UNL     1     -62.208 -30.103   5.275 -0.02 -0.00    -0.204 F  
DOCKED: ATOM     24  C   UNL     1     -60.970 -33.055   7.005 -0.21 +0.00    +0.001 A  
DOCKED: ENDBRANCH   2  18
DOCKED: TORSDOF 5
DOCKED: TER
DOCKED: ENDMDL
________________________________________________________________________________


    FINAL DOCKED STATE:
    ________________________


Run:   118 / 512
Time taken for this run:   0.002s

DOCKED: MODEL        118
DOCKED: USER    Run = 118
DOCKED: USER
DOCKED: USER    Estimated Free Energy of Binding    =  -4.40 kcal/mol  [=(1)+(2)+(3)-(4)]
DOCKED: USER
DOCKED: USER    (1) Final Intermolecular Energy     =  -5.90 kcal/mol
DOCKED: USER        vdW + Hbond + desolv Energy     =  -5.90 kcal/mol
DOCKED: USER        Electrostatic Energy            =  +0.00 kcal/mol
DOCKED: USER        Moving Ligand-Fixed Receptor    =  -5.90 kcal/mol
DOCKED: USER        Moving Ligand-Moving Receptor   =  +0.00 kcal/mol
DOCKED: USER    (2) Final Total Internal Energy     =  -1.04 kcal/mol
DOCKED: USER    (3) Torsional Free Energy           =  +1.49 kcal/mol
DOCKED: USER    (4) Unbound System's Energy         =  -1.04 kcal/mol
DOCKED: USER
DOCKED: USER
DOCKED: REMARK  5 active torsions:
DOCKED: REMARK  status: ('A' for Active; 'I' for Inactive)
DOCKED: REMARK    1  A    between atoms: C_2  and  C_19 
DOCKED: REMARK    2  A    between atoms: C_2  and  C_11 
DOCKED: REMARK    3  A    between atoms: C_19  and  C_20 
DOCKED: REMARK    4  A    between atoms: C_20  and  C_21 
DOCKED: REMARK    5  A    between atoms: C_21  and  N_22 
DOCKED: USER                              x       y       z     vdW  Elec       q    Type
DOCKED: USER                           _______ _______ _______ _____ _____    ______ ____
DOCKED: ROOT
DOCKED: ATOM      1  O   UNL     1     -58.783 -36.040   8.317 -0.01 -0.00    -0.346 OA 
DOCKED: ATOM      2  C   UNL     1     -57.726 -37.039   8.153 -0.16 +0.00    +0.130 C  
DOCKED: ATOM      3  C   UNL     1     -58.044 -37.685   6.836 -0.31 +0.00    +0.004 A  
DOCKED: ATOM      4  C   UNL     1     -59.121 -37.039   6.246 -0.30 +0.00    +0.006 A  
DOCKED: ATOM      5  C   UNL     1     -59.577 -35.929   7.113 -0.18 +0.00    +0.169 C  
DOCKED: ATOM      6  C   UNL     1     -57.422 -38.752   6.204 -0.36 -0.00    -0.001 A  
DOCKED: ATOM      7  C   UNL     1     -59.614 -37.436   5.015 -0.04 +0.00    +0.008 A  
DOCKED: ATOM      8  C   UNL     1     -57.910 -39.168   4.964 -0.20 +0.00    +0.010 A  
DOCKED: ATOM      9  C   UNL     1     -59.000 -38.513   4.373 -0.42 +0.00    +0.068 A  
DOCKED: ATOM     10  N   UNL     1     -59.879 -39.306   2.068 -2.21 -0.00    -0.191 NA 
DOCKED: ATOM     11  C   UNL     1     -59.485 -38.951   3.102 -0.48 +0.00    +0.101 C  
DOCKED: ENDROOT
DOCKED: BRANCH   2  12
DOCKED: ATOM     12  C   UNL     1     -56.381 -36.323   8.154 -0.19 +0.00    +0.038 C  
DOCKED: BRANCH  12  13
DOCKED: ATOM     13  C   UNL     1     -56.509 -34.899   8.691 -0.09 +0.00    +0.038 C  
DOCKED: BRANCH  13  14
DOCKED: ATOM     14  C   UNL     1     -55.756 -34.739  10.010 -0.02 +0.00    +0.251 C  
DOCKED: BRANCH  14  15
DOCKED: ATOM     15  N   UNL     1     -54.931 -33.537   9.982 -0.01 +0.00    +0.141 N  
DOCKED: ATOM     16  C   UNL     1     -54.702 -33.036  11.338 -0.00 +0.00    +0.285 C  
DOCKED: ATOM     17  C   UNL     1     -53.655 -33.802   9.316 -0.01 +0.00    +0.285 C  
DOCKED: ENDBRANCH  14  15
DOCKED: ENDBRANCH  13  14
DOCKED: ENDBRANCH  12  13
DOCKED: ENDBRANCH   2  12
DOCKED: BRANCH   2  18
DOCKED: ATOM     18  C   UNL     1     -57.835 -37.982   9.305 -0.16 +0.00    +0.006 A  
DOCKED: ATOM     19  C   UNL     1     -59.010 -38.705   9.504 -0.18 +0.00    +0.001 A  
DOCKED: ATOM     20  C   UNL     1     -59.110 -39.587  10.582 -0.03 +0.00    +0.029 A  
DOCKED: ATOM     21  C   UNL     1     -58.036 -39.744  11.456 -0.15 +0.00    +0.140 A  
DOCKED: ATOM     22  C   UNL     1     -56.861 -39.021  11.255 -0.17 +0.00    +0.029 A  
DOCKED: ATOM     23  F   UNL     1     -58.132 -40.591  12.489 -0.06 -0.00    -0.204 F  
DOCKED: ATOM     24  C   UNL     1     -56.760 -38.138  10.178 -0.15 +0.00    +0.001 A  
DOCKED: ENDBRANCH   2  18
DOCKED: TORSDOF 5
DOCKED: TER
DOCKED: ENDMDL
________________________________________________________________________________


    FINAL DOCKED STATE:
    ________________________


Run:   119 / 512
Time taken for this run:   0.002s

DOCKED: MODEL        119
DOCKED: USER    Run = 119
DOCKED: USER
DOCKED: USER    Estimated Free Energy of Binding    =  -3.89 kcal/mol  [=(1)+(2)+(3)-(4)]
DOCKED: USER
DOCKED: USER    (1) Final Intermolecular Energy     =  -5.38 kcal/mol
DOCKED: USER        vdW + Hbond + desolv Energy     =  -5.38 kcal/mol
DOCKED: USER        Electrostatic Energy            =  +0.00 kcal/mol
DOCKED: USER        Moving Ligand-Fixed Receptor    =  -5.38 kcal/mol
DOCKED: USER        Moving Ligand-Moving Receptor   =  +0.00 kcal/mol
DOCKED: USER    (2) Final Total Internal Energy     =  -1.27 kcal/mol
DOCKED: USER    (3) Torsional Free Energy           =  +1.49 kcal/mol
DOCKED: USER    (4) Unbound System's Energy         =  -1.27 kcal/mol
DOCKED: USER
DOCKED: USER
DOCKED: REMARK  5 active torsions:
DOCKED: REMARK  status: ('A' for Active; 'I' for Inactive)
DOCKED: REMARK    1  A    between atoms: C_2  and  C_19 
DOCKED: REMARK    2  A    between atoms: C_2  and  C_11 
DOCKED: REMARK    3  A    between atoms: C_19  and  C_20 
DOCKED: REMARK    4  A    between atoms: C_20  and  C_21 
DOCKED: REMARK    5  A    between atoms: C_21  and  N_22 
DOCKED: USER                              x       y       z     vdW  Elec       q    Type
DOCKED: USER                           _______ _______ _______ _____ _____    ______ ____
DOCKED: ROOT
DOCKED: ATOM      1  O   UNL     1     -51.752 -26.176  -0.651 -0.08 -0.00    -0.346 OA 
DOCKED: ATOM      2  C   UNL     1     -51.693 -27.546  -1.161 -0.11 +0.00    +0.130 C  
DOCKED: ATOM      3  C   UNL     1     -52.816 -27.608  -2.156 -0.15 +0.00    +0.004 A  
DOCKED: ATOM      4  C   UNL     1     -53.395 -26.353  -2.284 -0.23 +0.00    +0.006 A  
DOCKED: ATOM      5  C   UNL     1     -52.698 -25.386  -1.407 -0.17 +0.00    +0.169 C  
DOCKED: ATOM      6  C   UNL     1     -53.281 -28.685  -2.896 -0.16 -0.00    -0.001 A  
DOCKED: ATOM      7  C   UNL     1     -54.455 -26.133  -3.148 -0.32 +0.00    +0.008 A  
DOCKED: ATOM      8  C   UNL     1     -54.352 -28.481  -3.768 -0.22 +0.00    +0.010 A  
DOCKED: ATOM      9  C   UNL     1     -54.935 -27.211  -3.893 -0.35 +0.00    +0.068 A  
DOCKED: ATOM     10  N   UNL     1     -56.918 -26.865  -5.525 -2.55 -0.00    -0.191 NA 
DOCKED: ATOM     11  C   UNL     1     -56.029 -27.020  -4.793 -0.41 +0.00    +0.101 C  
DOCKED: ENDROOT
DOCKED: BRANCH   2  12
DOCKED: ATOM     12  C   UNL     1     -50.326 -27.767  -1.797 -0.04 +0.00    +0.038 C  
DOCKED: BRANCH  12  13
DOCKED: ATOM     13  C   UNL     1     -49.617 -26.441  -2.067 -0.03 +0.00    +0.038 C  
DOCKED: BRANCH  13  14
DOCKED: ATOM     14  C   UNL     1     -50.128 -25.797  -3.354 -0.01 +0.00    +0.251 C  
DOCKED: BRANCH  14  15
DOCKED: ATOM     15  N   UNL     1     -49.647 -24.424  -3.460 -0.03 +0.00    +0.141 N  
DOCKED: ATOM     16  C   UNL     1     -50.680 -23.558  -4.030 -0.03 +0.00    +0.285 C  
DOCKED: ATOM     17  C   UNL     1     -49.229 -23.922  -2.150 -0.00 +0.00    +0.285 C  
DOCKED: ENDBRANCH  14  15
DOCKED: ENDBRANCH  13  14
DOCKED: ENDBRANCH  12  13
DOCKED: ENDBRANCH   2  12
DOCKED: BRANCH   2  18
DOCKED: ATOM     18  C   UNL     1     -51.898 -28.455   0.004 -0.12 +0.00    +0.006 A  
DOCKED: ATOM     19  C   UNL     1     -50.801 -29.056   0.621 -0.05 +0.00    +0.001 A  
DOCKED: ATOM     20  C   UNL     1     -50.994 -29.906   1.710 -0.03 +0.00    +0.029 A  
DOCKED: ATOM     21  C   UNL     1     -52.283 -30.154   2.182 -0.05 +0.00    +0.140 A  
DOCKED: ATOM     22  C   UNL     1     -53.379 -29.553   1.565 -0.13 +0.00    +0.029 A  
DOCKED: ATOM     23  F   UNL     1     -52.468 -30.968   3.229 +0.00 -0.00    -0.204 F  
DOCKED: ATOM     24  C   UNL     1     -53.187 -28.703   0.474 -0.10 +0.00    +0.001 A  
DOCKED: ENDBRANCH   2  18
DOCKED: TORSDOF 5
DOCKED: TER
DOCKED: ENDMDL
________________________________________________________________________________


    FINAL DOCKED STATE:
    ________________________


Run:   120 / 512
Time taken for this run:   0.002s

DOCKED: MODEL        120
DOCKED: USER    Run = 120
DOCKED: USER
DOCKED: USER    Estimated Free Energy of Binding    =  -3.88 kcal/mol  [=(1)+(2)+(3)-(4)]
DOCKED: USER
DOCKED: USER    (1) Final Intermolecular Energy     =  -5.37 kcal/mol
DOCKED: USER        vdW + Hbond + desolv Energy     =  -5.37 kcal/mol
DOCKED: USER        Electrostatic Energy            =  +0.00 kcal/mol
DOCKED: USER        Moving Ligand-Fixed Receptor    =  -5.37 kcal/mol
DOCKED: USER        Moving Ligand-Moving Receptor   =  +0.00 kcal/mol
DOCKED: USER    (2) Final Total Internal Energy     =  -1.19 kcal/mol
DOCKED: USER    (3) Torsional Free Energy           =  +1.49 kcal/mol
DOCKED: USER    (4) Unbound System's Energy         =  -1.19 kcal/mol
DOCKED: USER
DOCKED: USER
DOCKED: REMARK  5 active torsions:
DOCKED: REMARK  status: ('A' for Active; 'I' for Inactive)
DOCKED: REMARK    1  A    between atoms: C_2  and  C_19 
DOCKED: REMARK    2  A    between atoms: C_2  and  C_11 
DOCKED: REMARK    3  A    between atoms: C_19  and  C_20 
DOCKED: REMARK    4  A    between atoms: C_20  and  C_21 
DOCKED: REMARK    5  A    between atoms: C_21  and  N_22 
DOCKED: USER                              x       y       z     vdW  Elec       q    Type
DOCKED: USER                           _______ _______ _______ _____ _____    ______ ____
DOCKED: ROOT
DOCKED: ATOM      1  O   UNL     1     -49.452 -39.684  -2.050 -0.01 -0.00    -0.346 OA 
DOCKED: ATOM      2  C   UNL     1     -49.433 -38.406  -1.337 -0.07 +0.00    +0.130 C  
DOCKED: ATOM      3  C   UNL     1     -50.088 -38.718  -0.023 -0.12 +0.00    +0.004 A  
DOCKED: ATOM      4  C   UNL     1     -50.357 -40.077   0.054 -0.18 +0.00    +0.006 A  
DOCKED: ATOM      5  C   UNL     1     -49.895 -40.751  -1.179 -0.10 +0.00    +0.169 C  
DOCKED: ATOM      6  C   UNL     1     -50.409 -37.868   1.026 -0.12 -0.00    -0.001 A  
DOCKED: ATOM      7  C   UNL     1     -50.958 -40.630   1.172 -0.29 +0.00    +0.008 A  
DOCKED: ATOM      8  C   UNL     1     -51.019 -38.410   2.159 -0.22 +0.00    +0.010 A  
DOCKED: ATOM      9  C   UNL     1     -51.291 -39.785   2.231 -0.31 +0.00    +0.068 A  
DOCKED: ATOM     10  N   UNL     1     -52.419 -40.759   4.350 -2.55 -0.00    -0.191 NA 
DOCKED: ATOM     11  C   UNL     1     -51.914 -40.322   3.400 -0.39 +0.00    +0.101 C  
DOCKED: ENDROOT
DOCKED: BRANCH   2  12
DOCKED: ATOM     12  C   UNL     1     -47.983 -37.959  -1.186 -0.02 +0.00    +0.038 C  
DOCKED: BRANCH  12  13
DOCKED: ATOM     13  C   UNL     1     -47.039 -39.156  -1.085 -0.02 +0.00    +0.038 C  
DOCKED: BRANCH  13  14
DOCKED: ATOM     14  C   UNL     1     -47.131 -39.813   0.291 -0.03 +0.00    +0.251 C  
DOCKED: BRANCH  14  15
DOCKED: ATOM     15  N   UNL     1     -47.039 -38.806   1.341 -0.03 +0.00    +0.141 N  
DOCKED: ATOM     16  C   UNL     1     -47.136 -39.428   2.662 -0.05 +0.00    +0.285 C  
DOCKED: ATOM     17  C   UNL     1     -45.788 -38.053   1.226 -0.00 +0.00    +0.285 C  
DOCKED: ENDBRANCH  14  15
DOCKED: ENDBRANCH  13  14
DOCKED: ENDBRANCH  12  13
DOCKED: ENDBRANCH   2  12
DOCKED: BRANCH   2  18
DOCKED: ATOM     18  C   UNL     1     -50.212 -37.436  -2.160 -0.11 +0.00    +0.006 A  
DOCKED: ATOM     19  C   UNL     1     -50.778 -36.311  -1.561 -0.12 +0.00    +0.001 A  
DOCKED: ATOM     20  C   UNL     1     -51.508 -35.405  -2.332 -0.16 +0.00    +0.029 A  
DOCKED: ATOM     21  C   UNL     1     -51.669 -35.624  -3.699 -0.17 +0.00    +0.140 A  
DOCKED: ATOM     22  C   UNL     1     -51.103 -36.750  -4.298 -0.13 +0.00    +0.029 A  
DOCKED: ATOM     23  F   UNL     1     -52.368 -34.753  -4.439 -0.08 -0.00    -0.204 F  
DOCKED: ATOM     24  C   UNL     1     -50.374 -37.657  -3.527 -0.08 +0.00    +0.001 A  
DOCKED: ENDBRANCH   2  18
DOCKED: TORSDOF 5
DOCKED: TER
DOCKED: ENDMDL
________________________________________________________________________________


    FINAL DOCKED STATE:
    ________________________


Run:   121 / 512
Time taken for this run:   0.002s

DOCKED: MODEL        121
DOCKED: USER    Run = 121
DOCKED: USER
DOCKED: USER    Estimated Free Energy of Binding    =  -4.62 kcal/mol  [=(1)+(2)+(3)-(4)]
DOCKED: USER
DOCKED: USER    (1) Final Intermolecular Energy     =  -6.11 kcal/mol
DOCKED: USER        vdW + Hbond + desolv Energy     =  -6.11 kcal/mol
DOCKED: USER        Electrostatic Energy            =  +0.00 kcal/mol
DOCKED: USER        Moving Ligand-Fixed Receptor    =  -6.11 kcal/mol
DOCKED: USER        Moving Ligand-Moving Receptor   =  +0.00 kcal/mol
DOCKED: USER    (2) Final Total Internal Energy     =  -1.35 kcal/mol
DOCKED: USER    (3) Torsional Free Energy           =  +1.49 kcal/mol
DOCKED: USER    (4) Unbound System's Energy         =  -1.35 kcal/mol
DOCKED: USER
DOCKED: USER
DOCKED: REMARK  5 active torsions:
DOCKED: REMARK  status: ('A' for Active; 'I' for Inactive)
DOCKED: REMARK    1  A    between atoms: C_2  and  C_19 
DOCKED: REMARK    2  A    between atoms: C_2  and  C_11 
DOCKED: REMARK    3  A    between atoms: C_19  and  C_20 
DOCKED: REMARK    4  A    between atoms: C_20  and  C_21 
DOCKED: REMARK    5  A    between atoms: C_21  and  N_22 
DOCKED: USER                              x       y       z     vdW  Elec       q    Type
DOCKED: USER                           _______ _______ _______ _____ _____    ______ ____
DOCKED: ROOT
DOCKED: ATOM      1  O   UNL     1     -58.732 -36.068   8.275 -0.02 -0.00    -0.346 OA 
DOCKED: ATOM      2  C   UNL     1     -57.629 -37.004   8.053 -0.17 +0.00    +0.130 C  
DOCKED: ATOM      3  C   UNL     1     -58.014 -37.719   6.790 -0.31 +0.00    +0.004 A  
DOCKED: ATOM      4  C   UNL     1     -59.178 -37.166   6.276 -0.29 +0.00    +0.006 A  
DOCKED: ATOM      5  C   UNL     1     -59.630 -36.054   7.141 -0.17 +0.00    +0.169 C  
DOCKED: ATOM      6  C   UNL     1     -57.379 -38.769   6.143 -0.34 -0.00    -0.001 A  
DOCKED: ATOM      7  C   UNL     1     -59.746 -37.641   5.106 -0.19 +0.00    +0.008 A  
DOCKED: ATOM      8  C   UNL     1     -57.941 -39.262   4.965 -0.26 +0.00    +0.010 A  
DOCKED: ATOM      9  C   UNL     1     -59.119 -38.700   4.449 -0.43 +0.00    +0.068 A  
DOCKED: ATOM     10  N   UNL     1     -60.135 -39.636   2.257 -1.75 -0.00    -0.191 NA 
DOCKED: ATOM     11  C   UNL     1     -59.679 -39.217   3.240 -0.46 +0.00    +0.101 C  
DOCKED: ENDROOT
DOCKED: BRANCH   2  12
DOCKED: ATOM     12  C   UNL     1     -56.339 -36.205   7.913 -0.20 +0.00    +0.038 C  
DOCKED: BRANCH  12  13
DOCKED: ATOM     13  C   UNL     1     -56.469 -35.120   6.846 -0.21 +0.00    +0.038 C  
DOCKED: BRANCH  13  14
DOCKED: ATOM     14  C   UNL     1     -56.662 -33.744   7.481 -0.09 +0.00    +0.251 C  
DOCKED: BRANCH  14  15
DOCKED: ATOM     15  N   UNL     1     -58.065 -33.351   7.422 -0.10 +0.00    +0.141 N  
DOCKED: ATOM     16  C   UNL     1     -58.557 -32.995   8.754 -0.02 +0.00    +0.285 C  
DOCKED: ATOM     17  C   UNL     1     -58.248 -32.231   6.498 -0.11 +0.00    +0.285 C  
DOCKED: ENDBRANCH  14  15
DOCKED: ENDBRANCH  13  14
DOCKED: ENDBRANCH  12  13
DOCKED: ENDBRANCH   2  12
DOCKED: BRANCH   2  18
DOCKED: ATOM     18  C   UNL     1     -57.577 -37.907   9.240 -0.16 +0.00    +0.006 A  
DOCKED: ATOM     19  C   UNL     1     -56.474 -37.875  10.092 -0.13 +0.00    +0.001 A  
DOCKED: ATOM     20  C   UNL     1     -56.427 -38.720  11.201 -0.12 +0.00    +0.029 A  
DOCKED: ATOM     21  C   UNL     1     -57.482 -39.594  11.458 -0.18 +0.00    +0.140 A  
DOCKED: ATOM     22  C   UNL     1     -58.585 -39.625  10.605 -0.11 +0.00    +0.029 A  
DOCKED: ATOM     23  F   UNL     1     -57.437 -40.403  12.524 -0.08 -0.00    -0.204 F  
DOCKED: ATOM     24  C   UNL     1     -58.633 -38.781   9.495 -0.20 +0.00    +0.001 A  
DOCKED: ENDBRANCH   2  18
DOCKED: TORSDOF 5
DOCKED: TER
DOCKED: ENDMDL
________________________________________________________________________________


    FINAL DOCKED STATE:
    ________________________


Run:   122 / 512
Time taken for this run:   0.002s

DOCKED: MODEL        122
DOCKED: USER    Run = 122
DOCKED: USER
DOCKED: USER    Estimated Free Energy of Binding    =  -5.04 kcal/mol  [=(1)+(2)+(3)-(4)]
DOCKED: USER
DOCKED: USER    (1) Final Intermolecular Energy     =  -6.54 kcal/mol
DOCKED: USER        vdW + Hbond + desolv Energy     =  -6.54 kcal/mol
DOCKED: USER        Electrostatic Energy            =  +0.00 kcal/mol
DOCKED: USER        Moving Ligand-Fixed Receptor    =  -6.54 kcal/mol
DOCKED: USER        Moving Ligand-Moving Receptor   =  +0.00 kcal/mol
DOCKED: USER    (2) Final Total Internal Energy     =  -1.41 kcal/mol
DOCKED: USER    (3) Torsional Free Energy           =  +1.49 kcal/mol
DOCKED: USER    (4) Unbound System's Energy         =  -1.41 kcal/mol
DOCKED: USER
DOCKED: USER
DOCKED: REMARK  5 active torsions:
DOCKED: REMARK  status: ('A' for Active; 'I' for Inactive)
DOCKED: REMARK    1  A    between atoms: C_2  and  C_19 
DOCKED: REMARK    2  A    between atoms: C_2  and  C_11 
DOCKED: REMARK    3  A    between atoms: C_19  and  C_20 
DOCKED: REMARK    4  A    between atoms: C_20  and  C_21 
DOCKED: REMARK    5  A    between atoms: C_21  and  N_22 
DOCKED: USER                              x       y       z     vdW  Elec       q    Type
DOCKED: USER                           _______ _______ _______ _____ _____    ______ ____
DOCKED: ROOT
DOCKED: ATOM      1  O   UNL     1     -57.423 -36.213   7.906 -0.06 -0.00    -0.346 OA 
DOCKED: ATOM      2  C   UNL     1     -58.072 -37.505   8.130 -0.16 +0.00    +0.130 C  
DOCKED: ATOM      3  C   UNL     1     -58.553 -37.907   6.766 -0.30 +0.00    +0.004 A  
DOCKED: ATOM      4  C   UNL     1     -58.120 -36.982   5.827 -0.33 +0.00    +0.006 A  
DOCKED: ATOM      5  C   UNL     1     -57.324 -35.926   6.492 -0.20 +0.00    +0.169 C  
DOCKED: ATOM      6  C   UNL     1     -59.303 -39.010   6.384 -0.30 -0.00    -0.001 A  
DOCKED: ATOM      7  C   UNL     1     -58.423 -37.122   4.483 +0.08 +0.00    +0.008 A  
DOCKED: ATOM      8  C   UNL     1     -59.621 -39.164   5.034 -0.44 +0.00    +0.010 A  
DOCKED: ATOM      9  C   UNL     1     -59.183 -38.224   4.088 -0.40 +0.00    +0.068 A  
DOCKED: ATOM     10  N   UNL     1     -59.786 -38.542   1.589 -3.16 -0.00    -0.191 NA 
DOCKED: ATOM     11  C   UNL     1     -59.516 -38.399   2.710 -0.40 +0.00    +0.101 C  
DOCKED: ENDROOT
DOCKED: BRANCH   2  12
DOCKED: ATOM     12  C   UNL     1     -57.042 -38.470   8.705 -0.23 +0.00    +0.038 C  
DOCKED: BRANCH  12  13
DOCKED: ATOM     13  C   UNL     1     -55.939 -37.726   9.455 -0.14 +0.00    +0.038 C  
DOCKED: BRANCH  13  14
DOCKED: ATOM     14  C   UNL     1     -56.090 -37.898  10.965 -0.08 +0.00    +0.251 C  
DOCKED: BRANCH  14  15
DOCKED: ATOM     15  N   UNL     1     -56.603 -36.673  11.566 -0.03 +0.00    +0.141 N  
DOCKED: ATOM     16  C   UNL     1     -57.178 -36.946  12.884 -0.01 +0.00    +0.285 C  
DOCKED: ATOM     17  C   UNL     1     -55.544 -35.668  11.673 -0.01 +0.00    +0.285 C  
DOCKED: ENDBRANCH  14  15
DOCKED: ENDBRANCH  13  14
DOCKED: ENDBRANCH  12  13
DOCKED: ENDBRANCH   2  12
DOCKED: BRANCH   2  18
DOCKED: ATOM     18  C   UNL     1     -59.187 -37.272   9.094 -0.09 +0.00    +0.006 A  
DOCKED: ATOM     19  C   UNL     1     -59.439 -38.198  10.105 -0.12 +0.00    +0.001 A  
DOCKED: ATOM     20  C   UNL     1     -60.483 -37.978  11.006 -0.07 +0.00    +0.029 A  
DOCKED: ATOM     21  C   UNL     1     -61.271 -36.834  10.894 -0.01 +0.00    +0.140 A  
DOCKED: ATOM     22  C   UNL     1     -61.018 -35.908   9.882 -0.03 +0.00    +0.029 A  
DOCKED: ATOM     23  F   UNL     1     -62.271 -36.623  11.759 +0.01 -0.00    -0.204 F  
DOCKED: ATOM     24  C   UNL     1     -59.975 -36.127   8.980 -0.07 +0.00    +0.001 A  
DOCKED: ENDBRANCH   2  18
DOCKED: TORSDOF 5
DOCKED: TER
DOCKED: ENDMDL
________________________________________________________________________________


    FINAL DOCKED STATE:
    ________________________


Run:   123 / 512
Time taken for this run:   0.002s

DOCKED: MODEL        123
DOCKED: USER    Run = 123
DOCKED: USER
DOCKED: USER    Estimated Free Energy of Binding    =  -4.66 kcal/mol  [=(1)+(2)+(3)-(4)]
DOCKED: USER
DOCKED: USER    (1) Final Intermolecular Energy     =  -6.15 kcal/mol
DOCKED: USER        vdW + Hbond + desolv Energy     =  -6.15 kcal/mol
DOCKED: USER        Electrostatic Energy            =  +0.00 kcal/mol
DOCKED: USER        Moving Ligand-Fixed Receptor    =  -6.15 kcal/mol
DOCKED: USER        Moving Ligand-Moving Receptor   =  +0.00 kcal/mol
DOCKED: USER    (2) Final Total Internal Energy     =  -1.42 kcal/mol
DOCKED: USER    (3) Torsional Free Energy           =  +1.49 kcal/mol
DOCKED: USER    (4) Unbound System's Energy         =  -1.42 kcal/mol
DOCKED: USER
DOCKED: USER
DOCKED: REMARK  5 active torsions:
DOCKED: REMARK  status: ('A' for Active; 'I' for Inactive)
DOCKED: REMARK    1  A    between atoms: C_2  and  C_19 
DOCKED: REMARK    2  A    between atoms: C_2  and  C_11 
DOCKED: REMARK    3  A    between atoms: C_19  and  C_20 
DOCKED: REMARK    4  A    between atoms: C_20  and  C_21 
DOCKED: REMARK    5  A    between atoms: C_21  and  N_22 
DOCKED: USER                              x       y       z     vdW  Elec       q    Type
DOCKED: USER                           _______ _______ _______ _____ _____    ______ ____
DOCKED: ROOT
DOCKED: ATOM      1  O   UNL     1     -55.461 -30.134   0.863 -0.09 -0.00    -0.346 OA 
DOCKED: ATOM      2  C   UNL     1     -54.189 -30.001   0.153 -0.16 +0.00    +0.130 C  
DOCKED: ATOM      3  C   UNL     1     -54.561 -29.307  -1.126 -0.24 +0.00    +0.004 A  
DOCKED: ATOM      4  C   UNL     1     -55.908 -28.974  -1.100 -0.25 +0.00    +0.006 A  
DOCKED: ATOM      5  C   UNL     1     -56.509 -29.405   0.182 -0.23 +0.00    +0.169 C  
DOCKED: ATOM      6  C   UNL     1     -53.769 -28.987  -2.219 -0.20 -0.00    -0.001 A  
DOCKED: ATOM      7  C   UNL     1     -56.508 -28.317  -2.161 -0.36 +0.00    +0.008 A  
DOCKED: ATOM      8  C   UNL     1     -54.360 -28.329  -3.298 -0.26 +0.00    +0.010 A  
DOCKED: ATOM      9  C   UNL     1     -55.723 -27.995  -3.269 -0.28 +0.00    +0.068 A  
DOCKED: ATOM     10  N   UNL     1     -56.787 -26.768  -5.288 -2.51 -0.00    -0.191 NA 
DOCKED: ATOM     11  C   UNL     1     -56.310 -27.319  -4.383 -0.35 +0.00    +0.101 C  
DOCKED: ENDROOT
DOCKED: BRANCH   2  12
DOCKED: ATOM     12  C   UNL     1     -53.237 -29.182   1.016 -0.16 +0.00    +0.038 C  
DOCKED: BRANCH  12  13
DOCKED: ATOM     13  C   UNL     1     -53.877 -28.811   2.353 -0.14 +0.00    +0.038 C  
DOCKED: BRANCH  13  14
DOCKED: ATOM     14  C   UNL     1     -53.811 -29.979   3.336 -0.07 +0.00    +0.251 C  
DOCKED: BRANCH  14  15
DOCKED: ATOM     15  N   UNL     1     -52.557 -30.706   3.177 -0.03 +0.00    +0.141 N  
DOCKED: ATOM     16  C   UNL     1     -51.588 -30.291   4.193 -0.01 +0.00    +0.285 C  
DOCKED: ATOM     17  C   UNL     1     -52.785 -32.150   3.252 -0.02 +0.00    +0.285 C  
DOCKED: ENDBRANCH  14  15
DOCKED: ENDBRANCH  13  14
DOCKED: ENDBRANCH  12  13
DOCKED: ENDBRANCH   2  12
DOCKED: BRANCH   2  18
DOCKED: ATOM     18  C   UNL     1     -53.665 -31.381  -0.066 -0.12 +0.00    +0.006 A  
DOCKED: ATOM     19  C   UNL     1     -52.384 -31.566  -0.585 -0.05 +0.00    +0.001 A  
DOCKED: ATOM     20  C   UNL     1     -51.896 -32.857  -0.789 -0.06 +0.00    +0.029 A  
DOCKED: ATOM     21  C   UNL     1     -52.688 -33.960  -0.473 -0.14 +0.00    +0.140 A  
DOCKED: ATOM     22  C   UNL     1     -53.968 -33.774   0.047 -0.16 +0.00    +0.029 A  
DOCKED: ATOM     23  F   UNL     1     -52.218 -35.199  -0.667 -0.06 -0.00    -0.204 F  
DOCKED: ATOM     24  C   UNL     1     -54.458 -32.483   0.251 -0.19 +0.00    +0.001 A  
DOCKED: ENDBRANCH   2  18
DOCKED: TORSDOF 5
DOCKED: TER
DOCKED: ENDMDL
________________________________________________________________________________


    FINAL DOCKED STATE:
    ________________________


Run:   124 / 512
Time taken for this run:   0.002s

DOCKED: MODEL        124
DOCKED: USER    Run = 124
DOCKED: USER
DOCKED: USER    Estimated Free Energy of Binding    =  -5.01 kcal/mol  [=(1)+(2)+(3)-(4)]
DOCKED: USER
DOCKED: USER    (1) Final Intermolecular Energy     =  -6.50 kcal/mol
DOCKED: USER        vdW + Hbond + desolv Energy     =  -6.50 kcal/mol
DOCKED: USER        Electrostatic Energy            =  +0.00 kcal/mol
DOCKED: USER        Moving Ligand-Fixed Receptor    =  -6.50 kcal/mol
DOCKED: USER        Moving Ligand-Moving Receptor   =  +0.00 kcal/mol
DOCKED: USER    (2) Final Total Internal Energy     =  -1.08 kcal/mol
DOCKED: USER    (3) Torsional Free Energy           =  +1.49 kcal/mol
DOCKED: USER    (4) Unbound System's Energy         =  -1.08 kcal/mol
DOCKED: USER
DOCKED: USER
DOCKED: REMARK  5 active torsions:
DOCKED: REMARK  status: ('A' for Active; 'I' for Inactive)
DOCKED: REMARK    1  A    between atoms: C_2  and  C_19 
DOCKED: REMARK    2  A    between atoms: C_2  and  C_11 
DOCKED: REMARK    3  A    between atoms: C_19  and  C_20 
DOCKED: REMARK    4  A    between atoms: C_20  and  C_21 
DOCKED: REMARK    5  A    between atoms: C_21  and  N_22 
DOCKED: USER                              x       y       z     vdW  Elec       q    Type
DOCKED: USER                           _______ _______ _______ _____ _____    ______ ____
DOCKED: ROOT
DOCKED: ATOM      1  O   UNL     1     -55.976 -29.930   0.951 -0.11 -0.00    -0.346 OA 
DOCKED: ATOM      2  C   UNL     1     -54.667 -29.907   0.298 -0.19 +0.00    +0.130 C  
DOCKED: ATOM      3  C   UNL     1     -54.932 -29.230  -1.016 -0.27 +0.00    +0.004 A  
DOCKED: ATOM      4  C   UNL     1     -56.252 -28.803  -1.063 -0.19 +0.00    +0.006 A  
DOCKED: ATOM      5  C   UNL     1     -56.938 -29.152   0.201 -0.06 +0.00    +0.169 C  
DOCKED: ATOM      6  C   UNL     1     -54.072 -29.000  -2.079 -0.23 -0.00    -0.001 A  
DOCKED: ATOM      7  C   UNL     1     -56.756 -28.140  -2.169 -0.34 +0.00    +0.008 A  
DOCKED: ATOM      8  C   UNL     1     -54.566 -28.336  -3.203 -0.28 +0.00    +0.010 A  
DOCKED: ATOM      9  C   UNL     1     -55.901 -27.908  -3.247 -0.29 +0.00    +0.068 A  
DOCKED: ATOM     10  N   UNL     1     -56.784 -26.674  -5.347 -2.50 -0.00    -0.191 NA 
DOCKED: ATOM     11  C   UNL     1     -56.388 -27.228  -4.405 -0.37 +0.00    +0.101 C  
DOCKED: ENDROOT
DOCKED: BRANCH   2  12
DOCKED: ATOM     12  C   UNL     1     -53.700 -29.130   1.182 -0.17 +0.00    +0.038 C  
DOCKED: BRANCH  12  13
DOCKED: ATOM     13  C   UNL     1     -52.272 -29.200   0.642 -0.12 +0.00    +0.038 C  
DOCKED: BRANCH  13  14
DOCKED: ATOM     14  C   UNL     1     -51.441 -28.015   1.130 -0.08 +0.00    +0.251 C  
DOCKED: BRANCH  14  15
DOCKED: ATOM     15  N   UNL     1     -50.879 -27.289  -0.003 -0.09 +0.00    +0.141 N  
DOCKED: ATOM     16  C   UNL     1     -50.127 -28.193  -0.873 -0.02 +0.00    +0.285 C  
DOCKED: ATOM     17  C   UNL     1     -51.937 -26.618  -0.761 -0.10 +0.00    +0.285 C  
DOCKED: ENDBRANCH  14  15
DOCKED: ENDBRANCH  13  14
DOCKED: ENDBRANCH  12  13
DOCKED: ENDBRANCH   2  12
DOCKED: BRANCH   2  18
DOCKED: ATOM     18  C   UNL     1     -54.233 -31.327   0.143 -0.15 +0.00    +0.006 A  
DOCKED: ATOM     19  C   UNL     1     -53.762 -31.781  -1.089 -0.18 +0.00    +0.001 A  
DOCKED: ATOM     20  C   UNL     1     -53.357 -33.108  -1.232 -0.19 +0.00    +0.029 A  
DOCKED: ATOM     21  C   UNL     1     -53.421 -33.979  -0.145 -0.17 +0.00    +0.140 A  
DOCKED: ATOM     22  C   UNL     1     -53.892 -33.524   1.086 -0.19 +0.00    +0.029 A  
DOCKED: ATOM     23  F   UNL     1     -53.030 -35.252  -0.283 -0.08 -0.00    -0.204 F  
DOCKED: ATOM     24  C   UNL     1     -54.298 -32.196   1.231 -0.14 +0.00    +0.001 A  
DOCKED: ENDBRANCH   2  18
DOCKED: TORSDOF 5
DOCKED: TER
DOCKED: ENDMDL
________________________________________________________________________________


    FINAL DOCKED STATE:
    ________________________


Run:   125 / 512
Time taken for this run:   0.002s

DOCKED: MODEL        125
DOCKED: USER    Run = 125
DOCKED: USER
DOCKED: USER    Estimated Free Energy of Binding    =  -3.97 kcal/mol  [=(1)+(2)+(3)-(4)]
DOCKED: USER
DOCKED: USER    (1) Final Intermolecular Energy     =  -5.46 kcal/mol
DOCKED: USER        vdW + Hbond + desolv Energy     =  -5.46 kcal/mol
DOCKED: USER        Electrostatic Energy            =  +0.00 kcal/mol
DOCKED: USER        Moving Ligand-Fixed Receptor    =  -5.46 kcal/mol
DOCKED: USER        Moving Ligand-Moving Receptor   =  +0.00 kcal/mol
DOCKED: USER    (2) Final Total Internal Energy     =  -1.46 kcal/mol
DOCKED: USER    (3) Torsional Free Energy           =  +1.49 kcal/mol
DOCKED: USER    (4) Unbound System's Energy         =  -1.46 kcal/mol
DOCKED: USER
DOCKED: USER
DOCKED: REMARK  5 active torsions:
DOCKED: REMARK  status: ('A' for Active; 'I' for Inactive)
DOCKED: REMARK    1  A    between atoms: C_2  and  C_19 
DOCKED: REMARK    2  A    between atoms: C_2  and  C_11 
DOCKED: REMARK    3  A    between atoms: C_19  and  C_20 
DOCKED: REMARK    4  A    between atoms: C_20  and  C_21 
DOCKED: REMARK    5  A    between atoms: C_21  and  N_22 
DOCKED: USER                              x       y       z     vdW  Elec       q    Type
DOCKED: USER                           _______ _______ _______ _____ _____    ______ ____
DOCKED: ROOT
DOCKED: ATOM      1  O   UNL     1     -57.023 -34.175   7.613 -0.04 -0.00    -0.346 OA 
DOCKED: ATOM      2  C   UNL     1     -58.332 -34.377   8.237 -0.08 +0.00    +0.130 C  
DOCKED: ATOM      3  C   UNL     1     -58.805 -35.683   7.665 -0.16 +0.00    +0.004 A  
DOCKED: ATOM      4  C   UNL     1     -57.809 -36.233   6.871 -0.27 +0.00    +0.006 A  
DOCKED: ATOM      5  C   UNL     1     -56.620 -35.351   6.872 -0.16 +0.00    +0.169 C  
DOCKED: ATOM      6  C   UNL     1     -60.015 -36.336   7.843 -0.14 -0.00    -0.001 A  
DOCKED: ATOM      7  C   UNL     1     -57.988 -37.446   6.228 -0.34 +0.00    +0.008 A  
DOCKED: ATOM      8  C   UNL     1     -60.213 -37.558   7.197 -0.19 +0.00    +0.010 A  
DOCKED: ATOM      9  C   UNL     1     -59.204 -38.110   6.394 -0.25 +0.00    +0.068 A  
DOCKED: ATOM     10  N   UNL     1     -59.601 -40.381   5.213 -2.51 -0.00    -0.191 NA 
DOCKED: ATOM     11  C   UNL     1     -59.423 -39.362   5.742 -0.33 +0.00    +0.101 C  
DOCKED: ENDROOT
DOCKED: BRANCH   2  12
DOCKED: ATOM     12  C   UNL     1     -58.144 -34.425   9.748 -0.03 +0.00    +0.038 C  
DOCKED: BRANCH  12  13
DOCKED: ATOM     13  C   UNL     1     -57.430 -35.704  10.181 -0.05 +0.00    +0.038 C  
DOCKED: BRANCH  13  14
DOCKED: ATOM     14  C   UNL     1     -58.401 -36.678  10.846 -0.02 +0.00    +0.251 C  
DOCKED: BRANCH  14  15
DOCKED: ATOM     15  N   UNL     1     -58.368 -37.968  10.168 -0.08 +0.00    +0.141 N  
DOCKED: ATOM     16  C   UNL     1     -57.001 -38.486  10.109 -0.07 +0.00    +0.285 C  
DOCKED: ATOM     17  C   UNL     1     -59.245 -38.927  10.843 -0.08 +0.00    +0.285 C  
DOCKED: ENDBRANCH  14  15
DOCKED: ENDBRANCH  13  14
DOCKED: ENDBRANCH  12  13
DOCKED: ENDBRANCH   2  12
DOCKED: BRANCH   2  18
DOCKED: ATOM     18  C   UNL     1     -59.188 -33.223   7.837 -0.11 +0.00    +0.006 A  
DOCKED: ATOM     19  C   UNL     1     -59.798 -32.436   8.813 -0.04 +0.00    +0.001 A  
DOCKED: ATOM     20  C   UNL     1     -60.599 -31.357   8.438 -0.04 +0.00    +0.029 A  
DOCKED: ATOM     21  C   UNL     1     -60.789 -31.066   7.088 -0.08 +0.00    +0.140 A  
DOCKED: ATOM     22  C   UNL     1     -60.179 -31.853   6.112 -0.18 +0.00    +0.029 A  
DOCKED: ATOM     23  F   UNL     1     -61.556 -30.029   6.728 +0.00 -0.00    -0.204 F  
DOCKED: ATOM     24  C   UNL     1     -59.377 -32.933   6.486 -0.21 +0.00    +0.001 A  
DOCKED: ENDBRANCH   2  18
DOCKED: TORSDOF 5
DOCKED: TER
DOCKED: ENDMDL
________________________________________________________________________________


    FINAL DOCKED STATE:
    ________________________


Run:   126 / 512
Time taken for this run:   0.002s

DOCKED: MODEL        126
DOCKED: USER    Run = 126
DOCKED: USER
DOCKED: USER    Estimated Free Energy of Binding    =  -4.36 kcal/mol  [=(1)+(2)+(3)-(4)]
DOCKED: USER
DOCKED: USER    (1) Final Intermolecular Energy     =  -5.85 kcal/mol
DOCKED: USER        vdW + Hbond + desolv Energy     =  -5.85 kcal/mol
DOCKED: USER        Electrostatic Energy            =  +0.00 kcal/mol
DOCKED: USER        Moving Ligand-Fixed Receptor    =  -5.85 kcal/mol
DOCKED: USER        Moving Ligand-Moving Receptor   =  +0.00 kcal/mol
DOCKED: USER    (2) Final Total Internal Energy     =  -1.46 kcal/mol
DOCKED: USER    (3) Torsional Free Energy           =  +1.49 kcal/mol
DOCKED: USER    (4) Unbound System's Energy         =  -1.46 kcal/mol
DOCKED: USER
DOCKED: USER
DOCKED: REMARK  5 active torsions:
DOCKED: REMARK  status: ('A' for Active; 'I' for Inactive)
DOCKED: REMARK    1  A    between atoms: C_2  and  C_19 
DOCKED: REMARK    2  A    between atoms: C_2  and  C_11 
DOCKED: REMARK    3  A    between atoms: C_19  and  C_20 
DOCKED: REMARK    4  A    between atoms: C_20  and  C_21 
DOCKED: REMARK    5  A    between atoms: C_21  and  N_22 
DOCKED: USER                              x       y       z     vdW  Elec       q    Type
DOCKED: USER                           _______ _______ _______ _____ _____    ______ ____
DOCKED: ROOT
DOCKED: ATOM      1  O   UNL     1     -56.920 -33.688   6.952 -0.06 -0.00    -0.346 OA 
DOCKED: ATOM      2  C   UNL     1     -58.320 -33.656   7.377 -0.14 +0.00    +0.130 C  
DOCKED: ATOM      3  C   UNL     1     -58.845 -35.007   6.986 -0.22 +0.00    +0.004 A  
DOCKED: ATOM      4  C   UNL     1     -57.810 -35.783   6.483 -0.28 +0.00    +0.006 A  
DOCKED: ATOM      5  C   UNL     1     -56.545 -35.016   6.518 -0.12 +0.00    +0.169 C  
DOCKED: ATOM      6  C   UNL     1     -60.134 -35.513   7.078 -0.22 -0.00    -0.001 A  
DOCKED: ATOM      7  C   UNL     1     -58.026 -37.081   6.054 -0.33 +0.00    +0.008 A  
DOCKED: ATOM      8  C   UNL     1     -60.368 -36.819   6.645 -0.22 +0.00    +0.010 A  
DOCKED: ATOM      9  C   UNL     1     -59.319 -37.599   6.136 -0.26 +0.00    +0.068 A  
DOCKED: ATOM     10  N   UNL     1     -59.788 -40.021   5.345 -2.56 -0.00    -0.191 NA 
DOCKED: ATOM     11  C   UNL     1     -59.578 -38.935   5.699 -0.36 +0.00    +0.101 C  
DOCKED: ENDROOT
DOCKED: BRANCH   2  12
DOCKED: ATOM     12  C   UNL     1     -58.363 -33.416   8.882 -0.05 +0.00    +0.038 C  
DOCKED: BRANCH  12  13
DOCKED: ATOM     13  C   UNL     1     -57.010 -32.941   9.408 -0.02 +0.00    +0.038 C  
DOCKED: BRANCH  13  14
DOCKED: ATOM     14  C   UNL     1     -56.747 -31.488   9.017 -0.01 +0.00    +0.251 C  
DOCKED: BRANCH  14  15
DOCKED: ATOM     15  N   UNL     1     -55.641 -31.410   8.070 -0.01 +0.00    +0.141 N  
DOCKED: ATOM     16  C   UNL     1     -55.611 -30.100   7.419 -0.00 +0.00    +0.285 C  
DOCKED: ATOM     17  C   UNL     1     -54.367 -31.673   8.742 -0.00 +0.00    +0.285 C  
DOCKED: ENDBRANCH  14  15
DOCKED: ENDBRANCH  13  14
DOCKED: ENDBRANCH  12  13
DOCKED: ENDBRANCH   2  12
DOCKED: BRANCH   2  18
DOCKED: ATOM     18  C   UNL     1     -58.976 -32.540   6.635 -0.18 +0.00    +0.006 A  
DOCKED: ATOM     19  C   UNL     1     -58.223 -31.734   5.782 -0.13 +0.00    +0.001 A  
DOCKED: ATOM     20  C   UNL     1     -58.837 -30.690   5.088 -0.16 +0.00    +0.029 A  
DOCKED: ATOM     21  C   UNL     1     -60.202 -30.454   5.249 -0.12 +0.00    +0.140 A  
DOCKED: ATOM     22  C   UNL     1     -60.954 -31.261   6.102 -0.17 +0.00    +0.029 A  
DOCKED: ATOM     23  F   UNL     1     -60.792 -29.454   4.582 -0.02 -0.00    -0.204 F  
DOCKED: ATOM     24  C   UNL     1     -60.341 -32.305   6.796 -0.20 +0.00    +0.001 A  
DOCKED: ENDBRANCH   2  18
DOCKED: TORSDOF 5
DOCKED: TER
DOCKED: ENDMDL
________________________________________________________________________________


    FINAL DOCKED STATE:
    ________________________


Run:   127 / 512
Time taken for this run:   0.002s

DOCKED: MODEL        127
DOCKED: USER    Run = 127
DOCKED: USER
DOCKED: USER    Estimated Free Energy of Binding    =  -3.88 kcal/mol  [=(1)+(2)+(3)-(4)]
DOCKED: USER
DOCKED: USER    (1) Final Intermolecular Energy     =  -5.37 kcal/mol
DOCKED: USER        vdW + Hbond + desolv Energy     =  -5.37 kcal/mol
DOCKED: USER        Electrostatic Energy            =  +0.00 kcal/mol
DOCKED: USER        Moving Ligand-Fixed Receptor    =  -5.37 kcal/mol
DOCKED: USER        Moving Ligand-Moving Receptor   =  +0.00 kcal/mol
DOCKED: USER    (2) Final Total Internal Energy     =  -1.17 kcal/mol
DOCKED: USER    (3) Torsional Free Energy           =  +1.49 kcal/mol
DOCKED: USER    (4) Unbound System's Energy         =  -1.17 kcal/mol
DOCKED: USER
DOCKED: USER
DOCKED: REMARK  5 active torsions:
DOCKED: REMARK  status: ('A' for Active; 'I' for Inactive)
DOCKED: REMARK    1  A    between atoms: C_2  and  C_19 
DOCKED: REMARK    2  A    between atoms: C_2  and  C_11 
DOCKED: REMARK    3  A    between atoms: C_19  and  C_20 
DOCKED: REMARK    4  A    between atoms: C_20  and  C_21 
DOCKED: REMARK    5  A    between atoms: C_21  and  N_22 
DOCKED: USER                              x       y       z     vdW  Elec       q    Type
DOCKED: USER                           _______ _______ _______ _____ _____    ______ ____
DOCKED: ROOT
DOCKED: ATOM      1  O   UNL     1     -56.217 -35.091   8.320 -0.04 -0.00    -0.346 OA 
DOCKED: ATOM      2  C   UNL     1     -57.653 -34.826   8.418 -0.08 +0.00    +0.130 C  
DOCKED: ATOM      3  C   UNL     1     -58.281 -35.966   7.670 -0.17 +0.00    +0.004 A  
DOCKED: ATOM      4  C   UNL     1     -57.299 -36.863   7.276 -0.25 +0.00    +0.006 A  
DOCKED: ATOM      5  C   UNL     1     -55.974 -36.393   7.738 -0.11 +0.00    +0.169 C  
DOCKED: ATOM      6  C   UNL     1     -59.616 -36.197   7.374 -0.19 -0.00    -0.001 A  
DOCKED: ATOM      7  C   UNL     1     -57.614 -38.013   6.571 -0.33 +0.00    +0.008 A  
DOCKED: ATOM      8  C   UNL     1     -59.950 -37.349   6.660 -0.23 +0.00    +0.010 A  
DOCKED: ATOM      9  C   UNL     1     -58.953 -38.253   6.261 -0.28 +0.00    +0.068 A  
DOCKED: ATOM     10  N   UNL     1     -59.607 -40.385   4.942 -2.32 -0.00    -0.191 NA 
DOCKED: ATOM     11  C   UNL     1     -59.314 -39.428   5.533 -0.36 +0.00    +0.101 C  
DOCKED: ENDROOT
DOCKED: BRANCH   2  12
DOCKED: ATOM     12  C   UNL     1     -58.039 -34.798   9.892 -0.03 +0.00    +0.038 C  
DOCKED: BRANCH  12  13
DOCKED: ATOM     13  C   UNL     1     -57.336 -35.906  10.673 -0.04 +0.00    +0.038 C  
DOCKED: BRANCH  13  14
DOCKED: ATOM     14  C   UNL     1     -58.231 -37.137  10.807 -0.03 +0.00    +0.251 C  
DOCKED: BRANCH  14  15
DOCKED: ATOM     15  N   UNL     1     -57.438 -38.303  11.175 -0.10 +0.00    +0.141 N  
DOCKED: ATOM     16  C   UNL     1     -56.753 -38.080  12.449 -0.05 +0.00    +0.285 C  
DOCKED: ATOM     17  C   UNL     1     -58.282 -39.496  11.256 -0.12 +0.00    +0.285 C  
DOCKED: ENDBRANCH  14  15
DOCKED: ENDBRANCH  13  14
DOCKED: ENDBRANCH  12  13
DOCKED: ENDBRANCH   2  12
DOCKED: BRANCH   2  18
DOCKED: ATOM     18  C   UNL     1     -57.896 -33.502   7.772 -0.10 +0.00    +0.006 A  
DOCKED: ATOM     19  C   UNL     1     -56.819 -32.691   7.418 -0.09 +0.00    +0.001 A  
DOCKED: ATOM     20  C   UNL     1     -57.048 -31.454   6.815 -0.07 +0.00    +0.029 A  
DOCKED: ATOM     21  C   UNL     1     -58.353 -31.031   6.566 -0.08 +0.00    +0.140 A  
DOCKED: ATOM     22  C   UNL     1     -59.430 -31.843   6.920 -0.14 +0.00    +0.029 A  
DOCKED: ATOM     23  F   UNL     1     -58.573 -29.844   5.985 -0.01 -0.00    -0.204 F  
DOCKED: ATOM     24  C   UNL     1     -59.202 -33.080   7.524 -0.14 +0.00    +0.001 A  
DOCKED: ENDBRANCH   2  18
DOCKED: TORSDOF 5
DOCKED: TER
DOCKED: ENDMDL
________________________________________________________________________________


    FINAL DOCKED STATE:
    ________________________


Run:   128 / 512
Time taken for this run:   0.002s

DOCKED: MODEL        128
DOCKED: USER    Run = 128
DOCKED: USER
DOCKED: USER    Estimated Free Energy of Binding    =  -3.69 kcal/mol  [=(1)+(2)+(3)-(4)]
DOCKED: USER
DOCKED: USER    (1) Final Intermolecular Energy     =  -5.19 kcal/mol
DOCKED: USER        vdW + Hbond + desolv Energy     =  -5.19 kcal/mol
DOCKED: USER        Electrostatic Energy            =  +0.00 kcal/mol
DOCKED: USER        Moving Ligand-Fixed Receptor    =  -5.19 kcal/mol
DOCKED: USER        Moving Ligand-Moving Receptor   =  +0.00 kcal/mol
DOCKED: USER    (2) Final Total Internal Energy     =  -1.38 kcal/mol
DOCKED: USER    (3) Torsional Free Energy           =  +1.49 kcal/mol
DOCKED: USER    (4) Unbound System's Energy         =  -1.38 kcal/mol
DOCKED: USER
DOCKED: USER
DOCKED: REMARK  5 active torsions:
DOCKED: REMARK  status: ('A' for Active; 'I' for Inactive)
DOCKED: REMARK    1  A    between atoms: C_2  and  C_19 
DOCKED: REMARK    2  A    between atoms: C_2  and  C_11 
DOCKED: REMARK    3  A    between atoms: C_19  and  C_20 
DOCKED: REMARK    4  A    between atoms: C_20  and  C_21 
DOCKED: REMARK    5  A    between atoms: C_21  and  N_22 
DOCKED: USER                              x       y       z     vdW  Elec       q    Type
DOCKED: USER                           _______ _______ _______ _____ _____    ______ ____
DOCKED: ROOT
DOCKED: ATOM      1  O   UNL     1     -58.393 -33.914   7.792 -0.04 -0.00    -0.346 OA 
DOCKED: ATOM      2  C   UNL     1     -57.183 -34.703   8.027 -0.11 +0.00    +0.130 C  
DOCKED: ATOM      3  C   UNL     1     -57.506 -36.042   7.429 -0.21 +0.00    +0.004 A  
DOCKED: ATOM      4  C   UNL     1     -58.746 -35.990   6.808 -0.25 +0.00    +0.006 A  
DOCKED: ATOM      5  C   UNL     1     -59.316 -34.630   6.940 -0.19 +0.00    +0.169 C  
DOCKED: ATOM      6  C   UNL     1     -56.756 -37.209   7.424 -0.25 -0.00    -0.001 A  
DOCKED: ATOM      7  C   UNL     1     -59.279 -37.096   6.169 -0.29 +0.00    +0.008 A  
DOCKED: ATOM      8  C   UNL     1     -57.282 -38.335   6.787 -0.34 +0.00    +0.010 A  
DOCKED: ATOM      9  C   UNL     1     -58.537 -38.278   6.163 -0.31 +0.00    +0.068 A  
DOCKED: ATOM     10  N   UNL     1     -59.481 -40.384   4.986 -2.39 -0.00    -0.191 NA 
DOCKED: ATOM     11  C   UNL     1     -59.058 -39.440   5.514 -0.36 +0.00    +0.101 C  
DOCKED: ENDROOT
DOCKED: BRANCH   2  12
DOCKED: ATOM     12  C   UNL     1     -56.014 -34.011   7.338 -0.15 +0.00    +0.038 C  
DOCKED: BRANCH  12  13
DOCKED: ATOM     13  C   UNL     1     -56.496 -32.926   6.377 -0.15 +0.00    +0.038 C  
DOCKED: BRANCH  13  14
DOCKED: ATOM     14  C   UNL     1     -56.656 -31.587   7.095 -0.04 +0.00    +0.251 C  
DOCKED: BRANCH  14  15
DOCKED: ATOM     15  N   UNL     1     -56.009 -31.632   8.401 -0.01 +0.00    +0.141 N  
DOCKED: ATOM     16  C   UNL     1     -54.578 -31.350   8.279 -0.00 +0.00    +0.285 C  
DOCKED: ATOM     17  C   UNL     1     -56.637 -30.682   9.321 -0.00 +0.00    +0.285 C  
DOCKED: ENDBRANCH  14  15
DOCKED: ENDBRANCH  13  14
DOCKED: ENDBRANCH  12  13
DOCKED: ENDBRANCH   2  12
DOCKED: BRANCH   2  18
DOCKED: ATOM     18  C   UNL     1     -56.980 -34.760   9.505 -0.04 +0.00    +0.006 A  
DOCKED: ATOM     19  C   UNL     1     -55.769 -34.348  10.058 -0.02 +0.00    +0.001 A  
DOCKED: ATOM     20  C   UNL     1     -55.580 -34.402  11.439 -0.01 +0.00    +0.029 A  
DOCKED: ATOM     21  C   UNL     1     -56.602 -34.868  12.265 -0.00 +0.00    +0.140 A  
DOCKED: ATOM     22  C   UNL     1     -57.814 -35.280  11.711 -0.01 +0.00    +0.029 A  
DOCKED: ATOM     23  F   UNL     1     -56.421 -34.918  13.591 -0.00 -0.00    -0.204 F  
DOCKED: ATOM     24  C   UNL     1     -58.003 -35.227  10.329 -0.02 +0.00    +0.001 A  
DOCKED: ENDBRANCH   2  18
DOCKED: TORSDOF 5
DOCKED: TER
DOCKED: ENDMDL
________________________________________________________________________________


    FINAL DOCKED STATE:
    ________________________


Run:   129 / 512
Time taken for this run:   0.002s

DOCKED: MODEL        129
DOCKED: USER    Run = 129
DOCKED: USER
DOCKED: USER    Estimated Free Energy of Binding    =  -4.34 kcal/mol  [=(1)+(2)+(3)-(4)]
DOCKED: USER
DOCKED: USER    (1) Final Intermolecular Energy     =  -5.83 kcal/mol
DOCKED: USER        vdW + Hbond + desolv Energy     =  -5.83 kcal/mol
DOCKED: USER        Electrostatic Energy            =  +0.00 kcal/mol
DOCKED: USER        Moving Ligand-Fixed Receptor    =  -5.83 kcal/mol
DOCKED: USER        Moving Ligand-Moving Receptor   =  +0.00 kcal/mol
DOCKED: USER    (2) Final Total Internal Energy     =  -1.48 kcal/mol
DOCKED: USER    (3) Torsional Free Energy           =  +1.49 kcal/mol
DOCKED: USER    (4) Unbound System's Energy         =  -1.48 kcal/mol
DOCKED: USER
DOCKED: USER
DOCKED: REMARK  5 active torsions:
DOCKED: REMARK  status: ('A' for Active; 'I' for Inactive)
DOCKED: REMARK    1  A    between atoms: C_2  and  C_19 
DOCKED: REMARK    2  A    between atoms: C_2  and  C_11 
DOCKED: REMARK    3  A    between atoms: C_19  and  C_20 
DOCKED: REMARK    4  A    between atoms: C_20  and  C_21 
DOCKED: REMARK    5  A    between atoms: C_21  and  N_22 
DOCKED: USER                              x       y       z     vdW  Elec       q    Type
DOCKED: USER                           _______ _______ _______ _____ _____    ______ ____
DOCKED: ROOT
DOCKED: ATOM      1  O   UNL     1     -59.372 -36.234   8.745 -0.00 -0.00    -0.346 OA 
DOCKED: ATOM      2  C   UNL     1     -58.209 -37.112   8.616 -0.11 +0.00    +0.130 C  
DOCKED: ATOM      3  C   UNL     1     -58.365 -37.718   7.252 -0.25 +0.00    +0.004 A  
DOCKED: ATOM      4  C   UNL     1     -59.459 -37.154   6.612 -0.25 +0.00    +0.006 A  
DOCKED: ATOM      5  C   UNL     1     -60.086 -36.141   7.490 -0.14 +0.00    +0.169 C  
DOCKED: ATOM      6  C   UNL     1     -57.593 -38.684   6.622 -0.38 -0.00    -0.001 A  
DOCKED: ATOM      7  C   UNL     1     -59.821 -37.535   5.331 -0.21 +0.00    +0.008 A  
DOCKED: ATOM      8  C   UNL     1     -57.948 -39.082   5.332 -0.38 +0.00    +0.010 A  
DOCKED: ATOM      9  C   UNL     1     -59.056 -38.510   4.690 -0.41 +0.00    +0.068 A  
DOCKED: ATOM     10  N   UNL     1     -59.684 -39.268   2.293 -2.00 -0.00    -0.191 NA 
DOCKED: ATOM     11  C   UNL     1     -59.403 -38.928   3.369 -0.52 +0.00    +0.101 C  
DOCKED: ENDROOT
DOCKED: BRANCH   2  12
DOCKED: ATOM     12  C   UNL     1     -56.948 -36.266   8.749 -0.14 +0.00    +0.038 C  
DOCKED: BRANCH  12  13
DOCKED: ATOM     13  C   UNL     1     -57.219 -34.804   8.401 -0.10 +0.00    +0.038 C  
DOCKED: BRANCH  13  14
DOCKED: ATOM     14  C   UNL     1     -57.587 -34.002   9.648 -0.01 +0.00    +0.251 C  
DOCKED: BRANCH  14  15
DOCKED: ATOM     15  N   UNL     1     -57.557 -34.856  10.829 -0.01 +0.00    +0.141 N  
DOCKED: ATOM     16  C   UNL     1     -56.511 -34.420  11.755 -0.00 +0.00    +0.285 C  
DOCKED: ATOM     17  C   UNL     1     -58.859 -34.859  11.497 -0.00 +0.00    +0.285 C  
DOCKED: ENDBRANCH  14  15
DOCKED: ENDBRANCH  13  14
DOCKED: ENDBRANCH  12  13
DOCKED: ENDBRANCH   2  12
DOCKED: BRANCH   2  18
DOCKED: ATOM     18  C   UNL     1     -58.299 -38.119   9.714 -0.14 +0.00    +0.006 A  
DOCKED: ATOM     19  C   UNL     1     -57.142 -38.729  10.197 -0.16 +0.00    +0.001 A  
DOCKED: ATOM     20  C   UNL     1     -57.229 -39.671  11.223 -0.22 +0.00    +0.029 A  
DOCKED: ATOM     21  C   UNL     1     -58.470 -40.001  11.764 -0.07 +0.00    +0.140 A  
DOCKED: ATOM     22  C   UNL     1     -59.627 -39.390  11.281 -0.12 +0.00    +0.029 A  
DOCKED: ATOM     23  F   UNL     1     -58.553 -40.904  12.750 -0.05 -0.00    -0.204 F  
DOCKED: ATOM     24  C   UNL     1     -59.542 -38.448  10.254 -0.13 +0.00    +0.001 A  
DOCKED: ENDBRANCH   2  18
DOCKED: TORSDOF 5
DOCKED: TER
DOCKED: ENDMDL
________________________________________________________________________________


    FINAL DOCKED STATE:
    ________________________


Run:   130 / 512
Time taken for this run:   0.002s

DOCKED: MODEL        130
DOCKED: USER    Run = 130
DOCKED: USER
DOCKED: USER    Estimated Free Energy of Binding    =  -4.12 kcal/mol  [=(1)+(2)+(3)-(4)]
DOCKED: USER
DOCKED: USER    (1) Final Intermolecular Energy     =  -5.61 kcal/mol
DOCKED: USER        vdW + Hbond + desolv Energy     =  -5.61 kcal/mol
DOCKED: USER        Electrostatic Energy            =  +0.00 kcal/mol
DOCKED: USER        Moving Ligand-Fixed Receptor    =  -5.61 kcal/mol
DOCKED: USER        Moving Ligand-Moving Receptor   =  +0.00 kcal/mol
DOCKED: USER    (2) Final Total Internal Energy     =  -1.43 kcal/mol
DOCKED: USER    (3) Torsional Free Energy           =  +1.49 kcal/mol
DOCKED: USER    (4) Unbound System's Energy         =  -1.43 kcal/mol
DOCKED: USER
DOCKED: USER
DOCKED: REMARK  5 active torsions:
DOCKED: REMARK  status: ('A' for Active; 'I' for Inactive)
DOCKED: REMARK    1  A    between atoms: C_2  and  C_19 
DOCKED: REMARK    2  A    between atoms: C_2  and  C_11 
DOCKED: REMARK    3  A    between atoms: C_19  and  C_20 
DOCKED: REMARK    4  A    between atoms: C_20  and  C_21 
DOCKED: REMARK    5  A    between atoms: C_21  and  N_22 
DOCKED: USER                              x       y       z     vdW  Elec       q    Type
DOCKED: USER                           _______ _______ _______ _____ _____    ______ ____
DOCKED: ROOT
DOCKED: ATOM      1  O   UNL     1     -49.464 -37.642  -1.539 -0.00 -0.00    -0.346 OA 
DOCKED: ATOM      2  C   UNL     1     -49.933 -36.578  -0.650 -0.07 +0.00    +0.130 C  
DOCKED: ATOM      3  C   UNL     1     -50.528 -37.318   0.513 -0.11 +0.00    +0.004 A  
DOCKED: ATOM      4  C   UNL     1     -50.318 -38.681   0.356 -0.14 +0.00    +0.006 A  
DOCKED: ATOM      5  C   UNL     1     -49.570 -38.933  -0.896 -0.07 +0.00    +0.169 C  
DOCKED: ATOM      6  C   UNL     1     -51.191 -36.823   1.626 -0.15 -0.00    -0.001 A  
DOCKED: ATOM      7  C   UNL     1     -50.765 -39.591   1.298 -0.24 +0.00    +0.008 A  
DOCKED: ATOM      8  C   UNL     1     -51.652 -37.729   2.583 -0.26 +0.00    +0.010 A  
DOCKED: ATOM      9  C   UNL     1     -51.439 -39.106   2.420 -0.29 +0.00    +0.068 A  
DOCKED: ATOM     10  N   UNL     1     -52.303 -40.760   4.217 -2.67 -0.00    -0.191 NA 
DOCKED: ATOM     11  C   UNL     1     -51.916 -40.018   3.411 -0.41 +0.00    +0.101 C  
DOCKED: ENDROOT
DOCKED: BRANCH   2  12
DOCKED: ATOM     12  C   UNL     1     -48.739 -35.716  -0.258 -0.01 +0.00    +0.038 C  
DOCKED: BRANCH  12  13
DOCKED: ATOM     13  C   UNL     1     -47.484 -36.562  -0.051 -0.01 +0.00    +0.038 C  
DOCKED: BRANCH  13  14
DOCKED: ATOM     14  C   UNL     1     -47.153 -36.700   1.433 -0.00 +0.00    +0.251 C  
DOCKED: BRANCH  14  15
DOCKED: ATOM     15  N   UNL     1     -47.498 -38.035   1.908 -0.02 +0.00    +0.141 N  
DOCKED: ATOM     16  C   UNL     1     -46.342 -38.929   1.821 -0.02 +0.00    +0.285 C  
DOCKED: ATOM     17  C   UNL     1     -47.994 -37.981   3.284 -0.01 +0.00    +0.285 C  
DOCKED: ENDBRANCH  14  15
DOCKED: ENDBRANCH  13  14
DOCKED: ENDBRANCH  12  13
DOCKED: ENDBRANCH   2  12
DOCKED: BRANCH   2  18
DOCKED: ATOM     18  C   UNL     1     -50.941 -35.786  -1.413 -0.12 +0.00    +0.006 A  
DOCKED: ATOM     19  C   UNL     1     -51.720 -34.833  -0.757 -0.14 +0.00    +0.001 A  
DOCKED: ATOM     20  C   UNL     1     -52.663 -34.093  -1.471 -0.19 +0.00    +0.029 A  
DOCKED: ATOM     21  C   UNL     1     -52.826 -34.306  -2.839 -0.19 +0.00    +0.140 A  
DOCKED: ATOM     22  C   UNL     1     -52.047 -35.259  -3.495 -0.20 +0.00    +0.029 A  
DOCKED: ATOM     23  F   UNL     1     -53.730 -33.595  -3.525 -0.14 -0.00    -0.204 F  
DOCKED: ATOM     24  C   UNL     1     -51.104 -36.001  -2.781 -0.15 +0.00    +0.001 A  
DOCKED: ENDBRANCH   2  18
DOCKED: TORSDOF 5
DOCKED: TER
DOCKED: ENDMDL
________________________________________________________________________________


    FINAL DOCKED STATE:
    ________________________


Run:   131 / 512
Time taken for this run:   0.002s

DOCKED: MODEL        131
DOCKED: USER    Run = 131
DOCKED: USER
DOCKED: USER    Estimated Free Energy of Binding    =  -3.83 kcal/mol  [=(1)+(2)+(3)-(4)]
DOCKED: USER
DOCKED: USER    (1) Final Intermolecular Energy     =  -5.32 kcal/mol
DOCKED: USER        vdW + Hbond + desolv Energy     =  -5.32 kcal/mol
DOCKED: USER        Electrostatic Energy            =  +0.00 kcal/mol
DOCKED: USER        Moving Ligand-Fixed Receptor    =  -5.32 kcal/mol
DOCKED: USER        Moving Ligand-Moving Receptor   =  +0.00 kcal/mol
DOCKED: USER    (2) Final Total Internal Energy     =  -1.17 kcal/mol
DOCKED: USER    (3) Torsional Free Energy           =  +1.49 kcal/mol
DOCKED: USER    (4) Unbound System's Energy         =  -1.17 kcal/mol
DOCKED: USER
DOCKED: USER
DOCKED: REMARK  5 active torsions:
DOCKED: REMARK  status: ('A' for Active; 'I' for Inactive)
DOCKED: REMARK    1  A    between atoms: C_2  and  C_19 
DOCKED: REMARK    2  A    between atoms: C_2  and  C_11 
DOCKED: REMARK    3  A    between atoms: C_19  and  C_20 
DOCKED: REMARK    4  A    between atoms: C_20  and  C_21 
DOCKED: REMARK    5  A    between atoms: C_21  and  N_22 
DOCKED: USER                              x       y       z     vdW  Elec       q    Type
DOCKED: USER                           _______ _______ _______ _____ _____    ______ ____
DOCKED: ROOT
DOCKED: ATOM      1  O   UNL     1     -48.811 -35.502   0.806 +0.00 -0.00    -0.346 OA 
DOCKED: ATOM      2  C   UNL     1     -50.242 -35.300   0.571 -0.04 +0.00    +0.130 C  
DOCKED: ATOM      3  C   UNL     1     -50.890 -36.451   1.284 -0.11 +0.00    +0.004 A  
DOCKED: ATOM      4  C   UNL     1     -49.925 -37.184   1.960 -0.07 +0.00    +0.006 A  
DOCKED: ATOM      5  C   UNL     1     -48.593 -36.572   1.755 -0.02 +0.00    +0.169 C  
DOCKED: ATOM      6  C   UNL     1     -52.228 -36.813   1.339 -0.26 -0.00    -0.001 A  
DOCKED: ATOM      7  C   UNL     1     -50.261 -38.301   2.706 -0.15 +0.00    +0.008 A  
DOCKED: ATOM      8  C   UNL     1     -52.582 -37.939   2.084 -0.33 +0.00    +0.010 A  
DOCKED: ATOM      9  C   UNL     1     -51.603 -38.679   2.764 -0.29 +0.00    +0.068 A  
DOCKED: ATOM     10  N   UNL     1     -52.295 -40.761   4.142 -2.65 -0.00    -0.191 NA 
DOCKED: ATOM     11  C   UNL     1     -51.984 -39.828   3.524 -0.35 +0.00    +0.101 C  
DOCKED: ENDROOT
DOCKED: BRANCH   2  12
DOCKED: ATOM     12  C   UNL     1     -50.638 -33.946   1.147 -0.03 +0.00    +0.038 C  
DOCKED: BRANCH  12  13
DOCKED: ATOM     13  C   UNL     1     -52.067 -33.572   0.758 -0.08 +0.00    +0.038 C  
DOCKED: BRANCH  13  14
DOCKED: ATOM     14  C   UNL     1     -52.714 -32.689   1.823 -0.03 +0.00    +0.251 C  
DOCKED: BRANCH  14  15
DOCKED: ATOM     15  N   UNL     1     -53.649 -33.466   2.628 -0.11 +0.00    +0.141 N  
DOCKED: ATOM     16  C   UNL     1     -54.435 -34.365   1.780 -0.21 +0.00    +0.285 C  
DOCKED: ATOM     17  C   UNL     1     -52.937 -34.229   3.654 -0.09 +0.00    +0.285 C  
DOCKED: ENDBRANCH  14  15
DOCKED: ENDBRANCH  13  14
DOCKED: ENDBRANCH  12  13
DOCKED: ENDBRANCH   2  12
DOCKED: BRANCH   2  18
DOCKED: ATOM     18  C   UNL     1     -50.451 -35.338  -0.906 -0.08 +0.00    +0.006 A  
DOCKED: ATOM     19  C   UNL     1     -50.309 -34.174  -1.661 -0.04 +0.00    +0.001 A  
DOCKED: ATOM     20  C   UNL     1     -50.505 -34.212  -3.042 -0.05 +0.00    +0.029 A  
DOCKED: ATOM     21  C   UNL     1     -50.841 -35.412  -3.666 -0.11 +0.00    +0.140 A  
DOCKED: ATOM     22  C   UNL     1     -50.983 -36.576  -2.911 -0.12 +0.00    +0.029 A  
DOCKED: ATOM     23  F   UNL     1     -51.028 -35.448  -4.992 -0.02 -0.00    -0.204 F  
DOCKED: ATOM     24  C   UNL     1     -50.788 -36.539  -1.529 -0.11 +0.00    +0.001 A  
DOCKED: ENDBRANCH   2  18
DOCKED: TORSDOF 5
DOCKED: TER
DOCKED: ENDMDL
________________________________________________________________________________


    FINAL DOCKED STATE:
    ________________________


Run:   132 / 512
Time taken for this run:   0.002s

DOCKED: MODEL        132
DOCKED: USER    Run = 132
DOCKED: USER
DOCKED: USER    Estimated Free Energy of Binding    =  -6.42 kcal/mol  [=(1)+(2)+(3)-(4)]
DOCKED: USER
DOCKED: USER    (1) Final Intermolecular Energy     =  -7.91 kcal/mol
DOCKED: USER        vdW + Hbond + desolv Energy     =  -7.91 kcal/mol
DOCKED: USER        Electrostatic Energy            =  +0.00 kcal/mol
DOCKED: USER        Moving Ligand-Fixed Receptor    =  -7.91 kcal/mol
DOCKED: USER        Moving Ligand-Moving Receptor   =  +0.00 kcal/mol
DOCKED: USER    (2) Final Total Internal Energy     =  -0.86 kcal/mol
DOCKED: USER    (3) Torsional Free Energy           =  +1.49 kcal/mol
DOCKED: USER    (4) Unbound System's Energy         =  -0.86 kcal/mol
DOCKED: USER
DOCKED: USER
DOCKED: REMARK  5 active torsions:
DOCKED: REMARK  status: ('A' for Active; 'I' for Inactive)
DOCKED: REMARK    1  A    between atoms: C_2  and  C_19 
DOCKED: REMARK    2  A    between atoms: C_2  and  C_11 
DOCKED: REMARK    3  A    between atoms: C_19  and  C_20 
DOCKED: REMARK    4  A    between atoms: C_20  and  C_21 
DOCKED: REMARK    5  A    between atoms: C_21  and  N_22 
DOCKED: USER                              x       y       z     vdW  Elec       q    Type
DOCKED: USER                           _______ _______ _______ _____ _____    ______ ____
DOCKED: ROOT
DOCKED: ATOM      1  O   UNL     1     -56.671 -39.688   7.451 -0.35 -0.00    -0.346 OA 
DOCKED: ATOM      2  C   UNL     1     -57.625 -38.587   7.595 -0.29 +0.00    +0.130 C  
DOCKED: ATOM      3  C   UNL     1     -58.293 -38.513   6.252 -0.38 +0.00    +0.004 A  
DOCKED: ATOM      4  C   UNL     1     -57.842 -39.550   5.448 -0.38 +0.00    +0.006 A  
DOCKED: ATOM      5  C   UNL     1     -56.868 -40.377   6.195 -0.16 +0.00    +0.169 C  
DOCKED: ATOM      6  C   UNL     1     -59.234 -37.607   5.784 -0.34 -0.00    -0.001 A  
DOCKED: ATOM      7  C   UNL     1     -58.308 -39.714   4.155 -0.27 +0.00    +0.008 A  
DOCKED: ATOM      8  C   UNL     1     -59.711 -37.757   4.481 -0.15 +0.00    +0.010 A  
DOCKED: ATOM      9  C   UNL     1     -59.251 -38.805   3.671 -0.46 +0.00    +0.068 A  
DOCKED: ATOM     10  N   UNL     1     -60.160 -39.058   1.258 -3.16 -0.00    -0.191 NA 
DOCKED: ATOM     11  C   UNL     1     -59.752 -38.944   2.340 -0.26 +0.00    +0.101 C  
DOCKED: ENDROOT
DOCKED: BRANCH   2  12
DOCKED: ATOM     12  C   UNL     1     -58.592 -38.930   8.721 -0.26 +0.00    +0.038 C  
DOCKED: BRANCH  12  13
DOCKED: ATOM     13  C   UNL     1     -57.879 -39.636   9.872 -0.28 +0.00    +0.038 C  
DOCKED: BRANCH  13  14
DOCKED: ATOM     14  C   UNL     1     -58.742 -39.643  11.132 -0.05 +0.00    +0.251 C  
DOCKED: BRANCH  14  15
DOCKED: ATOM     15  N   UNL     1     -58.266 -38.640  12.078 -0.08 +0.00    +0.141 N  
DOCKED: ATOM     16  C   UNL     1     -58.213 -37.320  11.448 -0.02 +0.00    +0.285 C  
DOCKED: ATOM     17  C   UNL     1     -59.123 -38.603  13.264 -0.03 +0.00    +0.285 C  
DOCKED: ENDBRANCH  14  15
DOCKED: ENDBRANCH  13  14
DOCKED: ENDBRANCH  12  13
DOCKED: ENDBRANCH   2  12
DOCKED: BRANCH   2  18
DOCKED: ATOM     18  C   UNL     1     -56.833 -37.364   7.918 -0.24 +0.00    +0.006 A  
DOCKED: ATOM     19  C   UNL     1     -55.948 -37.372   8.995 -0.18 +0.00    +0.001 A  
DOCKED: ATOM     20  C   UNL     1     -55.209 -36.227   9.297 -0.11 +0.00    +0.029 A  
DOCKED: ATOM     21  C   UNL     1     -55.356 -35.078   8.522 -0.08 +0.00    +0.140 A  
DOCKED: ATOM     22  C   UNL     1     -56.241 -35.071   7.445 -0.16 +0.00    +0.029 A  
DOCKED: ATOM     23  F   UNL     1     -54.645 -33.980   8.811 -0.00 -0.00    -0.204 F  
DOCKED: ATOM     24  C   UNL     1     -56.982 -36.215   7.143 -0.23 +0.00    +0.001 A  
DOCKED: ENDBRANCH   2  18
DOCKED: TORSDOF 5
DOCKED: TER
DOCKED: ENDMDL
________________________________________________________________________________


    FINAL DOCKED STATE:
    ________________________


Run:   133 / 512
Time taken for this run:   0.002s

DOCKED: MODEL        133
DOCKED: USER    Run = 133
DOCKED: USER
DOCKED: USER    Estimated Free Energy of Binding    =  -4.10 kcal/mol  [=(1)+(2)+(3)-(4)]
DOCKED: USER
DOCKED: USER    (1) Final Intermolecular Energy     =  -5.59 kcal/mol
DOCKED: USER        vdW + Hbond + desolv Energy     =  -5.59 kcal/mol
DOCKED: USER        Electrostatic Energy            =  +0.00 kcal/mol
DOCKED: USER        Moving Ligand-Fixed Receptor    =  -5.59 kcal/mol
DOCKED: USER        Moving Ligand-Moving Receptor   =  +0.00 kcal/mol
DOCKED: USER    (2) Final Total Internal Energy     =  -1.42 kcal/mol
DOCKED: USER    (3) Torsional Free Energy           =  +1.49 kcal/mol
DOCKED: USER    (4) Unbound System's Energy         =  -1.42 kcal/mol
DOCKED: USER
DOCKED: USER
DOCKED: REMARK  5 active torsions:
DOCKED: REMARK  status: ('A' for Active; 'I' for Inactive)
DOCKED: REMARK    1  A    between atoms: C_2  and  C_19 
DOCKED: REMARK    2  A    between atoms: C_2  and  C_11 
DOCKED: REMARK    3  A    between atoms: C_19  and  C_20 
DOCKED: REMARK    4  A    between atoms: C_20  and  C_21 
DOCKED: REMARK    5  A    between atoms: C_21  and  N_22 
DOCKED: USER                              x       y       z     vdW  Elec       q    Type
DOCKED: USER                           _______ _______ _______ _____ _____    ______ ____
DOCKED: ROOT
DOCKED: ATOM      1  O   UNL     1     -58.799 -33.546   7.201 -0.08 -0.00    -0.346 OA 
DOCKED: ATOM      2  C   UNL     1     -57.512 -34.225   7.362 -0.15 +0.00    +0.130 C  
DOCKED: ATOM      3  C   UNL     1     -57.804 -35.645   6.973 -0.24 +0.00    +0.004 A  
DOCKED: ATOM      4  C   UNL     1     -59.113 -35.747   6.524 -0.25 +0.00    +0.006 A  
DOCKED: ATOM      5  C   UNL     1     -59.765 -34.419   6.571 -0.16 +0.00    +0.169 C  
DOCKED: ATOM      6  C   UNL     1     -56.974 -36.756   7.003 -0.21 -0.00    -0.001 A  
DOCKED: ATOM      7  C   UNL     1     -59.636 -36.955   6.097 -0.25 +0.00    +0.008 A  
DOCKED: ATOM      8  C   UNL     1     -57.488 -37.983   6.580 -0.33 +0.00    +0.010 A  
DOCKED: ATOM      9  C   UNL     1     -58.813 -38.082   6.128 -0.30 +0.00    +0.068 A  
DOCKED: ATOM     10  N   UNL     1     -59.735 -40.373   5.344 -2.56 -0.00    -0.191 NA 
DOCKED: ATOM     11  C   UNL     1     -59.321 -39.345   5.696 -0.34 +0.00    +0.101 C  
DOCKED: ENDROOT
DOCKED: BRANCH   2  12
DOCKED: ATOM     12  C   UNL     1     -56.496 -33.556   6.444 -0.18 +0.00    +0.038 C  
DOCKED: BRANCH  12  13
DOCKED: ATOM     13  C   UNL     1     -56.520 -32.036   6.600 -0.10 +0.00    +0.038 C  
DOCKED: BRANCH  13  14
DOCKED: ATOM     14  C   UNL     1     -57.425 -31.391   5.552 -0.08 +0.00    +0.251 C  
DOCKED: BRANCH  14  15
DOCKED: ATOM     15  N   UNL     1     -58.722 -31.064   6.134 -0.11 +0.00    +0.141 N  
DOCKED: ATOM     16  C   UNL     1     -58.558 -30.510   7.479 -0.02 +0.00    +0.285 C  
DOCKED: ATOM     17  C   UNL     1     -59.446 -30.120   5.281 -0.09 +0.00    +0.285 C  
DOCKED: ENDBRANCH  14  15
DOCKED: ENDBRANCH  13  14
DOCKED: ENDBRANCH  12  13
DOCKED: ENDBRANCH   2  12
DOCKED: BRANCH   2  18
DOCKED: ATOM     18  C   UNL     1     -57.119 -34.083   8.794 -0.05 +0.00    +0.006 A  
DOCKED: ATOM     19  C   UNL     1     -55.801 -34.321   9.182 -0.04 +0.00    +0.001 A  
DOCKED: ATOM     20  C   UNL     1     -55.436 -34.189  10.522 -0.01 +0.00    +0.029 A  
DOCKED: ATOM     21  C   UNL     1     -56.387 -33.818  11.472 -0.00 +0.00    +0.140 A  
DOCKED: ATOM     22  C   UNL     1     -57.705 -33.580  11.083 -0.00 +0.00    +0.029 A  
DOCKED: ATOM     23  F   UNL     1     -56.035 -33.689  12.757 -0.00 -0.00    -0.204 F  
DOCKED: ATOM     24  C   UNL     1     -58.072 -33.713   9.742 -0.02 +0.00    +0.001 A  
DOCKED: ENDBRANCH   2  18
DOCKED: TORSDOF 5
DOCKED: TER
DOCKED: ENDMDL
________________________________________________________________________________


    FINAL DOCKED STATE:
    ________________________


Run:   134 / 512
Time taken for this run:   0.002s

DOCKED: MODEL        134
DOCKED: USER    Run = 134
DOCKED: USER
DOCKED: USER    Estimated Free Energy of Binding    =  -3.70 kcal/mol  [=(1)+(2)+(3)-(4)]
DOCKED: USER
DOCKED: USER    (1) Final Intermolecular Energy     =  -5.20 kcal/mol
DOCKED: USER        vdW + Hbond + desolv Energy     =  -5.20 kcal/mol
DOCKED: USER        Electrostatic Energy            =  +0.00 kcal/mol
DOCKED: USER        Moving Ligand-Fixed Receptor    =  -5.20 kcal/mol
DOCKED: USER        Moving Ligand-Moving Receptor   =  +0.00 kcal/mol
DOCKED: USER    (2) Final Total Internal Energy     =  -1.22 kcal/mol
DOCKED: USER    (3) Torsional Free Energy           =  +1.49 kcal/mol
DOCKED: USER    (4) Unbound System's Energy         =  -1.22 kcal/mol
DOCKED: USER
DOCKED: USER
DOCKED: REMARK  5 active torsions:
DOCKED: REMARK  status: ('A' for Active; 'I' for Inactive)
DOCKED: REMARK    1  A    between atoms: C_2  and  C_19 
DOCKED: REMARK    2  A    between atoms: C_2  and  C_11 
DOCKED: REMARK    3  A    between atoms: C_19  and  C_20 
DOCKED: REMARK    4  A    between atoms: C_20  and  C_21 
DOCKED: REMARK    5  A    between atoms: C_21  and  N_22 
DOCKED: USER                              x       y       z     vdW  Elec       q    Type
DOCKED: USER                           _______ _______ _______ _____ _____    ______ ____
DOCKED: ROOT
DOCKED: ATOM      1  O   UNL     1     -56.269 -34.702   7.539 -0.07 -0.00    -0.346 OA 
DOCKED: ATOM      2  C   UNL     1     -55.872 -35.860   8.341 -0.14 +0.00    +0.130 C  
DOCKED: ATOM      3  C   UNL     1     -56.666 -36.992   7.756 -0.23 +0.00    +0.004 A  
DOCKED: ATOM      4  C   UNL     1     -57.370 -36.544   6.647 -0.25 +0.00    +0.006 A  
DOCKED: ATOM      5  C   UNL     1     -57.086 -35.110   6.417 -0.19 +0.00    +0.169 C  
DOCKED: ATOM      6  C   UNL     1     -56.750 -38.315   8.166 -0.25 -0.00    -0.001 A  
DOCKED: ATOM      7  C   UNL     1     -58.181 -37.396   5.916 -0.35 +0.00    +0.008 A  
DOCKED: ATOM      8  C   UNL     1     -57.566 -39.185   7.442 -0.36 +0.00    +0.010 A  
DOCKED: ATOM      9  C   UNL     1     -58.278 -38.728   6.322 -0.33 +0.00    +0.068 A  
DOCKED: ATOM     10  N   UNL     1     -59.780 -40.371   4.997 -2.37 -0.00    -0.191 NA 
DOCKED: ATOM     11  C   UNL     1     -59.107 -39.634   5.592 -0.26 +0.00    +0.101 C  
DOCKED: ENDROOT
DOCKED: BRANCH   2  12
DOCKED: ATOM     12  C   UNL     1     -54.367 -36.054   8.197 -0.13 +0.00    +0.038 C  
DOCKED: BRANCH  12  13
DOCKED: ATOM     13  C   UNL     1     -53.597 -35.194   9.197 -0.07 +0.00    +0.038 C  
DOCKED: BRANCH  13  14
DOCKED: ATOM     14  C   UNL     1     -52.840 -34.072   8.487 -0.03 +0.00    +0.251 C  
DOCKED: BRANCH  14  15
DOCKED: ATOM     15  N   UNL     1     -52.941 -32.832   9.248 -0.01 +0.00    +0.141 N  
DOCKED: ATOM     16  C   UNL     1     -51.810 -31.952   8.952 -0.00 +0.00    +0.285 C  
DOCKED: ATOM     17  C   UNL     1     -54.204 -32.151   8.958 -0.00 +0.00    +0.285 C  
DOCKED: ENDBRANCH  14  15
DOCKED: ENDBRANCH  13  14
DOCKED: ENDBRANCH  12  13
DOCKED: ENDBRANCH   2  12
DOCKED: BRANCH   2  18
DOCKED: ATOM     18  C   UNL     1     -56.243 -35.559   9.755 -0.05 +0.00    +0.006 A  
DOCKED: ATOM     19  C   UNL     1     -56.123 -36.546  10.732 -0.06 +0.00    +0.001 A  
DOCKED: ATOM     20  C   UNL     1     -56.471 -36.263  12.053 -0.02 +0.00    +0.029 A  
DOCKED: ATOM     21  C   UNL     1     -56.937 -34.995  12.396 -0.00 +0.00    +0.140 A  
DOCKED: ATOM     22  C   UNL     1     -57.057 -34.008  11.417 -0.00 +0.00    +0.029 A  
DOCKED: ATOM     23  F   UNL     1     -57.269 -34.723  13.664 +0.00 -0.00    -0.204 F  
DOCKED: ATOM     24  C   UNL     1     -56.710 -34.290  10.095 -0.02 +0.00    +0.001 A  
DOCKED: ENDBRANCH   2  18
DOCKED: TORSDOF 5
DOCKED: TER
DOCKED: ENDMDL
________________________________________________________________________________


    FINAL DOCKED STATE:
    ________________________


Run:   135 / 512
Time taken for this run:   0.002s

DOCKED: MODEL        135
DOCKED: USER    Run = 135
DOCKED: USER
DOCKED: USER    Estimated Free Energy of Binding    =  -4.28 kcal/mol  [=(1)+(2)+(3)-(4)]
DOCKED: USER
DOCKED: USER    (1) Final Intermolecular Energy     =  -5.77 kcal/mol
DOCKED: USER        vdW + Hbond + desolv Energy     =  -5.77 kcal/mol
DOCKED: USER        Electrostatic Energy            =  +0.00 kcal/mol
DOCKED: USER        Moving Ligand-Fixed Receptor    =  -5.77 kcal/mol
DOCKED: USER        Moving Ligand-Moving Receptor   =  +0.00 kcal/mol
DOCKED: USER    (2) Final Total Internal Energy     =  -1.51 kcal/mol
DOCKED: USER    (3) Torsional Free Energy           =  +1.49 kcal/mol
DOCKED: USER    (4) Unbound System's Energy         =  -1.51 kcal/mol
DOCKED: USER
DOCKED: USER
DOCKED: REMARK  5 active torsions:
DOCKED: REMARK  status: ('A' for Active; 'I' for Inactive)
DOCKED: REMARK    1  A    between atoms: C_2  and  C_19 
DOCKED: REMARK    2  A    between atoms: C_2  and  C_11 
DOCKED: REMARK    3  A    between atoms: C_19  and  C_20 
DOCKED: REMARK    4  A    between atoms: C_20  and  C_21 
DOCKED: REMARK    5  A    between atoms: C_21  and  N_22 
DOCKED: USER                              x       y       z     vdW  Elec       q    Type
DOCKED: USER                           _______ _______ _______ _____ _____    ______ ____
DOCKED: ROOT
DOCKED: ATOM      1  O   UNL     1     -58.469 -33.364   7.585 -0.04 -0.00    -0.346 OA 
DOCKED: ATOM      2  C   UNL     1     -59.891 -33.630   7.808 -0.13 +0.00    +0.130 C  
DOCKED: ATOM      3  C   UNL     1     -60.080 -35.028   7.295 -0.21 +0.00    +0.004 A  
DOCKED: ATOM      4  C   UNL     1     -58.855 -35.555   6.914 -0.23 +0.00    +0.006 A  
DOCKED: ATOM      5  C   UNL     1     -57.783 -34.563   7.157 -0.17 +0.00    +0.169 C  
DOCKED: ATOM      6  C   UNL     1     -61.243 -35.777   7.184 -0.21 -0.00    -0.001 A  
DOCKED: ATOM      7  C   UNL     1     -58.749 -36.840   6.409 -0.30 +0.00    +0.008 A  
DOCKED: ATOM      8  C   UNL     1     -61.153 -37.072   6.672 -0.23 +0.00    +0.010 A  
DOCKED: ATOM      9  C   UNL     1     -59.912 -37.601   6.287 -0.23 +0.00    +0.068 A  
DOCKED: ATOM     10  N   UNL     1     -59.781 -40.011   5.345 -2.56 -0.00    -0.191 NA 
DOCKED: ATOM     11  C   UNL     1     -59.840 -38.930   5.767 -0.34 +0.00    +0.101 C  
DOCKED: ENDROOT
DOCKED: BRANCH   2  12
DOCKED: ATOM     12  C   UNL     1     -60.177 -33.501   9.300 -0.04 +0.00    +0.038 C  
DOCKED: BRANCH  12  13
DOCKED: ATOM     13  C   UNL     1     -58.886 -33.394  10.108 -0.02 +0.00    +0.038 C  
DOCKED: BRANCH  13  14
DOCKED: ATOM     14  C   UNL     1     -58.582 -31.940  10.467 -0.00 +0.00    +0.251 C  
DOCKED: BRANCH  14  15
DOCKED: ATOM     15  N   UNL     1     -58.716 -31.089   9.291 -0.01 +0.00    +0.141 N  
DOCKED: ATOM     16  C   UNL     1     -59.572 -29.938   9.582 -0.00 +0.00    +0.285 C  
DOCKED: ATOM     17  C   UNL     1     -57.402 -30.640   8.827 -0.00 +0.00    +0.285 C  
DOCKED: ENDBRANCH  14  15
DOCKED: ENDBRANCH  13  14
DOCKED: ENDBRANCH  12  13
DOCKED: ENDBRANCH   2  12
DOCKED: BRANCH   2  18
DOCKED: ATOM     18  C   UNL     1     -60.653 -32.614   7.024 -0.20 +0.00    +0.006 A  
DOCKED: ATOM     19  C   UNL     1     -59.971 -31.627   6.314 -0.18 +0.00    +0.001 A  
DOCKED: ATOM     20  C   UNL     1     -60.685 -30.677   5.582 -0.15 +0.00    +0.029 A  
DOCKED: ATOM     21  C   UNL     1     -62.078 -30.717   5.560 -0.10 +0.00    +0.140 A  
DOCKED: ATOM     22  C   UNL     1     -62.760 -31.705   6.271 -0.20 +0.00    +0.029 A  
DOCKED: ATOM     23  F   UNL     1     -62.763 -29.806   4.856 -0.03 -0.00    -0.204 F  
DOCKED: ATOM     24  C   UNL     1     -62.047 -32.655   7.004 -0.20 +0.00    +0.001 A  
DOCKED: ENDBRANCH   2  18
DOCKED: TORSDOF 5
DOCKED: TER
DOCKED: ENDMDL
________________________________________________________________________________


    FINAL DOCKED STATE:
    ________________________


Run:   136 / 512
Time taken for this run:   0.002s

DOCKED: MODEL        136
DOCKED: USER    Run = 136
DOCKED: USER
DOCKED: USER    Estimated Free Energy of Binding    =  -4.65 kcal/mol  [=(1)+(2)+(3)-(4)]
DOCKED: USER
DOCKED: USER    (1) Final Intermolecular Energy     =  -6.14 kcal/mol
DOCKED: USER        vdW + Hbond + desolv Energy     =  -6.14 kcal/mol
DOCKED: USER        Electrostatic Energy            =  +0.00 kcal/mol
DOCKED: USER        Moving Ligand-Fixed Receptor    =  -6.14 kcal/mol
DOCKED: USER        Moving Ligand-Moving Receptor   =  +0.00 kcal/mol
DOCKED: USER    (2) Final Total Internal Energy     =  -1.12 kcal/mol
DOCKED: USER    (3) Torsional Free Energy           =  +1.49 kcal/mol
DOCKED: USER    (4) Unbound System's Energy         =  -1.12 kcal/mol
DOCKED: USER
DOCKED: USER
DOCKED: REMARK  5 active torsions:
DOCKED: REMARK  status: ('A' for Active; 'I' for Inactive)
DOCKED: REMARK    1  A    between atoms: C_2  and  C_19 
DOCKED: REMARK    2  A    between atoms: C_2  and  C_11 
DOCKED: REMARK    3  A    between atoms: C_19  and  C_20 
DOCKED: REMARK    4  A    between atoms: C_20  and  C_21 
DOCKED: REMARK    5  A    between atoms: C_21  and  N_22 
DOCKED: USER                              x       y       z     vdW  Elec       q    Type
DOCKED: USER                           _______ _______ _______ _____ _____    ______ ____
DOCKED: ROOT
DOCKED: ATOM      1  O   UNL     1     -55.796 -30.102   1.124 -0.09 -0.00    -0.346 OA 
DOCKED: ATOM      2  C   UNL     1     -54.478 -29.904   0.519 -0.17 +0.00    +0.130 C  
DOCKED: ATOM      3  C   UNL     1     -54.781 -29.242  -0.794 -0.24 +0.00    +0.004 A  
DOCKED: ATOM      4  C   UNL     1     -56.141 -28.984  -0.884 -0.21 +0.00    +0.006 A  
DOCKED: ATOM      5  C   UNL     1     -56.822 -29.438   0.349 -0.15 +0.00    +0.169 C  
DOCKED: ATOM      6  C   UNL     1     -53.919 -28.887  -1.822 -0.21 -0.00    -0.001 A  
DOCKED: ATOM      7  C   UNL     1     -56.686 -28.369  -1.999 -0.33 +0.00    +0.008 A  
DOCKED: ATOM      8  C   UNL     1     -54.454 -28.270  -2.954 -0.27 +0.00    +0.010 A  
DOCKED: ATOM      9  C   UNL     1     -55.830 -28.012  -3.042 -0.31 +0.00    +0.068 A  
DOCKED: ATOM     10  N   UNL     1     -56.788 -26.861  -5.156 -2.53 -0.00    -0.191 NA 
DOCKED: ATOM     11  C   UNL     1     -56.358 -27.378  -4.208 -0.34 +0.00    +0.101 C  
DOCKED: ENDROOT
DOCKED: BRANCH   2  12
DOCKED: ATOM     12  C   UNL     1     -53.648 -29.027   1.449 -0.15 +0.00    +0.038 C  
DOCKED: BRANCH  12  13
DOCKED: ATOM     13  C   UNL     1     -53.128 -29.820   2.646 -0.10 +0.00    +0.038 C  
DOCKED: BRANCH  13  14
DOCKED: ATOM     14  C   UNL     1     -51.625 -29.620   2.827 -0.05 +0.00    +0.251 C  
DOCKED: BRANCH  14  15
DOCKED: ATOM     15  N   UNL     1     -51.195 -28.387   2.177 -0.08 +0.00    +0.141 N  
DOCKED: ATOM     16  C   UNL     1     -50.255 -27.656   3.028 -0.05 +0.00    +0.285 C  
DOCKED: ATOM     17  C   UNL     1     -50.586 -28.675   0.877 -0.05 +0.00    +0.285 C  
DOCKED: ENDBRANCH  14  15
DOCKED: ENDBRANCH  13  14
DOCKED: ENDBRANCH  12  13
DOCKED: ENDBRANCH   2  12
DOCKED: BRANCH   2  18
DOCKED: ATOM     18  C   UNL     1     -53.863 -31.255   0.362 -0.12 +0.00    +0.006 A  
DOCKED: ATOM     19  C   UNL     1     -54.515 -32.380   0.865 -0.18 +0.00    +0.001 A  
DOCKED: ATOM     20  C   UNL     1     -53.939 -33.642   0.717 -0.21 +0.00    +0.029 A  
DOCKED: ATOM     21  C   UNL     1     -52.713 -33.777   0.066 -0.12 +0.00    +0.140 A  
DOCKED: ATOM     22  C   UNL     1     -52.062 -32.651  -0.437 -0.06 +0.00    +0.029 A  
DOCKED: ATOM     23  F   UNL     1     -52.161 -34.989  -0.077 -0.05 -0.00    -0.204 F  
DOCKED: ATOM     24  C   UNL     1     -52.637 -31.388  -0.289 -0.06 +0.00    +0.001 A  
DOCKED: ENDBRANCH   2  18
DOCKED: TORSDOF 5
DOCKED: TER
DOCKED: ENDMDL
________________________________________________________________________________


    FINAL DOCKED STATE:
    ________________________


Run:   137 / 512
Time taken for this run:   0.002s

DOCKED: MODEL        137
DOCKED: USER    Run = 137
DOCKED: USER
DOCKED: USER    Estimated Free Energy of Binding    =  -3.69 kcal/mol  [=(1)+(2)+(3)-(4)]
DOCKED: USER
DOCKED: USER    (1) Final Intermolecular Energy     =  -5.18 kcal/mol
DOCKED: USER        vdW + Hbond + desolv Energy     =  -5.18 kcal/mol
DOCKED: USER        Electrostatic Energy            =  +0.00 kcal/mol
DOCKED: USER        Moving Ligand-Fixed Receptor    =  -5.18 kcal/mol
DOCKED: USER        Moving Ligand-Moving Receptor   =  +0.00 kcal/mol
DOCKED: USER    (2) Final Total Internal Energy     =  -1.28 kcal/mol
DOCKED: USER    (3) Torsional Free Energy           =  +1.49 kcal/mol
DOCKED: USER    (4) Unbound System's Energy         =  -1.28 kcal/mol
DOCKED: USER
DOCKED: USER
DOCKED: REMARK  5 active torsions:
DOCKED: REMARK  status: ('A' for Active; 'I' for Inactive)
DOCKED: REMARK    1  A    between atoms: C_2  and  C_19 
DOCKED: REMARK    2  A    between atoms: C_2  and  C_11 
DOCKED: REMARK    3  A    between atoms: C_19  and  C_20 
DOCKED: REMARK    4  A    between atoms: C_20  and  C_21 
DOCKED: REMARK    5  A    between atoms: C_21  and  N_22 
DOCKED: USER                              x       y       z     vdW  Elec       q    Type
DOCKED: USER                           _______ _______ _______ _____ _____    ______ ____
DOCKED: ROOT
DOCKED: ATOM      1  O   UNL     1     -50.102 -36.015  -0.623 +0.00 -0.00    -0.346 OA 
DOCKED: ATOM      2  C   UNL     1     -49.807 -37.349  -1.147 -0.08 +0.00    +0.130 C  
DOCKED: ATOM      3  C   UNL     1     -50.288 -38.275  -0.068 -0.12 +0.00    +0.004 A  
DOCKED: ATOM      4  C   UNL     1     -50.905 -37.541   0.936 -0.14 +0.00    +0.006 A  
DOCKED: ATOM      5  C   UNL     1     -50.886 -36.102   0.590 -0.08 +0.00    +0.169 C  
DOCKED: ATOM      6  C   UNL     1     -50.198 -39.657   0.015 -0.16 -0.00    -0.001 A  
DOCKED: ATOM      7  C   UNL     1     -51.446 -38.157   2.051 -0.26 +0.00    +0.008 A  
DOCKED: ATOM      8  C   UNL     1     -50.735 -40.293   1.135 -0.27 +0.00    +0.010 A  
DOCKED: ATOM      9  C   UNL     1     -51.356 -39.546   2.148 -0.30 +0.00    +0.068 A  
DOCKED: ATOM     10  N   UNL     1     -52.346 -40.759   4.213 -2.62 -0.00    -0.191 NA 
DOCKED: ATOM     11  C   UNL     1     -51.901 -40.215   3.287 -0.40 +0.00    +0.101 C  
DOCKED: ENDROOT
DOCKED: BRANCH   2  12
DOCKED: ATOM     12  C   UNL     1     -50.558 -37.529  -2.461 -0.04 +0.00    +0.038 C  
DOCKED: BRANCH  12  13
DOCKED: ATOM     13  C   UNL     1     -50.543 -36.246  -3.291 -0.14 +0.00    +0.038 C  
DOCKED: BRANCH  13  14
DOCKED: ATOM     14  C   UNL     1     -51.911 -35.566  -3.275 -0.15 +0.00    +0.251 C  
DOCKED: BRANCH  14  15
DOCKED: ATOM     15  N   UNL     1     -51.828 -34.275  -2.603 -0.14 +0.00    +0.141 N  
DOCKED: ATOM     16  C   UNL     1     -52.030 -33.183  -3.556 -0.09 +0.00    +0.285 C  
DOCKED: ATOM     17  C   UNL     1     -52.812 -34.193  -1.522 -0.14 +0.00    +0.285 C  
DOCKED: ENDBRANCH  14  15
DOCKED: ENDBRANCH  13  14
DOCKED: ENDBRANCH  12  13
DOCKED: ENDBRANCH   2  12
DOCKED: BRANCH   2  18
DOCKED: ATOM     18  C   UNL     1     -48.331 -37.419  -1.357 -0.02 +0.00    +0.006 A  
DOCKED: ATOM     19  C   UNL     1     -47.468 -36.810  -0.447 -0.01 +0.00    +0.001 A  
DOCKED: ATOM     20  C   UNL     1     -46.089 -36.876  -0.644 -0.00 +0.00    +0.029 A  
DOCKED: ATOM     21  C   UNL     1     -45.574 -37.550  -1.751 -0.00 +0.00    +0.140 A  
DOCKED: ATOM     22  C   UNL     1     -46.437 -38.159  -2.661 -0.00 +0.00    +0.029 A  
DOCKED: ATOM     23  F   UNL     1     -44.249 -37.614  -1.939 +0.00 -0.00    -0.204 F  
DOCKED: ATOM     24  C   UNL     1     -47.818 -38.093  -2.464 -0.02 +0.00    +0.001 A  
DOCKED: ENDBRANCH   2  18
DOCKED: TORSDOF 5
DOCKED: TER
DOCKED: ENDMDL
________________________________________________________________________________


    FINAL DOCKED STATE:
    ________________________


Run:   138 / 512
Time taken for this run:   0.002s

DOCKED: MODEL        138
DOCKED: USER    Run = 138
DOCKED: USER
DOCKED: USER    Estimated Free Energy of Binding    =  -4.27 kcal/mol  [=(1)+(2)+(3)-(4)]
DOCKED: USER
DOCKED: USER    (1) Final Intermolecular Energy     =  -5.76 kcal/mol
DOCKED: USER        vdW + Hbond + desolv Energy     =  -5.76 kcal/mol
DOCKED: USER        Electrostatic Energy            =  +0.00 kcal/mol
DOCKED: USER        Moving Ligand-Fixed Receptor    =  -5.76 kcal/mol
DOCKED: USER        Moving Ligand-Moving Receptor   =  +0.00 kcal/mol
DOCKED: USER    (2) Final Total Internal Energy     =  -1.35 kcal/mol
DOCKED: USER    (3) Torsional Free Energy           =  +1.49 kcal/mol
DOCKED: USER    (4) Unbound System's Energy         =  -1.35 kcal/mol
DOCKED: USER
DOCKED: USER
DOCKED: REMARK  5 active torsions:
DOCKED: REMARK  status: ('A' for Active; 'I' for Inactive)
DOCKED: REMARK    1  A    between atoms: C_2  and  C_19 
DOCKED: REMARK    2  A    between atoms: C_2  and  C_11 
DOCKED: REMARK    3  A    between atoms: C_19  and  C_20 
DOCKED: REMARK    4  A    between atoms: C_20  and  C_21 
DOCKED: REMARK    5  A    between atoms: C_21  and  N_22 
DOCKED: USER                              x       y       z     vdW  Elec       q    Type
DOCKED: USER                           _______ _______ _______ _____ _____    ______ ____
DOCKED: ROOT
DOCKED: ATOM      1  O   UNL     1     -55.008 -35.984   8.614 -0.07 -0.00    -0.346 OA 
DOCKED: ATOM      2  C   UNL     1     -55.970 -35.155   7.886 -0.13 +0.00    +0.130 C  
DOCKED: ATOM      3  C   UNL     1     -56.863 -36.153   7.208 -0.22 +0.00    +0.004 A  
DOCKED: ATOM      4  C   UNL     1     -56.513 -37.437   7.601 -0.25 +0.00    +0.006 A  
DOCKED: ATOM      5  C   UNL     1     -55.389 -37.378   8.563 -0.17 +0.00    +0.169 C  
DOCKED: ATOM      6  C   UNL     1     -57.910 -35.941   6.322 -0.28 -0.00    -0.001 A  
DOCKED: ATOM      7  C   UNL     1     -57.188 -38.547   7.123 -0.35 +0.00    +0.008 A  
DOCKED: ATOM      8  C   UNL     1     -58.598 -37.050   5.828 -0.34 +0.00    +0.010 A  
DOCKED: ATOM      9  C   UNL     1     -58.239 -38.346   6.227 -0.32 +0.00    +0.068 A  
DOCKED: ATOM     10  N   UNL     1     -59.541 -40.383   5.295 -2.56 -0.00    -0.191 NA 
DOCKED: ATOM     11  C   UNL     1     -58.957 -39.470   5.712 -0.27 +0.00    +0.101 C  
DOCKED: ENDROOT
DOCKED: BRANCH   2  12
DOCKED: ATOM     12  C   UNL     1     -56.712 -34.281   8.891 -0.06 +0.00    +0.038 C  
DOCKED: BRANCH  12  13
DOCKED: ATOM     13  C   UNL     1     -55.746 -33.409   9.690 -0.02 +0.00    +0.038 C  
DOCKED: BRANCH  13  14
DOCKED: ATOM     14  C   UNL     1     -55.790 -31.959   9.211 -0.00 +0.00    +0.251 C  
DOCKED: BRANCH  14  15
DOCKED: ATOM     15  N   UNL     1     -54.561 -31.266   9.580 -0.00 +0.00    +0.141 N  
DOCKED: ATOM     16  C   UNL     1     -53.793 -32.054  10.544 -0.00 +0.00    +0.285 C  
DOCKED: ATOM     17  C   UNL     1     -53.751 -30.986   8.393 -0.00 +0.00    +0.285 C  
DOCKED: ENDBRANCH  14  15
DOCKED: ENDBRANCH  13  14
DOCKED: ENDBRANCH  12  13
DOCKED: ENDBRANCH   2  12
DOCKED: BRANCH   2  18
DOCKED: ATOM     18  C   UNL     1     -55.189 -34.324   6.923 -0.14 +0.00    +0.006 A  
DOCKED: ATOM     19  C   UNL     1     -53.800 -34.429   6.881 -0.10 +0.00    +0.001 A  
DOCKED: ATOM     20  C   UNL     1     -53.071 -33.651   5.980 -0.09 +0.00    +0.029 A  
DOCKED: ATOM     21  C   UNL     1     -53.732 -32.772   5.124 -0.08 +0.00    +0.140 A  
DOCKED: ATOM     22  C   UNL     1     -55.122 -32.668   5.167 -0.12 +0.00    +0.029 A  
DOCKED: ATOM     23  F   UNL     1     -53.032 -32.027   4.258 -0.00 -0.00    -0.204 F  
DOCKED: ATOM     24  C   UNL     1     -55.852 -33.445   6.068 -0.16 +0.00    +0.001 A  
DOCKED: ENDBRANCH   2  18
DOCKED: TORSDOF 5
DOCKED: TER
DOCKED: ENDMDL
________________________________________________________________________________


    FINAL DOCKED STATE:
    ________________________


Run:   139 / 512
Time taken for this run:   0.002s

DOCKED: MODEL        139
DOCKED: USER    Run = 139
DOCKED: USER
DOCKED: USER    Estimated Free Energy of Binding    =  -3.46 kcal/mol  [=(1)+(2)+(3)-(4)]
DOCKED: USER
DOCKED: USER    (1) Final Intermolecular Energy     =  -4.95 kcal/mol
DOCKED: USER        vdW + Hbond + desolv Energy     =  -4.95 kcal/mol
DOCKED: USER        Electrostatic Energy            =  +0.00 kcal/mol
DOCKED: USER        Moving Ligand-Fixed Receptor    =  -4.95 kcal/mol
DOCKED: USER        Moving Ligand-Moving Receptor   =  +0.00 kcal/mol
DOCKED: USER    (2) Final Total Internal Energy     =  -1.26 kcal/mol
DOCKED: USER    (3) Torsional Free Energy           =  +1.49 kcal/mol
DOCKED: USER    (4) Unbound System's Energy         =  -1.26 kcal/mol
DOCKED: USER
DOCKED: USER
DOCKED: REMARK  5 active torsions:
DOCKED: REMARK  status: ('A' for Active; 'I' for Inactive)
DOCKED: REMARK    1  A    between atoms: C_2  and  C_19 
DOCKED: REMARK    2  A    between atoms: C_2  and  C_11 
DOCKED: REMARK    3  A    between atoms: C_19  and  C_20 
DOCKED: REMARK    4  A    between atoms: C_20  and  C_21 
DOCKED: REMARK    5  A    between atoms: C_21  and  N_22 
DOCKED: USER                              x       y       z     vdW  Elec       q    Type
DOCKED: USER                           _______ _______ _______ _____ _____    ______ ____
DOCKED: ROOT
DOCKED: ATOM      1  O   UNL     1     -51.796 -28.924  -1.014 -0.02 -0.00    -0.346 OA 
DOCKED: ATOM      2  C   UNL     1     -51.601 -29.607  -2.293 -0.03 +0.00    +0.130 C  
DOCKED: ATOM      3  C   UNL     1     -52.695 -29.060  -3.164 -0.11 +0.00    +0.004 A  
DOCKED: ATOM      4  C   UNL     1     -53.386 -28.071  -2.480 -0.18 +0.00    +0.006 A  
DOCKED: ATOM      5  C   UNL     1     -52.799 -27.887  -1.133 -0.11 +0.00    +0.169 C  
DOCKED: ATOM      6  C   UNL     1     -53.043 -29.403  -4.462 -0.16 -0.00    -0.001 A  
DOCKED: ATOM      7  C   UNL     1     -54.445 -27.397  -3.063 -0.30 +0.00    +0.008 A  
DOCKED: ATOM      8  C   UNL     1     -54.112 -28.736  -5.063 -0.16 +0.00    +0.010 A  
DOCKED: ATOM      9  C   UNL     1     -54.809 -27.737  -4.366 -0.28 +0.00    +0.068 A  
DOCKED: ATOM     10  N   UNL     1     -56.785 -26.514  -5.512 -2.56 -0.00    -0.191 NA 
DOCKED: ATOM     11  C   UNL     1     -55.899 -27.063  -4.998 -0.35 +0.00    +0.101 C  
DOCKED: ENDROOT
DOCKED: BRANCH   2  12
DOCKED: ATOM     12  C   UNL     1     -50.207 -29.273  -2.811 -0.01 +0.00    +0.038 C  
DOCKED: BRANCH  12  13
DOCKED: ATOM     13  C   UNL     1     -50.178 -27.903  -3.487 -0.02 +0.00    +0.038 C  
DOCKED: BRANCH  13  14
DOCKED: ATOM     14  C   UNL     1     -49.935 -26.792  -2.468 -0.01 +0.00    +0.251 C  
DOCKED: BRANCH  14  15
DOCKED: ATOM     15  N   UNL     1     -49.088 -27.275  -1.384 -0.01 +0.00    +0.141 N  
DOCKED: ATOM     16  C   UNL     1     -47.736 -26.728  -1.503 +0.00 +0.00    +0.285 C  
DOCKED: ATOM     17  C   UNL     1     -49.664 -26.924  -0.084 -0.03 +0.00    +0.285 C  
DOCKED: ENDBRANCH  14  15
DOCKED: ENDBRANCH  13  14
DOCKED: ENDBRANCH  12  13
DOCKED: ENDBRANCH   2  12
DOCKED: BRANCH   2  18
DOCKED: ATOM     18  C   UNL     1     -51.741 -31.070  -2.033 -0.04 +0.00    +0.006 A  
DOCKED: ATOM     19  C   UNL     1     -52.834 -31.767  -2.546 -0.15 +0.00    +0.001 A  
DOCKED: ATOM     20  C   UNL     1     -52.965 -33.135  -2.301 -0.20 +0.00    +0.029 A  
DOCKED: ATOM     21  C   UNL     1     -52.003 -33.802  -1.544 -0.11 +0.00    +0.140 A  
DOCKED: ATOM     22  C   UNL     1     -50.910 -33.104  -1.032 -0.03 +0.00    +0.029 A  
DOCKED: ATOM     23  F   UNL     1     -52.127 -35.115  -1.311 -0.07 -0.00    -0.204 F  
DOCKED: ATOM     24  C   UNL     1     -50.778 -31.736  -1.276 -0.01 +0.00    +0.001 A  
DOCKED: ENDBRANCH   2  18
DOCKED: TORSDOF 5
DOCKED: TER
DOCKED: ENDMDL
________________________________________________________________________________


    FINAL DOCKED STATE:
    ________________________


Run:   140 / 512
Time taken for this run:   0.002s

DOCKED: MODEL        140
DOCKED: USER    Run = 140
DOCKED: USER
DOCKED: USER    Estimated Free Energy of Binding    =  -4.78 kcal/mol  [=(1)+(2)+(3)-(4)]
DOCKED: USER
DOCKED: USER    (1) Final Intermolecular Energy     =  -6.27 kcal/mol
DOCKED: USER        vdW + Hbond + desolv Energy     =  -6.27 kcal/mol
DOCKED: USER        Electrostatic Energy            =  +0.00 kcal/mol
DOCKED: USER        Moving Ligand-Fixed Receptor    =  -6.27 kcal/mol
DOCKED: USER        Moving Ligand-Moving Receptor   =  +0.00 kcal/mol
DOCKED: USER    (2) Final Total Internal Energy     =  -1.40 kcal/mol
DOCKED: USER    (3) Torsional Free Energy           =  +1.49 kcal/mol
DOCKED: USER    (4) Unbound System's Energy         =  -1.40 kcal/mol
DOCKED: USER
DOCKED: USER
DOCKED: REMARK  5 active torsions:
DOCKED: REMARK  status: ('A' for Active; 'I' for Inactive)
DOCKED: REMARK    1  A    between atoms: C_2  and  C_19 
DOCKED: REMARK    2  A    between atoms: C_2  and  C_11 
DOCKED: REMARK    3  A    between atoms: C_19  and  C_20 
DOCKED: REMARK    4  A    between atoms: C_20  and  C_21 
DOCKED: REMARK    5  A    between atoms: C_21  and  N_22 
DOCKED: USER                              x       y       z     vdW  Elec       q    Type
DOCKED: USER                           _______ _______ _______ _____ _____    ______ ____
DOCKED: ROOT
DOCKED: ATOM      1  O   UNL     1     -57.443 -33.653   6.700 -0.08 -0.00    -0.346 OA 
DOCKED: ATOM      2  C   UNL     1     -58.716 -33.883   7.384 -0.15 +0.00    +0.130 C  
DOCKED: ATOM      3  C   UNL     1     -59.064 -35.300   7.031 -0.22 +0.00    +0.004 A  
DOCKED: ATOM      4  C   UNL     1     -58.029 -35.867   6.301 -0.28 +0.00    +0.006 A  
DOCKED: ATOM      5  C   UNL     1     -56.934 -34.884   6.135 -0.10 +0.00    +0.169 C  
DOCKED: ATOM      6  C   UNL     1     -60.201 -36.032   7.340 -0.19 -0.00    -0.001 A  
DOCKED: ATOM      7  C   UNL     1     -58.094 -37.175   5.854 -0.33 +0.00    +0.008 A  
DOCKED: ATOM      8  C   UNL     1     -60.284 -37.352   6.892 -0.21 +0.00    +0.010 A  
DOCKED: ATOM      9  C   UNL     1     -59.236 -37.920   6.154 -0.27 +0.00    +0.068 A  
DOCKED: ATOM     10  N   UNL     1     -59.421 -40.374   5.342 -2.61 -0.00    -0.191 NA 
DOCKED: ATOM     11  C   UNL     1     -59.338 -39.273   5.706 -0.37 +0.00    +0.101 C  
DOCKED: ENDROOT
DOCKED: BRANCH   2  12
DOCKED: ATOM     12  C   UNL     1     -58.504 -33.679   8.880 -0.05 +0.00    +0.038 C  
DOCKED: BRANCH  12  13
DOCKED: ATOM     13  C   UNL     1     -58.142 -34.991   9.575 -0.04 +0.00    +0.038 C  
DOCKED: BRANCH  13  14
DOCKED: ATOM     14  C   UNL     1     -56.639 -35.252   9.506 -0.03 +0.00    +0.251 C  
DOCKED: BRANCH  14  15
DOCKED: ATOM     15  N   UNL     1     -56.371 -36.685   9.545 -0.08 +0.00    +0.141 N  
DOCKED: ATOM     16  C   UNL     1     -57.622 -37.444   9.534 -0.06 +0.00    +0.285 C  
DOCKED: ATOM     17  C   UNL     1     -55.526 -37.082   8.418 -0.13 +0.00    +0.285 C  
DOCKED: ENDBRANCH  14  15
DOCKED: ENDBRANCH  13  14
DOCKED: ENDBRANCH  12  13
DOCKED: ENDBRANCH   2  12
DOCKED: BRANCH   2  18
DOCKED: ATOM     18  C   UNL     1     -59.689 -32.891   6.839 -0.21 +0.00    +0.006 A  
DOCKED: ATOM     19  C   UNL     1     -61.053 -33.049   7.080 -0.21 +0.00    +0.001 A  
DOCKED: ATOM     20  C   UNL     1     -61.962 -32.121   6.569 -0.19 +0.00    +0.029 A  
DOCKED: ATOM     21  C   UNL     1     -61.506 -31.039   5.819 -0.10 +0.00    +0.140 A  
DOCKED: ATOM     22  C   UNL     1     -60.141 -30.882   5.578 -0.15 +0.00    +0.029 A  
DOCKED: ATOM     23  F   UNL     1     -62.378 -30.148   5.330 -0.02 -0.00    -0.204 F  
DOCKED: ATOM     24  C   UNL     1     -59.231 -31.809   6.088 -0.18 +0.00    +0.001 A  
DOCKED: ENDBRANCH   2  18
DOCKED: TORSDOF 5
DOCKED: TER
DOCKED: ENDMDL
________________________________________________________________________________


    FINAL DOCKED STATE:
    ________________________


Run:   141 / 512
Time taken for this run:   0.002s

DOCKED: MODEL        141
DOCKED: USER    Run = 141
DOCKED: USER
DOCKED: USER    Estimated Free Energy of Binding    =  -3.77 kcal/mol  [=(1)+(2)+(3)-(4)]
DOCKED: USER
DOCKED: USER    (1) Final Intermolecular Energy     =  -5.26 kcal/mol
DOCKED: USER        vdW + Hbond + desolv Energy     =  -5.26 kcal/mol
DOCKED: USER        Electrostatic Energy            =  +0.00 kcal/mol
DOCKED: USER        Moving Ligand-Fixed Receptor    =  -5.26 kcal/mol
DOCKED: USER        Moving Ligand-Moving Receptor   =  +0.00 kcal/mol
DOCKED: USER    (2) Final Total Internal Energy     =  -1.00 kcal/mol
DOCKED: USER    (3) Torsional Free Energy           =  +1.49 kcal/mol
DOCKED: USER    (4) Unbound System's Energy         =  -1.00 kcal/mol
DOCKED: USER
DOCKED: USER
DOCKED: REMARK  5 active torsions:
DOCKED: REMARK  status: ('A' for Active; 'I' for Inactive)
DOCKED: REMARK    1  A    between atoms: C_2  and  C_19 
DOCKED: REMARK    2  A    between atoms: C_2  and  C_11 
DOCKED: REMARK    3  A    between atoms: C_19  and  C_20 
DOCKED: REMARK    4  A    between atoms: C_20  and  C_21 
DOCKED: REMARK    5  A    between atoms: C_21  and  N_22 
DOCKED: USER                              x       y       z     vdW  Elec       q    Type
DOCKED: USER                           _______ _______ _______ _____ _____    ______ ____
DOCKED: ROOT
DOCKED: ATOM      1  O   UNL     1     -55.471 -28.042  -2.631 -0.14 -0.00    -0.346 OA 
DOCKED: ATOM      2  C   UNL     1     -54.018 -28.045  -2.810 -0.22 +0.00    +0.130 C  
DOCKED: ATOM      3  C   UNL     1     -53.829 -27.576  -4.224 -0.24 +0.00    +0.004 A  
DOCKED: ATOM      4  C   UNL     1     -55.057 -27.229  -4.769 -0.40 +0.00    +0.006 A  
DOCKED: ATOM      5  C   UNL     1     -56.127 -27.429  -3.765 -0.36 +0.00    +0.169 C  
DOCKED: ATOM      6  C   UNL     1     -52.662 -27.455  -4.964 -0.14 -0.00    -0.001 A  
DOCKED: ATOM      7  C   UNL     1     -55.162 -26.756  -6.065 -0.28 +0.00    +0.008 A  
DOCKED: ATOM      8  C   UNL     1     -52.752 -26.984  -6.275 -0.18 +0.00    +0.010 A  
DOCKED: ATOM      9  C   UNL     1     -53.996 -26.636  -6.822 -0.21 +0.00    +0.068 A  
DOCKED: ATOM     10  N   UNL     1     -54.127 -25.760  -9.257 -1.15 -0.00    -0.191 NA 
DOCKED: ATOM     11  C   UNL     1     -54.068 -26.154  -8.165 -0.11 +0.00    +0.101 C  
DOCKED: ENDROOT
DOCKED: BRANCH   2  12
DOCKED: ATOM     12  C   UNL     1     -53.403 -27.101  -1.784 -0.11 +0.00    +0.038 C  
DOCKED: BRANCH  12  13
DOCKED: ATOM     13  C   UNL     1     -53.410 -25.657  -2.281 -0.28 +0.00    +0.038 C  
DOCKED: BRANCH  13  14
DOCKED: ATOM     14  C   UNL     1     -52.206 -24.885  -1.745 -0.15 +0.00    +0.251 C  
DOCKED: BRANCH  14  15
DOCKED: ATOM     15  N   UNL     1     -52.589 -23.519  -1.407 -0.19 +0.00    +0.141 N  
DOCKED: ATOM     16  C   UNL     1     -53.939 -23.487  -0.840 -0.20 +0.00    +0.285 C  
DOCKED: ATOM     17  C   UNL     1     -51.631 -22.932  -0.469 -0.08 +0.00    +0.285 C  
DOCKED: ENDBRANCH  14  15
DOCKED: ENDBRANCH  13  14
DOCKED: ENDBRANCH  12  13
DOCKED: ENDBRANCH   2  12
DOCKED: BRANCH   2  18
DOCKED: ATOM     18  C   UNL     1     -53.556 -29.448  -2.596 -0.18 +0.00    +0.006 A  
DOCKED: ATOM     19  C   UNL     1     -54.482 -30.452  -2.319 -0.17 +0.00    +0.001 A  
DOCKED: ATOM     20  C   UNL     1     -54.048 -31.763  -2.118 -0.22 +0.00    +0.029 A  
DOCKED: ATOM     21  C   UNL     1     -52.690 -32.068  -2.196 -0.11 +0.00    +0.140 A  
DOCKED: ATOM     22  C   UNL     1     -51.764 -31.063  -2.474 -0.04 +0.00    +0.029 A  
DOCKED: ATOM     23  F   UNL     1     -52.274 -33.327  -2.006 -0.04 -0.00    -0.204 F  
DOCKED: ATOM     24  C   UNL     1     -52.197 -29.751  -2.674 -0.07 +0.00    +0.001 A  
DOCKED: ENDBRANCH   2  18
DOCKED: TORSDOF 5
DOCKED: TER
DOCKED: ENDMDL
________________________________________________________________________________


    FINAL DOCKED STATE:
    ________________________


Run:   142 / 512
Time taken for this run:   0.002s

DOCKED: MODEL        142
DOCKED: USER    Run = 142
DOCKED: USER
DOCKED: USER    Estimated Free Energy of Binding    =  -4.18 kcal/mol  [=(1)+(2)+(3)-(4)]
DOCKED: USER
DOCKED: USER    (1) Final Intermolecular Energy     =  -5.67 kcal/mol
DOCKED: USER        vdW + Hbond + desolv Energy     =  -5.67 kcal/mol
DOCKED: USER        Electrostatic Energy            =  +0.00 kcal/mol
DOCKED: USER        Moving Ligand-Fixed Receptor    =  -5.67 kcal/mol
DOCKED: USER        Moving Ligand-Moving Receptor   =  +0.00 kcal/mol
DOCKED: USER    (2) Final Total Internal Energy     =  -1.49 kcal/mol
DOCKED: USER    (3) Torsional Free Energy           =  +1.49 kcal/mol
DOCKED: USER    (4) Unbound System's Energy         =  -1.49 kcal/mol
DOCKED: USER
DOCKED: USER
DOCKED: REMARK  5 active torsions:
DOCKED: REMARK  status: ('A' for Active; 'I' for Inactive)
DOCKED: REMARK    1  A    between atoms: C_2  and  C_19 
DOCKED: REMARK    2  A    between atoms: C_2  and  C_11 
DOCKED: REMARK    3  A    between atoms: C_19  and  C_20 
DOCKED: REMARK    4  A    between atoms: C_20  and  C_21 
DOCKED: REMARK    5  A    between atoms: C_21  and  N_22 
DOCKED: USER                              x       y       z     vdW  Elec       q    Type
DOCKED: USER                           _______ _______ _______ _____ _____    ______ ____
DOCKED: ROOT
DOCKED: ATOM      1  O   UNL     1     -55.434 -35.811   8.976 -0.05 -0.00    -0.346 OA 
DOCKED: ATOM      2  C   UNL     1     -56.091 -35.010   7.942 -0.12 +0.00    +0.130 C  
DOCKED: ATOM      3  C   UNL     1     -56.962 -35.998   7.221 -0.22 +0.00    +0.004 A  
DOCKED: ATOM      4  C   UNL     1     -56.893 -37.231   7.855 -0.24 +0.00    +0.006 A  
DOCKED: ATOM      5  C   UNL     1     -55.997 -37.142   9.029 -0.14 +0.00    +0.169 C  
DOCKED: ATOM      6  C   UNL     1     -57.759 -35.818   6.101 -0.25 -0.00    -0.001 A  
DOCKED: ATOM      7  C   UNL     1     -57.611 -38.320   7.392 -0.31 +0.00    +0.008 A  
DOCKED: ATOM      8  C   UNL     1     -58.486 -36.908   5.619 -0.32 +0.00    +0.010 A  
DOCKED: ATOM      9  C   UNL     1     -58.413 -38.153   6.262 -0.31 +0.00    +0.068 A  
DOCKED: ATOM     10  N   UNL     1     -59.779 -40.154   5.345 -2.56 -0.00    -0.191 NA 
DOCKED: ATOM     11  C   UNL     1     -59.166 -39.257   5.756 -0.37 +0.00    +0.101 C  
DOCKED: ENDROOT
DOCKED: BRANCH   2  12
DOCKED: ATOM     12  C   UNL     1     -56.888 -33.904   8.623 -0.06 +0.00    +0.038 C  
DOCKED: BRANCH  12  13
DOCKED: ATOM     13  C   UNL     1     -56.297 -33.550   9.986 -0.02 +0.00    +0.038 C  
DOCKED: BRANCH  13  14
DOCKED: ATOM     14  C   UNL     1     -55.379 -32.333   9.889 -0.00 +0.00    +0.251 C  
DOCKED: BRANCH  14  15
DOCKED: ATOM     15  N   UNL     1     -54.093 -32.616  10.516 -0.00 +0.00    +0.141 N  
DOCKED: ATOM     16  C   UNL     1     -54.041 -34.002  10.983 -0.00 +0.00    +0.285 C  
DOCKED: ATOM     17  C   UNL     1     -52.996 -32.352   9.584 -0.00 +0.00    +0.285 C  
DOCKED: ENDBRANCH  14  15
DOCKED: ENDBRANCH  13  14
DOCKED: ENDBRANCH  12  13
DOCKED: ENDBRANCH   2  12
DOCKED: BRANCH   2  18
DOCKED: ATOM     18  C   UNL     1     -55.014 -34.445   7.077 -0.12 +0.00    +0.006 A  
DOCKED: ATOM     19  C   UNL     1     -55.343 -33.597   6.020 -0.16 +0.00    +0.001 A  
DOCKED: ATOM     20  C   UNL     1     -54.335 -33.069   5.212 -0.12 +0.00    +0.029 A  
DOCKED: ATOM     21  C   UNL     1     -53.001 -33.389   5.463 -0.07 +0.00    +0.140 A  
DOCKED: ATOM     22  C   UNL     1     -52.674 -34.236   6.520 -0.10 +0.00    +0.029 A  
DOCKED: ATOM     23  F   UNL     1     -52.034 -32.880   4.688 -0.00 -0.00    -0.204 F  
DOCKED: ATOM     24  C   UNL     1     -53.681 -34.766   7.329 -0.10 +0.00    +0.001 A  
DOCKED: ENDBRANCH   2  18
DOCKED: TORSDOF 5
DOCKED: TER
DOCKED: ENDMDL
________________________________________________________________________________


    FINAL DOCKED STATE:
    ________________________


Run:   143 / 512
Time taken for this run:   0.002s

DOCKED: MODEL        143
DOCKED: USER    Run = 143
DOCKED: USER
DOCKED: USER    Estimated Free Energy of Binding    =  -5.19 kcal/mol  [=(1)+(2)+(3)-(4)]
DOCKED: USER
DOCKED: USER    (1) Final Intermolecular Energy     =  -6.68 kcal/mol
DOCKED: USER        vdW + Hbond + desolv Energy     =  -6.68 kcal/mol
DOCKED: USER        Electrostatic Energy            =  +0.00 kcal/mol
DOCKED: USER        Moving Ligand-Fixed Receptor    =  -6.68 kcal/mol
DOCKED: USER        Moving Ligand-Moving Receptor   =  +0.00 kcal/mol
DOCKED: USER    (2) Final Total Internal Energy     =  -1.20 kcal/mol
DOCKED: USER    (3) Torsional Free Energy           =  +1.49 kcal/mol
DOCKED: USER    (4) Unbound System's Energy         =  -1.20 kcal/mol
DOCKED: USER
DOCKED: USER
DOCKED: REMARK  5 active torsions:
DOCKED: REMARK  status: ('A' for Active; 'I' for Inactive)
DOCKED: REMARK    1  A    between atoms: C_2  and  C_19 
DOCKED: REMARK    2  A    between atoms: C_2  and  C_11 
DOCKED: REMARK    3  A    between atoms: C_19  and  C_20 
DOCKED: REMARK    4  A    between atoms: C_20  and  C_21 
DOCKED: REMARK    5  A    between atoms: C_21  and  N_22 
DOCKED: USER                              x       y       z     vdW  Elec       q    Type
DOCKED: USER                           _______ _______ _______ _____ _____    ______ ____
DOCKED: ROOT
DOCKED: ATOM      1  O   UNL     1     -60.957 -37.044   8.303 -0.00 -0.00    -0.346 OA 
DOCKED: ATOM      2  C   UNL     1     -59.556 -36.775   7.975 -0.11 +0.00    +0.130 C  
DOCKED: ATOM      3  C   UNL     1     -59.414 -37.274   6.567 -0.26 +0.00    +0.004 A  
DOCKED: ATOM      4  C   UNL     1     -60.650 -37.690   6.092 -0.27 +0.00    +0.006 A  
DOCKED: ATOM      5  C   UNL     1     -61.682 -37.486   7.133 -0.17 +0.00    +0.169 C  
DOCKED: ATOM      6  C   UNL     1     -58.284 -37.345   5.766 -0.37 -0.00    -0.001 A  
DOCKED: ATOM      7  C   UNL     1     -60.798 -38.192   4.811 -0.29 +0.00    +0.008 A  
DOCKED: ATOM      8  C   UNL     1     -58.416 -37.852   4.472 -0.16 +0.00    +0.010 A  
DOCKED: ATOM      9  C   UNL     1     -59.667 -38.273   3.997 -0.36 +0.00    +0.068 A  
DOCKED: ATOM     10  N   UNL     1     -59.878 -39.206   1.589 -2.71 -0.00    -0.191 NA 
DOCKED: ATOM     11  C   UNL     1     -59.784 -38.788   2.669 -0.28 +0.00    +0.101 C  
DOCKED: ENDROOT
DOCKED: BRANCH   2  12
DOCKED: ATOM     12  C   UNL     1     -59.310 -35.276   8.101 -0.13 +0.00    +0.038 C  
DOCKED: BRANCH  12  13
DOCKED: ATOM     13  C   UNL     1     -59.469 -34.571   6.755 -0.24 +0.00    +0.038 C  
DOCKED: BRANCH  13  14
DOCKED: ATOM     14  C   UNL     1     -60.932 -34.222   6.487 -0.10 +0.00    +0.251 C  
DOCKED: BRANCH  14  15
DOCKED: ATOM     15  N   UNL     1     -61.352 -33.112   7.333 -0.14 +0.00    +0.141 N  
DOCKED: ATOM     16  C   UNL     1     -61.913 -32.029   6.523 -0.12 +0.00    +0.285 C  
DOCKED: ATOM     17  C   UNL     1     -62.330 -33.562   8.326 -0.04 +0.00    +0.285 C  
DOCKED: ENDBRANCH  14  15
DOCKED: ENDBRANCH  13  14
DOCKED: ENDBRANCH  12  13
DOCKED: ENDBRANCH   2  12
DOCKED: BRANCH   2  18
DOCKED: ATOM     18  C   UNL     1     -58.725 -37.540   8.950 -0.12 +0.00    +0.006 A  
DOCKED: ATOM     19  C   UNL     1     -57.401 -37.166   9.181 -0.13 +0.00    +0.001 A  
DOCKED: ATOM     20  C   UNL     1     -56.625 -37.883  10.093 -0.13 +0.00    +0.029 A  
DOCKED: ATOM     21  C   UNL     1     -57.173 -38.970  10.772 -0.14 +0.00    +0.140 A  
DOCKED: ATOM     22  C   UNL     1     -58.497 -39.343  10.541 -0.18 +0.00    +0.029 A  
DOCKED: ATOM     23  F   UNL     1     -56.428 -39.657  11.649 -0.07 -0.00    -0.204 F  
DOCKED: ATOM     24  C   UNL     1     -59.274 -38.627   9.629 -0.17 +0.00    +0.001 A  
DOCKED: ENDBRANCH   2  18
DOCKED: TORSDOF 5
DOCKED: TER
DOCKED: ENDMDL
________________________________________________________________________________


    FINAL DOCKED STATE:
    ________________________


Run:   144 / 512
Time taken for this run:   0.002s

DOCKED: MODEL        144
DOCKED: USER    Run = 144
DOCKED: USER
DOCKED: USER    Estimated Free Energy of Binding    =  -3.90 kcal/mol  [=(1)+(2)+(3)-(4)]
DOCKED: USER
DOCKED: USER    (1) Final Intermolecular Energy     =  -5.39 kcal/mol
DOCKED: USER        vdW + Hbond + desolv Energy     =  -5.39 kcal/mol
DOCKED: USER        Electrostatic Energy            =  +0.00 kcal/mol
DOCKED: USER        Moving Ligand-Fixed Receptor    =  -5.39 kcal/mol
DOCKED: USER        Moving Ligand-Moving Receptor   =  +0.00 kcal/mol
DOCKED: USER    (2) Final Total Internal Energy     =  -1.13 kcal/mol
DOCKED: USER    (3) Torsional Free Energy           =  +1.49 kcal/mol
DOCKED: USER    (4) Unbound System's Energy         =  -1.13 kcal/mol
DOCKED: USER
DOCKED: USER
DOCKED: REMARK  5 active torsions:
DOCKED: REMARK  status: ('A' for Active; 'I' for Inactive)
DOCKED: REMARK    1  A    between atoms: C_2  and  C_19 
DOCKED: REMARK    2  A    between atoms: C_2  and  C_11 
DOCKED: REMARK    3  A    between atoms: C_19  and  C_20 
DOCKED: REMARK    4  A    between atoms: C_20  and  C_21 
DOCKED: REMARK    5  A    between atoms: C_21  and  N_22 
DOCKED: USER                              x       y       z     vdW  Elec       q    Type
DOCKED: USER                           _______ _______ _______ _____ _____    ______ ____
DOCKED: ROOT
DOCKED: ATOM      1  O   UNL     1     -57.622 -34.320   8.069 -0.02 -0.00    -0.346 OA 
DOCKED: ATOM      2  C   UNL     1     -56.522 -35.280   8.171 -0.12 +0.00    +0.130 C  
DOCKED: ATOM      3  C   UNL     1     -57.067 -36.520   7.523 -0.22 +0.00    +0.004 A  
DOCKED: ATOM      4  C   UNL     1     -58.325 -36.259   6.998 -0.25 +0.00    +0.006 A  
DOCKED: ATOM      5  C   UNL     1     -58.689 -34.846   7.247 -0.17 +0.00    +0.169 C  
DOCKED: ATOM      6  C   UNL     1     -56.491 -37.776   7.398 -0.23 -0.00    -0.001 A  
DOCKED: ATOM      7  C   UNL     1     -59.048 -37.238   6.338 -0.30 +0.00    +0.008 A  
DOCKED: ATOM      8  C   UNL     1     -57.209 -38.775   6.739 -0.37 +0.00    +0.010 A  
DOCKED: ATOM      9  C   UNL     1     -58.481 -38.507   6.211 -0.32 +0.00    +0.068 A  
DOCKED: ATOM     10  N   UNL     1     -59.786 -40.383   4.990 -2.37 -0.00    -0.191 NA 
DOCKED: ATOM     11  C   UNL     1     -59.201 -39.541   5.538 -0.32 +0.00    +0.101 C  
DOCKED: ENDROOT
DOCKED: BRANCH   2  12
DOCKED: ATOM     12  C   UNL     1     -55.314 -34.710   7.438 -0.14 +0.00    +0.038 C  
DOCKED: BRANCH  12  13
DOCKED: ATOM     13  C   UNL     1     -55.721 -34.045   6.124 -0.17 +0.00    +0.038 C  
DOCKED: BRANCH  13  14
DOCKED: ATOM     14  C   UNL     1     -55.938 -32.545   6.312 -0.09 +0.00    +0.251 C  
DOCKED: BRANCH  14  15
DOCKED: ATOM     15  N   UNL     1     -54.702 -31.818   6.048 -0.04 +0.00    +0.141 N  
DOCKED: ATOM     16  C   UNL     1     -53.900 -31.704   7.268 -0.01 +0.00    +0.285 C  
DOCKED: ATOM     17  C   UNL     1     -53.931 -32.477   4.993 -0.06 +0.00    +0.285 C  
DOCKED: ENDBRANCH  14  15
DOCKED: ENDBRANCH  13  14
DOCKED: ENDBRANCH  12  13
DOCKED: ENDBRANCH   2  12
DOCKED: BRANCH   2  18
DOCKED: ATOM     18  C   UNL     1     -56.234 -35.462   9.624 -0.06 +0.00    +0.006 A  
DOCKED: ATOM     19  C   UNL     1     -57.107 -36.203  10.419 -0.05 +0.00    +0.001 A  
DOCKED: ATOM     20  C   UNL     1     -56.837 -36.371  11.778 -0.03 +0.00    +0.029 A  
DOCKED: ATOM     21  C   UNL     1     -55.696 -35.800  12.338 -0.01 +0.00    +0.140 A  
DOCKED: ATOM     22  C   UNL     1     -54.823 -35.059  11.542 -0.01 +0.00    +0.029 A  
DOCKED: ATOM     23  F   UNL     1     -55.436 -35.964  13.642 +0.00 -0.00    -0.204 F  
DOCKED: ATOM     24  C   UNL     1     -55.092 -34.890  10.183 -0.03 +0.00    +0.001 A  
DOCKED: ENDBRANCH   2  18
DOCKED: TORSDOF 5
DOCKED: TER
DOCKED: ENDMDL
________________________________________________________________________________


    FINAL DOCKED STATE:
    ________________________


Run:   145 / 512
Time taken for this run:   0.002s

DOCKED: MODEL        145
DOCKED: USER    Run = 145
DOCKED: USER
DOCKED: USER    Estimated Free Energy of Binding    =  -4.14 kcal/mol  [=(1)+(2)+(3)-(4)]
DOCKED: USER
DOCKED: USER    (1) Final Intermolecular Energy     =  -5.63 kcal/mol
DOCKED: USER        vdW + Hbond + desolv Energy     =  -5.63 kcal/mol
DOCKED: USER        Electrostatic Energy            =  +0.00 kcal/mol
DOCKED: USER        Moving Ligand-Fixed Receptor    =  -5.63 kcal/mol
DOCKED: USER        Moving Ligand-Moving Receptor   =  +0.00 kcal/mol
DOCKED: USER    (2) Final Total Internal Energy     =  -1.10 kcal/mol
DOCKED: USER    (3) Torsional Free Energy           =  +1.49 kcal/mol
DOCKED: USER    (4) Unbound System's Energy         =  -1.10 kcal/mol
DOCKED: USER
DOCKED: USER
DOCKED: REMARK  5 active torsions:
DOCKED: REMARK  status: ('A' for Active; 'I' for Inactive)
DOCKED: REMARK    1  A    between atoms: C_2  and  C_19 
DOCKED: REMARK    2  A    between atoms: C_2  and  C_11 
DOCKED: REMARK    3  A    between atoms: C_19  and  C_20 
DOCKED: REMARK    4  A    between atoms: C_20  and  C_21 
DOCKED: REMARK    5  A    between atoms: C_21  and  N_22 
DOCKED: USER                              x       y       z     vdW  Elec       q    Type
DOCKED: USER                           _______ _______ _______ _____ _____    ______ ____
DOCKED: ROOT
DOCKED: ATOM      1  O   UNL     1     -58.873 -33.507   7.180 -0.08 -0.00    -0.346 OA 
DOCKED: ATOM      2  C   UNL     1     -57.565 -34.158   7.255 -0.16 +0.00    +0.130 C  
DOCKED: ATOM      3  C   UNL     1     -57.851 -35.583   6.876 -0.25 +0.00    +0.004 A  
DOCKED: ATOM      4  C   UNL     1     -59.183 -35.710   6.510 -0.24 +0.00    +0.006 A  
DOCKED: ATOM      5  C   UNL     1     -59.859 -34.397   6.607 -0.16 +0.00    +0.169 C  
DOCKED: ATOM      6  C   UNL     1     -56.997 -36.676   6.847 -0.20 -0.00    -0.001 A  
DOCKED: ATOM      7  C   UNL     1     -59.707 -36.928   6.110 -0.24 +0.00    +0.008 A  
DOCKED: ATOM      8  C   UNL     1     -57.511 -37.911   6.449 -0.33 +0.00    +0.010 A  
DOCKED: ATOM      9  C   UNL     1     -58.860 -38.036   6.082 -0.30 +0.00    +0.068 A  
DOCKED: ATOM     10  N   UNL     1     -59.781 -40.342   5.343 -2.55 -0.00    -0.191 NA 
DOCKED: ATOM     11  C   UNL     1     -59.368 -39.308   5.675 -0.36 +0.00    +0.101 C  
DOCKED: ENDROOT
DOCKED: BRANCH   2  12
DOCKED: ATOM     12  C   UNL     1     -56.623 -33.463   6.279 -0.15 +0.00    +0.038 C  
DOCKED: BRANCH  12  13
DOCKED: ATOM     13  C   UNL     1     -56.877 -31.957   6.238 -0.12 +0.00    +0.038 C  
DOCKED: BRANCH  13  14
DOCKED: ATOM     14  C   UNL     1     -56.441 -31.363   4.900 -0.05 +0.00    +0.251 C  
DOCKED: BRANCH  14  15
DOCKED: ATOM     15  N   UNL     1     -57.468 -30.467   4.384 -0.11 +0.00    +0.141 N  
DOCKED: ATOM     16  C   UNL     1     -58.738 -30.681   5.080 -0.11 +0.00    +0.285 C  
DOCKED: ATOM     17  C   UNL     1     -57.048 -29.070   4.514 -0.06 +0.00    +0.285 C  
DOCKED: ENDBRANCH  14  15
DOCKED: ENDBRANCH  13  14
DOCKED: ENDBRANCH  12  13
DOCKED: ENDBRANCH   2  12
DOCKED: BRANCH   2  18
DOCKED: ATOM     18  C   UNL     1     -57.085 -34.015   8.660 -0.06 +0.00    +0.006 A  
DOCKED: ATOM     19  C   UNL     1     -55.830 -34.502   9.021 -0.06 +0.00    +0.001 A  
DOCKED: ATOM     20  C   UNL     1     -55.383 -34.368  10.336 -0.02 +0.00    +0.029 A  
DOCKED: ATOM     21  C   UNL     1     -56.191 -33.747  11.287 -0.00 +0.00    +0.140 A  
DOCKED: ATOM     22  C   UNL     1     -57.446 -33.260  10.926 -0.00 +0.00    +0.029 A  
DOCKED: ATOM     23  F   UNL     1     -55.760 -33.617  12.549 +0.00 -0.00    -0.204 F  
DOCKED: ATOM     24  C   UNL     1     -57.895 -33.394   9.611 -0.02 +0.00    +0.001 A  
DOCKED: ENDBRANCH   2  18
DOCKED: TORSDOF 5
DOCKED: TER
DOCKED: ENDMDL
________________________________________________________________________________


    FINAL DOCKED STATE:
    ________________________


Run:   146 / 512
Time taken for this run:   0.002s

DOCKED: MODEL        146
DOCKED: USER    Run = 146
DOCKED: USER
DOCKED: USER    Estimated Free Energy of Binding    =  -3.93 kcal/mol  [=(1)+(2)+(3)-(4)]
DOCKED: USER
DOCKED: USER    (1) Final Intermolecular Energy     =  -5.42 kcal/mol
DOCKED: USER        vdW + Hbond + desolv Energy     =  -5.42 kcal/mol
DOCKED: USER        Electrostatic Energy            =  +0.00 kcal/mol
DOCKED: USER        Moving Ligand-Fixed Receptor    =  -5.42 kcal/mol
DOCKED: USER        Moving Ligand-Moving Receptor   =  +0.00 kcal/mol
DOCKED: USER    (2) Final Total Internal Energy     =  -1.51 kcal/mol
DOCKED: USER    (3) Torsional Free Energy           =  +1.49 kcal/mol
DOCKED: USER    (4) Unbound System's Energy         =  -1.51 kcal/mol
DOCKED: USER
DOCKED: USER
DOCKED: REMARK  5 active torsions:
DOCKED: REMARK  status: ('A' for Active; 'I' for Inactive)
DOCKED: REMARK    1  A    between atoms: C_2  and  C_19 
DOCKED: REMARK    2  A    between atoms: C_2  and  C_11 
DOCKED: REMARK    3  A    between atoms: C_19  and  C_20 
DOCKED: REMARK    4  A    between atoms: C_20  and  C_21 
DOCKED: REMARK    5  A    between atoms: C_21  and  N_22 
DOCKED: USER                              x       y       z     vdW  Elec       q    Type
DOCKED: USER                           _______ _______ _______ _____ _____    ______ ____
DOCKED: ROOT
DOCKED: ATOM      1  O   UNL     1     -49.947 -34.893   0.522 +0.01 -0.00    -0.346 OA 
DOCKED: ATOM      2  C   UNL     1     -51.408 -34.891   0.440 -0.09 +0.00    +0.130 C  
DOCKED: ATOM      3  C   UNL     1     -51.809 -36.157   1.140 -0.18 +0.00    +0.004 A  
DOCKED: ATOM      4  C   UNL     1     -50.685 -36.773   1.671 -0.10 +0.00    +0.006 A  
DOCKED: ATOM      5  C   UNL     1     -49.482 -35.963   1.376 -0.02 +0.00    +0.169 C  
DOCKED: ATOM      6  C   UNL     1     -53.069 -36.714   1.303 -0.28 -0.00    -0.001 A  
DOCKED: ATOM      7  C   UNL     1     -50.779 -37.961   2.376 -0.17 +0.00    +0.008 A  
DOCKED: ATOM      8  C   UNL     1     -53.180 -37.914   2.007 -0.11 +0.00    +0.010 A  
DOCKED: ATOM      9  C   UNL     1     -52.041 -38.534   2.541 -0.30 +0.00    +0.068 A  
DOCKED: ATOM     10  N   UNL     1     -52.283 -40.759   3.847 -2.55 -0.00    -0.191 NA 
DOCKED: ATOM     11  C   UNL     1     -52.174 -39.761   3.261 -0.33 +0.00    +0.101 C  
DOCKED: ENDROOT
DOCKED: BRANCH   2  12
DOCKED: ATOM     12  C   UNL     1     -51.929 -33.638   1.136 -0.07 +0.00    +0.038 C  
DOCKED: BRANCH  12  13
DOCKED: ATOM     13  C   UNL     1     -50.881 -33.048   2.077 -0.02 +0.00    +0.038 C  
DOCKED: BRANCH  13  14
DOCKED: ATOM     14  C   UNL     1     -50.067 -31.960   1.379 -0.00 +0.00    +0.251 C  
DOCKED: BRANCH  14  15
DOCKED: ATOM     15  N   UNL     1     -50.239 -32.046  -0.066 -0.00 +0.00    +0.141 N  
DOCKED: ATOM     16  C   UNL     1     -50.940 -30.865  -0.573 -0.01 +0.00    +0.285 C  
DOCKED: ATOM     17  C   UNL     1     -48.944 -32.192  -0.733 -0.00 +0.00    +0.285 C  
DOCKED: ENDBRANCH  14  15
DOCKED: ENDBRANCH  13  14
DOCKED: ENDBRANCH  12  13
DOCKED: ENDBRANCH   2  12
DOCKED: BRANCH   2  18
DOCKED: ATOM     18  C   UNL     1     -51.765 -34.889  -1.009 -0.15 +0.00    +0.006 A  
DOCKED: ATOM     19  C   UNL     1     -52.703 -33.979  -1.494 -0.20 +0.00    +0.001 A  
DOCKED: ATOM     20  C   UNL     1     -53.036 -33.979  -2.850 -0.24 +0.00    +0.029 A  
DOCKED: ATOM     21  C   UNL     1     -52.430 -34.887  -3.717 -0.21 +0.00    +0.140 A  
DOCKED: ATOM     22  C   UNL     1     -51.491 -35.797  -3.230 -0.17 +0.00    +0.029 A  
DOCKED: ATOM     23  F   UNL     1     -52.748 -34.885  -5.018 -0.10 -0.00    -0.204 F  
DOCKED: ATOM     24  C   UNL     1     -51.158 -35.798  -1.874 -0.13 +0.00    +0.001 A  
DOCKED: ENDBRANCH   2  18
DOCKED: TORSDOF 5
DOCKED: TER
DOCKED: ENDMDL
________________________________________________________________________________


    FINAL DOCKED STATE:
    ________________________


Run:   147 / 512
Time taken for this run:   0.002s

DOCKED: MODEL        147
DOCKED: USER    Run = 147
DOCKED: USER
DOCKED: USER    Estimated Free Energy of Binding    =  -3.83 kcal/mol  [=(1)+(2)+(3)-(4)]
DOCKED: USER
DOCKED: USER    (1) Final Intermolecular Energy     =  -5.32 kcal/mol
DOCKED: USER        vdW + Hbond + desolv Energy     =  -5.32 kcal/mol
DOCKED: USER        Electrostatic Energy            =  +0.00 kcal/mol
DOCKED: USER        Moving Ligand-Fixed Receptor    =  -5.32 kcal/mol
DOCKED: USER        Moving Ligand-Moving Receptor   =  +0.00 kcal/mol
DOCKED: USER    (2) Final Total Internal Energy     =  -1.40 kcal/mol
DOCKED: USER    (3) Torsional Free Energy           =  +1.49 kcal/mol
DOCKED: USER    (4) Unbound System's Energy         =  -1.40 kcal/mol
DOCKED: USER
DOCKED: USER
DOCKED: REMARK  5 active torsions:
DOCKED: REMARK  status: ('A' for Active; 'I' for Inactive)
DOCKED: REMARK    1  A    between atoms: C_2  and  C_19 
DOCKED: REMARK    2  A    between atoms: C_2  and  C_11 
DOCKED: REMARK    3  A    between atoms: C_19  and  C_20 
DOCKED: REMARK    4  A    between atoms: C_20  and  C_21 
DOCKED: REMARK    5  A    between atoms: C_21  and  N_22 
DOCKED: USER                              x       y       z     vdW  Elec       q    Type
DOCKED: USER                           _______ _______ _______ _____ _____    ______ ____
DOCKED: ROOT
DOCKED: ATOM      1  O   UNL     1     -56.336 -34.318   7.917 -0.04 -0.00    -0.346 OA 
DOCKED: ATOM      2  C   UNL     1     -55.674 -35.510   8.449 -0.11 +0.00    +0.130 C  
DOCKED: ATOM      3  C   UNL     1     -56.468 -36.649   7.876 -0.21 +0.00    +0.004 A  
DOCKED: ATOM      4  C   UNL     1     -57.429 -36.156   7.005 -0.25 +0.00    +0.006 A  
DOCKED: ATOM      5  C   UNL     1     -57.331 -34.680   6.932 -0.18 +0.00    +0.169 C  
DOCKED: ATOM      6  C   UNL     1     -56.342 -38.012   8.099 -0.25 -0.00    -0.001 A  
DOCKED: ATOM      7  C   UNL     1     -58.295 -37.002   6.334 -0.32 +0.00    +0.008 A  
DOCKED: ATOM      8  C   UNL     1     -57.211 -38.878   7.433 -0.35 +0.00    +0.010 A  
DOCKED: ATOM      9  C   UNL     1     -58.182 -38.375   6.555 -0.31 +0.00    +0.068 A  
DOCKED: ATOM     10  N   UNL     1     -59.776 -40.011   5.331 -2.55 -0.00    -0.191 NA 
DOCKED: ATOM     11  C   UNL     1     -59.062 -39.277   5.881 -0.33 +0.00    +0.101 C  
DOCKED: ENDROOT
DOCKED: BRANCH   2  12
DOCKED: ATOM     12  C   UNL     1     -54.223 -35.505   7.984 -0.13 +0.00    +0.038 C  
DOCKED: BRANCH  12  13
DOCKED: ATOM     13  C   UNL     1     -53.969 -34.397   6.965 -0.11 +0.00    +0.038 C  
DOCKED: BRANCH  13  14
DOCKED: ATOM     14  C   UNL     1     -52.954 -33.385   7.494 -0.03 +0.00    +0.251 C  
DOCKED: BRANCH  14  15
DOCKED: ATOM     15  N   UNL     1     -53.501 -32.671   8.641 -0.01 +0.00    +0.141 N  
DOCKED: ATOM     16  C   UNL     1     -52.458 -31.890   9.308 -0.00 +0.00    +0.285 C  
DOCKED: ATOM     17  C   UNL     1     -54.601 -31.798   8.228 -0.01 +0.00    +0.285 C  
DOCKED: ENDBRANCH  14  15
DOCKED: ENDBRANCH  13  14
DOCKED: ENDBRANCH  12  13
DOCKED: ENDBRANCH   2  12
DOCKED: BRANCH   2  18
DOCKED: ATOM     18  C   UNL     1     -55.762 -35.431   9.937 -0.05 +0.00    +0.006 A  
DOCKED: ATOM     19  C   UNL     1     -54.691 -34.924  10.672 -0.02 +0.00    +0.001 A  
DOCKED: ATOM     20  C   UNL     1     -54.775 -34.850  12.063 -0.01 +0.00    +0.029 A  
DOCKED: ATOM     21  C   UNL     1     -55.929 -35.282  12.716 -0.00 +0.00    +0.140 A  
DOCKED: ATOM     22  C   UNL     1     -57.000 -35.788  11.980 -0.01 +0.00    +0.029 A  
DOCKED: ATOM     23  F   UNL     1     -56.010 -35.210  14.051 -0.00 -0.00    -0.204 F  
DOCKED: ATOM     24  C   UNL     1     -56.917 -35.863  10.589 -0.04 +0.00    +0.001 A  
DOCKED: ENDBRANCH   2  18
DOCKED: TORSDOF 5
DOCKED: TER
DOCKED: ENDMDL
________________________________________________________________________________


    FINAL DOCKED STATE:
    ________________________


Run:   148 / 512
Time taken for this run:   0.002s

DOCKED: MODEL        148
DOCKED: USER    Run = 148
DOCKED: USER
DOCKED: USER    Estimated Free Energy of Binding    =  -3.99 kcal/mol  [=(1)+(2)+(3)-(4)]
DOCKED: USER
DOCKED: USER    (1) Final Intermolecular Energy     =  -5.49 kcal/mol
DOCKED: USER        vdW + Hbond + desolv Energy     =  -5.49 kcal/mol
DOCKED: USER        Electrostatic Energy            =  +0.00 kcal/mol
DOCKED: USER        Moving Ligand-Fixed Receptor    =  -5.49 kcal/mol
DOCKED: USER        Moving Ligand-Moving Receptor   =  +0.00 kcal/mol
DOCKED: USER    (2) Final Total Internal Energy     =  -1.42 kcal/mol
DOCKED: USER    (3) Torsional Free Energy           =  +1.49 kcal/mol
DOCKED: USER    (4) Unbound System's Energy         =  -1.42 kcal/mol
DOCKED: USER
DOCKED: USER
DOCKED: REMARK  5 active torsions:
DOCKED: REMARK  status: ('A' for Active; 'I' for Inactive)
DOCKED: REMARK    1  A    between atoms: C_2  and  C_19 
DOCKED: REMARK    2  A    between atoms: C_2  and  C_11 
DOCKED: REMARK    3  A    between atoms: C_19  and  C_20 
DOCKED: REMARK    4  A    between atoms: C_20  and  C_21 
DOCKED: REMARK    5  A    between atoms: C_21  and  N_22 
DOCKED: USER                              x       y       z     vdW  Elec       q    Type
DOCKED: USER                           _______ _______ _______ _____ _____    ______ ____
DOCKED: ROOT
DOCKED: ATOM      1  O   UNL     1     -57.389 -35.030   9.585 -0.00 -0.00    -0.346 OA 
DOCKED: ATOM      2  C   UNL     1     -57.171 -34.607   8.201 -0.09 +0.00    +0.130 C  
DOCKED: ATOM      3  C   UNL     1     -57.680 -35.762   7.387 -0.21 +0.00    +0.004 A  
DOCKED: ATOM      4  C   UNL     1     -58.241 -36.713   8.227 -0.13 +0.00    +0.006 A  
DOCKED: ATOM      5  C   UNL     1     -58.155 -36.256   9.632 -0.04 +0.00    +0.169 C  
DOCKED: ATOM      6  C   UNL     1     -57.658 -35.949   6.013 -0.20 -0.00    -0.001 A  
DOCKED: ATOM      7  C   UNL     1     -58.792 -37.880   7.727 -0.19 +0.00    +0.008 A  
DOCKED: ATOM      8  C   UNL     1     -58.207 -37.123   5.493 -0.31 +0.00    +0.010 A  
DOCKED: ATOM      9  C   UNL     1     -58.771 -38.083   6.346 -0.28 +0.00    +0.068 A  
DOCKED: ATOM     10  N   UNL     1     -59.785 -40.249   5.349 -2.55 -0.00    -0.191 NA 
DOCKED: ATOM     11  C   UNL     1     -59.330 -39.278   5.796 -0.35 +0.00    +0.101 C  
DOCKED: ENDROOT
DOCKED: BRANCH   2  12
DOCKED: ATOM     12  C   UNL     1     -57.953 -33.321   7.960 -0.09 +0.00    +0.038 C  
DOCKED: BRANCH  12  13
DOCKED: ATOM     13  C   UNL     1     -59.051 -33.133   9.006 -0.04 +0.00    +0.038 C  
DOCKED: BRANCH  13  14
DOCKED: ATOM     14  C   UNL     1     -60.287 -33.962   8.660 -0.04 +0.00    +0.251 C  
DOCKED: BRANCH  14  15
DOCKED: ATOM     15  N   UNL     1     -60.458 -34.039   7.214 -0.18 +0.00    +0.141 N  
DOCKED: ATOM     16  C   UNL     1     -61.131 -35.283   6.840 -0.12 +0.00    +0.285 C  
DOCKED: ATOM     17  C   UNL     1     -61.213 -32.885   6.723 -0.14 +0.00    +0.285 C  
DOCKED: ENDBRANCH  14  15
DOCKED: ENDBRANCH  13  14
DOCKED: ENDBRANCH  12  13
DOCKED: ENDBRANCH   2  12
DOCKED: BRANCH   2  18
DOCKED: ATOM     18  C   UNL     1     -55.704 -34.383   8.039 -0.10 +0.00    +0.006 A  
DOCKED: ATOM     19  C   UNL     1     -54.797 -35.207   8.704 -0.10 +0.00    +0.001 A  
DOCKED: ATOM     20  C   UNL     1     -53.425 -34.996   8.552 -0.08 +0.00    +0.029 A  
DOCKED: ATOM     21  C   UNL     1     -52.965 -33.964   7.736 -0.05 +0.00    +0.140 A  
DOCKED: ATOM     22  C   UNL     1     -53.873 -33.141   7.071 -0.07 +0.00    +0.029 A  
DOCKED: ATOM     23  F   UNL     1     -51.649 -33.763   7.589 -0.00 -0.00    -0.204 F  
DOCKED: ATOM     24  C   UNL     1     -55.245 -33.350   7.223 -0.10 +0.00    +0.001 A  
DOCKED: ENDBRANCH   2  18
DOCKED: TORSDOF 5
DOCKED: TER
DOCKED: ENDMDL
________________________________________________________________________________


    FINAL DOCKED STATE:
    ________________________


Run:   149 / 512
Time taken for this run:   0.002s

DOCKED: MODEL        149
DOCKED: USER    Run = 149
DOCKED: USER
DOCKED: USER    Estimated Free Energy of Binding    =  -3.98 kcal/mol  [=(1)+(2)+(3)-(4)]
DOCKED: USER
DOCKED: USER    (1) Final Intermolecular Energy     =  -5.47 kcal/mol
DOCKED: USER        vdW + Hbond + desolv Energy     =  -5.47 kcal/mol
DOCKED: USER        Electrostatic Energy            =  +0.00 kcal/mol
DOCKED: USER        Moving Ligand-Fixed Receptor    =  -5.47 kcal/mol
DOCKED: USER        Moving Ligand-Moving Receptor   =  +0.00 kcal/mol
DOCKED: USER    (2) Final Total Internal Energy     =  -1.29 kcal/mol
DOCKED: USER    (3) Torsional Free Energy           =  +1.49 kcal/mol
DOCKED: USER    (4) Unbound System's Energy         =  -1.29 kcal/mol
DOCKED: USER
DOCKED: USER
DOCKED: REMARK  5 active torsions:
DOCKED: REMARK  status: ('A' for Active; 'I' for Inactive)
DOCKED: REMARK    1  A    between atoms: C_2  and  C_19 
DOCKED: REMARK    2  A    between atoms: C_2  and  C_11 
DOCKED: REMARK    3  A    between atoms: C_19  and  C_20 
DOCKED: REMARK    4  A    between atoms: C_20  and  C_21 
DOCKED: REMARK    5  A    between atoms: C_21  and  N_22 
DOCKED: USER                              x       y       z     vdW  Elec       q    Type
DOCKED: USER                           _______ _______ _______ _____ _____    ______ ____
DOCKED: ROOT
DOCKED: ATOM      1  O   UNL     1     -56.671 -36.965  10.426 -0.02 -0.00    -0.346 OA 
DOCKED: ATOM      2  C   UNL     1     -56.417 -36.182   9.216 -0.09 +0.00    +0.130 C  
DOCKED: ATOM      3  C   UNL     1     -57.084 -36.974   8.129 -0.20 +0.00    +0.004 A  
DOCKED: ATOM      4  C   UNL     1     -57.755 -38.055   8.683 -0.19 +0.00    +0.006 A  
DOCKED: ATOM      5  C   UNL     1     -57.592 -38.047  10.154 -0.11 +0.00    +0.169 C  
DOCKED: ATOM      6  C   UNL     1     -57.104 -36.749   6.760 -0.21 -0.00    -0.001 A  
DOCKED: ATOM      7  C   UNL     1     -58.461 -38.946   7.893 -0.27 +0.00    +0.008 A  
DOCKED: ATOM      8  C   UNL     1     -57.809 -37.641   5.950 -0.31 +0.00    +0.010 A  
DOCKED: ATOM      9  C   UNL     1     -58.484 -38.734   6.514 -0.30 +0.00    +0.068 A  
DOCKED: ATOM     10  N   UNL     1     -59.787 -40.368   4.982 -2.35 -0.00    -0.191 NA 
DOCKED: ATOM     11  C   UNL     1     -59.202 -39.635   5.669 -0.23 +0.00    +0.101 C  
DOCKED: ENDROOT
DOCKED: BRANCH   2  12
DOCKED: ATOM     12  C   UNL     1     -57.026 -34.797   9.400 -0.05 +0.00    +0.038 C  
DOCKED: BRANCH  12  13
DOCKED: ATOM     13  C   UNL     1     -58.536 -34.819   9.176 -0.05 +0.00    +0.038 C  
DOCKED: BRANCH  13  14
DOCKED: ATOM     14  C   UNL     1     -58.942 -33.850   8.067 -0.07 +0.00    +0.251 C  
DOCKED: BRANCH  14  15
DOCKED: ATOM     15  N   UNL     1     -60.318 -34.097   7.655 -0.12 +0.00    +0.141 N  
DOCKED: ATOM     16  C   UNL     1     -60.652 -33.309   6.468 -0.15 +0.00    +0.285 C  
DOCKED: ATOM     17  C   UNL     1     -60.530 -35.522   7.394 -0.11 +0.00    +0.285 C  
DOCKED: ENDBRANCH  14  15
DOCKED: ENDBRANCH  13  14
DOCKED: ENDBRANCH  12  13
DOCKED: ENDBRANCH   2  12
DOCKED: BRANCH   2  18
DOCKED: ATOM     18  C   UNL     1     -54.936 -36.102   9.052 -0.12 +0.00    +0.006 A  
DOCKED: ATOM     19  C   UNL     1     -54.305 -34.859   9.020 -0.07 +0.00    +0.001 A  
DOCKED: ATOM     20  C   UNL     1     -52.920 -34.785   8.866 -0.05 +0.00    +0.029 A  
DOCKED: ATOM     21  C   UNL     1     -52.168 -35.953   8.746 -0.06 +0.00    +0.140 A  
DOCKED: ATOM     22  C   UNL     1     -52.800 -37.196   8.779 -0.15 +0.00    +0.029 A  
DOCKED: ATOM     23  F   UNL     1     -50.839 -35.882   8.600 +0.00 -0.00    -0.204 F  
DOCKED: ATOM     24  C   UNL     1     -54.186 -37.271   8.932 -0.17 +0.00    +0.001 A  
DOCKED: ENDBRANCH   2  18
DOCKED: TORSDOF 5
DOCKED: TER
DOCKED: ENDMDL
________________________________________________________________________________


    FINAL DOCKED STATE:
    ________________________


Run:   150 / 512
Time taken for this run:   0.002s

DOCKED: MODEL        150
DOCKED: USER    Run = 150
DOCKED: USER
DOCKED: USER    Estimated Free Energy of Binding    =  -4.21 kcal/mol  [=(1)+(2)+(3)-(4)]
DOCKED: USER
DOCKED: USER    (1) Final Intermolecular Energy     =  -5.70 kcal/mol
DOCKED: USER        vdW + Hbond + desolv Energy     =  -5.70 kcal/mol
DOCKED: USER        Electrostatic Energy            =  +0.00 kcal/mol
DOCKED: USER        Moving Ligand-Fixed Receptor    =  -5.70 kcal/mol
DOCKED: USER        Moving Ligand-Moving Receptor   =  +0.00 kcal/mol
DOCKED: USER    (2) Final Total Internal Energy     =  -1.54 kcal/mol
DOCKED: USER    (3) Torsional Free Energy           =  +1.49 kcal/mol
DOCKED: USER    (4) Unbound System's Energy         =  -1.54 kcal/mol
DOCKED: USER
DOCKED: USER
DOCKED: REMARK  5 active torsions:
DOCKED: REMARK  status: ('A' for Active; 'I' for Inactive)
DOCKED: REMARK    1  A    between atoms: C_2  and  C_19 
DOCKED: REMARK    2  A    between atoms: C_2  and  C_11 
DOCKED: REMARK    3  A    between atoms: C_19  and  C_20 
DOCKED: REMARK    4  A    between atoms: C_20  and  C_21 
DOCKED: REMARK    5  A    between atoms: C_21  and  N_22 
DOCKED: USER                              x       y       z     vdW  Elec       q    Type
DOCKED: USER                           _______ _______ _______ _____ _____    ______ ____
DOCKED: ROOT
DOCKED: ATOM      1  O   UNL     1     -56.705 -33.976   7.518 -0.04 -0.00    -0.346 OA 
DOCKED: ATOM      2  C   UNL     1     -58.154 -33.782   7.587 -0.12 +0.00    +0.130 C  
DOCKED: ATOM      3  C   UNL     1     -58.715 -35.085   7.097 -0.21 +0.00    +0.004 A  
DOCKED: ATOM      4  C   UNL     1     -57.682 -35.984   6.873 -0.26 +0.00    +0.006 A  
DOCKED: ATOM      5  C   UNL     1     -56.386 -35.352   7.206 -0.16 +0.00    +0.169 C  
DOCKED: ATOM      6  C   UNL     1     -60.036 -35.450   6.877 -0.23 -0.00    -0.001 A  
DOCKED: ATOM      7  C   UNL     1     -57.930 -37.268   6.420 -0.33 +0.00    +0.008 A  
DOCKED: ATOM      8  C   UNL     1     -60.302 -36.740   6.417 -0.21 +0.00    +0.010 A  
DOCKED: ATOM      9  C   UNL     1     -59.254 -37.645   6.190 -0.26 +0.00    +0.068 A  
DOCKED: ATOM     10  N   UNL     1     -59.783 -40.035   5.340 -2.56 -0.00    -0.191 NA 
DOCKED: ATOM     11  C   UNL     1     -59.545 -38.963   5.721 -0.36 +0.00    +0.101 C  
DOCKED: ENDROOT
DOCKED: BRANCH   2  12
DOCKED: ATOM     12  C   UNL     1     -58.532 -33.479   9.032 -0.04 +0.00    +0.038 C  
DOCKED: BRANCH  12  13
DOCKED: ATOM     13  C   UNL     1     -57.304 -33.118   9.865 -0.02 +0.00    +0.038 C  
DOCKED: BRANCH  13  14
DOCKED: ATOM     14  C   UNL     1     -57.048 -31.612   9.843 -0.00 +0.00    +0.251 C  
DOCKED: BRANCH  14  15
DOCKED: ATOM     15  N   UNL     1     -56.163 -31.264   8.737 -0.01 +0.00    +0.141 N  
DOCKED: ATOM     16  C   UNL     1     -56.194 -29.823   8.485 -0.00 +0.00    +0.285 C  
DOCKED: ATOM     17  C   UNL     1     -54.794 -31.702   9.016 -0.00 +0.00    +0.285 C  
DOCKED: ENDBRANCH  14  15
DOCKED: ENDBRANCH  13  14
DOCKED: ENDBRANCH  12  13
DOCKED: ENDBRANCH   2  12
DOCKED: BRANCH   2  18
DOCKED: ATOM     18  C   UNL     1     -58.483 -32.633   6.693 -0.16 +0.00    +0.006 A  
DOCKED: ATOM     19  C   UNL     1     -59.794 -32.166   6.613 -0.19 +0.00    +0.001 A  
DOCKED: ATOM     20  C   UNL     1     -60.100 -31.092   5.776 -0.16 +0.00    +0.029 A  
DOCKED: ATOM     21  C   UNL     1     -59.096 -30.488   5.021 -0.13 +0.00    +0.140 A  
DOCKED: ATOM     22  C   UNL     1     -57.785 -30.956   5.102 -0.12 +0.00    +0.029 A  
DOCKED: ATOM     23  F   UNL     1     -59.390 -29.456   4.219 -0.02 -0.00    -0.204 F  
DOCKED: ATOM     24  C   UNL     1     -57.477 -32.030   5.938 -0.09 +0.00    +0.001 A  
DOCKED: ENDBRANCH   2  18
DOCKED: TORSDOF 5
DOCKED: TER
DOCKED: ENDMDL
________________________________________________________________________________


    FINAL DOCKED STATE:
    ________________________


Run:   151 / 512
Time taken for this run:   0.002s

DOCKED: MODEL        151
DOCKED: USER    Run = 151
DOCKED: USER
DOCKED: USER    Estimated Free Energy of Binding    =  -3.26 kcal/mol  [=(1)+(2)+(3)-(4)]
DOCKED: USER
DOCKED: USER    (1) Final Intermolecular Energy     =  -4.76 kcal/mol
DOCKED: USER        vdW + Hbond + desolv Energy     =  -4.76 kcal/mol
DOCKED: USER        Electrostatic Energy            =  +0.00 kcal/mol
DOCKED: USER        Moving Ligand-Fixed Receptor    =  -4.76 kcal/mol
DOCKED: USER        Moving Ligand-Moving Receptor   =  +0.00 kcal/mol
DOCKED: USER    (2) Final Total Internal Energy     =  -1.37 kcal/mol
DOCKED: USER    (3) Torsional Free Energy           =  +1.49 kcal/mol
DOCKED: USER    (4) Unbound System's Energy         =  -1.37 kcal/mol
DOCKED: USER
DOCKED: USER
DOCKED: REMARK  5 active torsions:
DOCKED: REMARK  status: ('A' for Active; 'I' for Inactive)
DOCKED: REMARK    1  A    between atoms: C_2  and  C_19 
DOCKED: REMARK    2  A    between atoms: C_2  and  C_11 
DOCKED: REMARK    3  A    between atoms: C_19  and  C_20 
DOCKED: REMARK    4  A    between atoms: C_20  and  C_21 
DOCKED: REMARK    5  A    between atoms: C_21  and  N_22 
DOCKED: USER                              x       y       z     vdW  Elec       q    Type
DOCKED: USER                           _______ _______ _______ _____ _____    ______ ____
DOCKED: ROOT
DOCKED: ATOM      1  O   UNL     1     -55.646 -31.343  -0.086 -0.09 -0.00    -0.346 OA 
DOCKED: ATOM      2  C   UNL     1     -55.453 -29.945   0.303 -0.24 +0.00    +0.130 C  
DOCKED: ATOM      3  C   UNL     1     -56.681 -29.622   1.104 -0.31 +0.00    +0.004 A  
DOCKED: ATOM      4  C   UNL     1     -57.455 -30.765   1.254 -0.25 +0.00    +0.006 A  
DOCKED: ATOM      5  C   UNL     1     -56.797 -31.908   0.584 -0.19 +0.00    +0.169 C  
DOCKED: ATOM      6  C   UNL     1     -57.076 -28.417   1.666 -0.28 -0.00    -0.001 A  
DOCKED: ATOM      7  C   UNL     1     -58.645 -30.742   1.961 -0.23 +0.00    +0.008 A  
DOCKED: ATOM      8  C   UNL     1     -58.276 -28.376   2.378 -0.29 +0.00    +0.010 A  
DOCKED: ATOM      9  C   UNL     1     -59.055 -29.533   2.526 -0.23 +0.00    +0.068 A  
DOCKED: ATOM     10  N   UNL     1     -61.274 -29.424   3.859 -0.12 -0.00    -0.191 NA 
DOCKED: ATOM     11  C   UNL     1     -60.280 -29.473   3.260 -0.26 +0.00    +0.101 C  
DOCKED: ENDROOT
DOCKED: BRANCH   2  12
DOCKED: ATOM     12  C   UNL     1     -54.169 -29.844   1.118 -0.17 +0.00    +0.038 C  
DOCKED: BRANCH  12  13
DOCKED: ATOM     13  C   UNL     1     -54.177 -30.821   2.292 -0.10 +0.00    +0.038 C  
DOCKED: BRANCH  13  14
DOCKED: ATOM     14  C   UNL     1     -54.007 -30.085   3.620 -0.06 +0.00    +0.251 C  
DOCKED: BRANCH  14  15
DOCKED: ATOM     15  N   UNL     1     -54.739 -30.772   4.678 -0.05 +0.00    +0.141 N  
DOCKED: ATOM     16  C   UNL     1     -56.151 -30.385   4.662 -0.05 +0.00    +0.285 C  
DOCKED: ATOM     17  C   UNL     1     -54.608 -32.223   4.537 -0.07 +0.00    +0.285 C  
DOCKED: ENDBRANCH  14  15
DOCKED: ENDBRANCH  13  14
DOCKED: ENDBRANCH  12  13
DOCKED: ENDBRANCH   2  12
DOCKED: BRANCH   2  18
DOCKED: ATOM     18  C   UNL     1     -55.355 -29.151  -0.957 -0.29 +0.00    +0.006 A  
DOCKED: ATOM     19  C   UNL     1     -54.105 -28.804  -1.466 -0.21 +0.00    +0.001 A  
DOCKED: ATOM     20  C   UNL     1     -54.014 -28.060  -2.643 -0.22 +0.00    +0.029 A  
DOCKED: ATOM     21  C   UNL     1     -55.174 -27.667  -3.310 -0.29 +0.00    +0.140 A  
DOCKED: ATOM     22  C   UNL     1     -56.424 -28.014  -2.800 -0.39 +0.00    +0.029 A  
DOCKED: ATOM     23  F   UNL     1     -55.087 -26.955  -4.441 -0.11 -0.00    -0.204 F  
DOCKED: ATOM     24  C   UNL     1     -56.516 -28.757  -1.622 -0.25 +0.00    +0.001 A  
DOCKED: ENDBRANCH   2  18
DOCKED: TORSDOF 5
DOCKED: TER
DOCKED: ENDMDL
________________________________________________________________________________


    FINAL DOCKED STATE:
    ________________________


Run:   152 / 512
Time taken for this run:   0.002s

DOCKED: MODEL        152
DOCKED: USER    Run = 152
DOCKED: USER
DOCKED: USER    Estimated Free Energy of Binding    =  -5.54 kcal/mol  [=(1)+(2)+(3)-(4)]
DOCKED: USER
DOCKED: USER    (1) Final Intermolecular Energy     =  -7.03 kcal/mol
DOCKED: USER        vdW + Hbond + desolv Energy     =  -7.03 kcal/mol
DOCKED: USER        Electrostatic Energy            =  +0.00 kcal/mol
DOCKED: USER        Moving Ligand-Fixed Receptor    =  -7.03 kcal/mol
DOCKED: USER        Moving Ligand-Moving Receptor   =  +0.00 kcal/mol
DOCKED: USER    (2) Final Total Internal Energy     =  -1.12 kcal/mol
DOCKED: USER    (3) Torsional Free Energy           =  +1.49 kcal/mol
DOCKED: USER    (4) Unbound System's Energy         =  -1.12 kcal/mol
DOCKED: USER
DOCKED: USER
DOCKED: REMARK  5 active torsions:
DOCKED: REMARK  status: ('A' for Active; 'I' for Inactive)
DOCKED: REMARK    1  A    between atoms: C_2  and  C_19 
DOCKED: REMARK    2  A    between atoms: C_2  and  C_11 
DOCKED: REMARK    3  A    between atoms: C_19  and  C_20 
DOCKED: REMARK    4  A    between atoms: C_20  and  C_21 
DOCKED: REMARK    5  A    between atoms: C_21  and  N_22 
DOCKED: USER                              x       y       z     vdW  Elec       q    Type
DOCKED: USER                           _______ _______ _______ _____ _____    ______ ____
DOCKED: ROOT
DOCKED: ATOM      1  O   UNL     1     -61.402 -37.776   8.430 -0.00 -0.00    -0.346 OA 
DOCKED: ATOM      2  C   UNL     1     -60.028 -37.310   8.239 -0.10 +0.00    +0.130 C  
DOCKED: ATOM      3  C   UNL     1     -59.767 -37.552   6.780 -0.23 +0.00    +0.004 A  
DOCKED: ATOM      4  C   UNL     1     -60.924 -38.012   6.168 -0.28 +0.00    +0.006 A  
DOCKED: ATOM      5  C   UNL     1     -62.019 -38.093   7.161 -0.16 +0.00    +0.169 C  
DOCKED: ATOM      6  C   UNL     1     -58.601 -37.369   6.051 -0.35 -0.00    -0.001 A  
DOCKED: ATOM      7  C   UNL     1     -60.956 -38.307   4.816 -0.29 +0.00    +0.008 A  
DOCKED: ATOM      8  C   UNL     1     -58.615 -37.667   4.687 -0.34 +0.00    +0.010 A  
DOCKED: ATOM      9  C   UNL     1     -59.787 -38.133   4.073 -0.31 +0.00    +0.068 A  
DOCKED: ATOM     10  N   UNL     1     -59.781 -38.671   1.539 -3.08 -0.00    -0.191 NA 
DOCKED: ATOM     11  C   UNL     1     -59.784 -38.430   2.676 -0.26 +0.00    +0.101 C  
DOCKED: ENDROOT
DOCKED: BRANCH   2  12
DOCKED: ATOM     12  C   UNL     1     -59.962 -35.835   8.617 -0.09 +0.00    +0.038 C  
DOCKED: BRANCH  12  13
DOCKED: ATOM     13  C   UNL     1     -61.336 -35.175   8.529 -0.11 +0.00    +0.038 C  
DOCKED: BRANCH  13  14
DOCKED: ATOM     14  C   UNL     1     -61.227 -33.658   8.668 -0.03 +0.00    +0.251 C  
DOCKED: BRANCH  14  15
DOCKED: ATOM     15  N   UNL     1     -61.422 -33.015   7.374 -0.14 +0.00    +0.141 N  
DOCKED: ATOM     16  C   UNL     1     -60.134 -32.685   6.762 -0.15 +0.00    +0.285 C  
DOCKED: ATOM     17  C   UNL     1     -62.202 -33.875   6.483 -0.06 +0.00    +0.285 C  
DOCKED: ENDBRANCH  14  15
DOCKED: ENDBRANCH  13  14
DOCKED: ENDBRANCH  12  13
DOCKED: ENDBRANCH   2  12
DOCKED: BRANCH   2  18
DOCKED: ATOM     18  C   UNL     1     -59.160 -38.134   9.130 -0.14 +0.00    +0.006 A  
DOCKED: ATOM     19  C   UNL     1     -58.522 -39.268   8.627 -0.27 +0.00    +0.001 A  
DOCKED: ATOM     20  C   UNL     1     -57.711 -40.038   9.462 -0.12 +0.00    +0.029 A  
DOCKED: ATOM     21  C   UNL     1     -57.538 -39.673  10.796 -0.18 +0.00    +0.140 A  
DOCKED: ATOM     22  C   UNL     1     -58.176 -38.539  11.298 -0.13 +0.00    +0.029 A  
DOCKED: ATOM     23  F   UNL     1     -56.757 -40.411  11.596 -0.10 -0.00    -0.204 F  
DOCKED: ATOM     24  C   UNL     1     -58.988 -37.768  10.464 -0.09 +0.00    +0.001 A  
DOCKED: ENDBRANCH   2  18
DOCKED: TORSDOF 5
DOCKED: TER
DOCKED: ENDMDL
________________________________________________________________________________


    FINAL DOCKED STATE:
    ________________________


Run:   153 / 512
Time taken for this run:   0.002s

DOCKED: MODEL        153
DOCKED: USER    Run = 153
DOCKED: USER
DOCKED: USER    Estimated Free Energy of Binding    =  -4.88 kcal/mol  [=(1)+(2)+(3)-(4)]
DOCKED: USER
DOCKED: USER    (1) Final Intermolecular Energy     =  -6.37 kcal/mol
DOCKED: USER        vdW + Hbond + desolv Energy     =  -6.37 kcal/mol
DOCKED: USER        Electrostatic Energy            =  +0.00 kcal/mol
DOCKED: USER        Moving Ligand-Fixed Receptor    =  -6.37 kcal/mol
DOCKED: USER        Moving Ligand-Moving Receptor   =  +0.00 kcal/mol
DOCKED: USER    (2) Final Total Internal Energy     =  -1.02 kcal/mol
DOCKED: USER    (3) Torsional Free Energy           =  +1.49 kcal/mol
DOCKED: USER    (4) Unbound System's Energy         =  -1.02 kcal/mol
DOCKED: USER
DOCKED: USER
DOCKED: REMARK  5 active torsions:
DOCKED: REMARK  status: ('A' for Active; 'I' for Inactive)
DOCKED: REMARK    1  A    between atoms: C_2  and  C_19 
DOCKED: REMARK    2  A    between atoms: C_2  and  C_11 
DOCKED: REMARK    3  A    between atoms: C_19  and  C_20 
DOCKED: REMARK    4  A    between atoms: C_20  and  C_21 
DOCKED: REMARK    5  A    between atoms: C_21  and  N_22 
DOCKED: USER                              x       y       z     vdW  Elec       q    Type
DOCKED: USER                           _______ _______ _______ _____ _____    ______ ____
DOCKED: ROOT
DOCKED: ATOM      1  O   UNL     1     -57.966 -35.994   8.681 -0.01 -0.00    -0.346 OA 
DOCKED: ATOM      2  C   UNL     1     -57.266 -37.276   8.585 -0.16 +0.00    +0.130 C  
DOCKED: ATOM      3  C   UNL     1     -57.686 -37.815   7.248 -0.29 +0.00    +0.004 A  
DOCKED: ATOM      4  C   UNL     1     -58.468 -36.876   6.590 -0.29 +0.00    +0.006 A  
DOCKED: ATOM      5  C   UNL     1     -58.607 -35.663   7.428 -0.16 +0.00    +0.169 C  
DOCKED: ATOM      6  C   UNL     1     -57.390 -39.034   6.656 -0.41 -0.00    -0.001 A  
DOCKED: ATOM      7  C   UNL     1     -58.982 -37.122   5.329 -0.28 +0.00    +0.008 A  
DOCKED: ATOM      8  C   UNL     1     -57.904 -39.299   5.386 -0.41 +0.00    +0.010 A  
DOCKED: ATOM      9  C   UNL     1     -58.696 -38.348   4.725 -0.39 +0.00    +0.068 A  
DOCKED: ATOM     10  N   UNL     1     -59.631 -38.870   2.366 -2.04 -0.00    -0.191 NA 
DOCKED: ATOM     11  C   UNL     1     -59.212 -38.636   3.425 -0.52 +0.00    +0.101 C  
DOCKED: ENDROOT
DOCKED: BRANCH   2  12
DOCKED: ATOM     12  C   UNL     1     -55.767 -37.015   8.675 -0.20 +0.00    +0.038 C  
DOCKED: BRANCH  12  13
DOCKED: ATOM     13  C   UNL     1     -55.425 -35.585   8.260 -0.15 +0.00    +0.038 C  
DOCKED: BRANCH  13  14
DOCKED: ATOM     14  C   UNL     1     -54.053 -35.522   7.591 +0.05 +0.00    +0.251 C  
DOCKED: BRANCH  14  15
DOCKED: ATOM     15  N   UNL     1     -53.483 -34.186   7.728 -0.06 +0.00    +0.141 N  
DOCKED: ATOM     16  C   UNL     1     -53.226 -33.598   6.413 -0.06 +0.00    +0.285 C  
DOCKED: ATOM     17  C   UNL     1     -54.375 -33.323   8.505 -0.02 +0.00    +0.285 C  
DOCKED: ENDBRANCH  14  15
DOCKED: ENDBRANCH  13  14
DOCKED: ENDBRANCH  12  13
DOCKED: ENDBRANCH   2  12
DOCKED: BRANCH   2  18
DOCKED: ATOM     18  C   UNL     1     -57.736 -38.117   9.724 -0.15 +0.00    +0.006 A  
DOCKED: ATOM     19  C   UNL     1     -56.820 -38.600  10.658 -0.15 +0.00    +0.001 A  
DOCKED: ATOM     20  C   UNL     1     -57.261 -39.386  11.723 -0.21 +0.00    +0.029 A  
DOCKED: ATOM     21  C   UNL     1     -58.616 -39.688  11.853 -0.12 +0.00    +0.140 A  
DOCKED: ATOM     22  C   UNL     1     -59.531 -39.204  10.919 -0.15 +0.00    +0.029 A  
DOCKED: ATOM     23  F   UNL     1     -59.039 -40.441  12.877 -0.04 -0.00    -0.204 F  
DOCKED: ATOM     24  C   UNL     1     -59.091 -38.417   9.853 -0.15 +0.00    +0.001 A  
DOCKED: ENDBRANCH   2  18
DOCKED: TORSDOF 5
DOCKED: TER
DOCKED: ENDMDL
________________________________________________________________________________


    FINAL DOCKED STATE:
    ________________________


Run:   154 / 512
Time taken for this run:   0.002s

DOCKED: MODEL        154
DOCKED: USER    Run = 154
DOCKED: USER
DOCKED: USER    Estimated Free Energy of Binding    =  -4.40 kcal/mol  [=(1)+(2)+(3)-(4)]
DOCKED: USER
DOCKED: USER    (1) Final Intermolecular Energy     =  -5.89 kcal/mol
DOCKED: USER        vdW + Hbond + desolv Energy     =  -5.89 kcal/mol
DOCKED: USER        Electrostatic Energy            =  +0.00 kcal/mol
DOCKED: USER        Moving Ligand-Fixed Receptor    =  -5.89 kcal/mol
DOCKED: USER        Moving Ligand-Moving Receptor   =  +0.00 kcal/mol
DOCKED: USER    (2) Final Total Internal Energy     =  -1.25 kcal/mol
DOCKED: USER    (3) Torsional Free Energy           =  +1.49 kcal/mol
DOCKED: USER    (4) Unbound System's Energy         =  -1.25 kcal/mol
DOCKED: USER
DOCKED: USER
DOCKED: REMARK  5 active torsions:
DOCKED: REMARK  status: ('A' for Active; 'I' for Inactive)
DOCKED: REMARK    1  A    between atoms: C_2  and  C_19 
DOCKED: REMARK    2  A    between atoms: C_2  and  C_11 
DOCKED: REMARK    3  A    between atoms: C_19  and  C_20 
DOCKED: REMARK    4  A    between atoms: C_20  and  C_21 
DOCKED: REMARK    5  A    between atoms: C_21  and  N_22 
DOCKED: USER                              x       y       z     vdW  Elec       q    Type
DOCKED: USER                           _______ _______ _______ _____ _____    ______ ____
DOCKED: ROOT
DOCKED: ATOM      1  O   UNL     1     -57.336 -33.479   6.810 -0.07 -0.00    -0.346 OA 
DOCKED: ATOM      2  C   UNL     1     -58.713 -33.550   7.300 -0.15 +0.00    +0.130 C  
DOCKED: ATOM      3  C   UNL     1     -59.150 -34.941   6.945 -0.22 +0.00    +0.004 A  
DOCKED: ATOM      4  C   UNL     1     -58.084 -35.642   6.401 -0.26 +0.00    +0.006 A  
DOCKED: ATOM      5  C   UNL     1     -56.881 -34.780   6.369 -0.17 +0.00    +0.169 C  
DOCKED: ATOM      6  C   UNL     1     -60.390 -35.543   7.103 -0.21 -0.00    -0.001 A  
DOCKED: ATOM      7  C   UNL     1     -58.218 -36.958   5.993 -0.33 +0.00    +0.008 A  
DOCKED: ATOM      8  C   UNL     1     -60.544 -36.868   6.692 -0.22 +0.00    +0.010 A  
DOCKED: ATOM      9  C   UNL     1     -59.463 -37.572   6.140 -0.25 +0.00    +0.068 A  
DOCKED: ATOM     10  N   UNL     1     -59.780 -40.033   5.393 -2.55 -0.00    -0.191 NA 
DOCKED: ATOM     11  C   UNL     1     -59.638 -38.929   5.728 -0.36 +0.00    +0.101 C  
DOCKED: ENDROOT
DOCKED: BRANCH   2  12
DOCKED: ATOM     12  C   UNL     1     -58.704 -33.295   8.803 -0.05 +0.00    +0.038 C  
DOCKED: BRANCH  12  13
DOCKED: ATOM     13  C   UNL     1     -58.567 -31.807   9.115 -0.02 +0.00    +0.038 C  
DOCKED: BRANCH  13  14
DOCKED: ATOM     14  C   UNL     1     -57.206 -31.274   8.669 -0.01 +0.00    +0.251 C  
DOCKED: BRANCH  14  15
DOCKED: ATOM     15  N   UNL     1     -57.165 -29.822   8.790 -0.00 +0.00    +0.141 N  
DOCKED: ATOM     16  C   UNL     1     -57.894 -29.192   7.688 -0.00 +0.00    +0.285 C  
DOCKED: ATOM     17  C   UNL     1     -57.721 -29.395  10.075 +0.00 +0.00    +0.285 C  
DOCKED: ENDBRANCH  14  15
DOCKED: ENDBRANCH  13  14
DOCKED: ENDBRANCH  12  13
DOCKED: ENDBRANCH   2  12
DOCKED: BRANCH   2  18
DOCKED: ATOM     18  C   UNL     1     -59.487 -32.496   6.581 -0.20 +0.00    +0.006 A  
DOCKED: ATOM     19  C   UNL     1     -60.864 -32.391   6.770 -0.21 +0.00    +0.001 A  
DOCKED: ATOM     20  C   UNL     1     -61.586 -31.405   6.097 -0.17 +0.00    +0.029 A  
DOCKED: ATOM     21  C   UNL     1     -60.931 -30.526   5.236 -0.09 +0.00    +0.140 A  
DOCKED: ATOM     22  C   UNL     1     -59.553 -30.632   5.047 -0.15 +0.00    +0.029 A  
DOCKED: ATOM     23  F   UNL     1     -61.624 -29.579   4.591 -0.02 -0.00    -0.204 F  
DOCKED: ATOM     24  C   UNL     1     -58.830 -31.618   5.720 -0.15 +0.00    +0.001 A  
DOCKED: ENDBRANCH   2  18
DOCKED: TORSDOF 5
DOCKED: TER
DOCKED: ENDMDL
________________________________________________________________________________


    FINAL DOCKED STATE:
    ________________________


Run:   155 / 512
Time taken for this run:   0.002s

DOCKED: MODEL        155
DOCKED: USER    Run = 155
DOCKED: USER
DOCKED: USER    Estimated Free Energy of Binding    =  -4.95 kcal/mol  [=(1)+(2)+(3)-(4)]
DOCKED: USER
DOCKED: USER    (1) Final Intermolecular Energy     =  -6.44 kcal/mol
DOCKED: USER        vdW + Hbond + desolv Energy     =  -6.44 kcal/mol
DOCKED: USER        Electrostatic Energy            =  +0.00 kcal/mol
DOCKED: USER        Moving Ligand-Fixed Receptor    =  -6.44 kcal/mol
DOCKED: USER        Moving Ligand-Moving Receptor   =  +0.00 kcal/mol
DOCKED: USER    (2) Final Total Internal Energy     =  -1.07 kcal/mol
DOCKED: USER    (3) Torsional Free Energy           =  +1.49 kcal/mol
DOCKED: USER    (4) Unbound System's Energy         =  -1.07 kcal/mol
DOCKED: USER
DOCKED: USER
DOCKED: REMARK  5 active torsions:
DOCKED: REMARK  status: ('A' for Active; 'I' for Inactive)
DOCKED: REMARK    1  A    between atoms: C_2  and  C_19 
DOCKED: REMARK    2  A    between atoms: C_2  and  C_11 
DOCKED: REMARK    3  A    between atoms: C_19  and  C_20 
DOCKED: REMARK    4  A    between atoms: C_20  and  C_21 
DOCKED: REMARK    5  A    between atoms: C_21  and  N_22 
DOCKED: USER                              x       y       z     vdW  Elec       q    Type
DOCKED: USER                           _______ _______ _______ _____ _____    ______ ____
DOCKED: ROOT
DOCKED: ATOM      1  O   UNL     1     -58.619 -35.979   8.277 -0.02 -0.00    -0.346 OA 
DOCKED: ATOM      2  C   UNL     1     -57.717 -37.130   8.216 -0.16 +0.00    +0.130 C  
DOCKED: ATOM      3  C   UNL     1     -58.042 -37.773   6.898 -0.31 +0.00    +0.004 A  
DOCKED: ATOM      4  C   UNL     1     -58.969 -36.996   6.217 -0.31 +0.00    +0.006 A  
DOCKED: ATOM      5  C   UNL     1     -59.306 -35.798   7.017 -0.19 +0.00    +0.169 C  
DOCKED: ATOM      6  C   UNL     1     -57.549 -38.944   6.343 -0.41 -0.00    -0.001 A  
DOCKED: ATOM      7  C   UNL     1     -59.436 -37.363   4.966 -0.07 +0.00    +0.008 A  
DOCKED: ATOM      8  C   UNL     1     -58.013 -39.330   5.084 -0.35 +0.00    +0.010 A  
DOCKED: ATOM      9  C   UNL     1     -58.951 -38.543   4.399 -0.42 +0.00    +0.068 A  
DOCKED: ATOM     10  N   UNL     1     -59.788 -39.286   2.062 -2.23 -0.00    -0.191 NA 
DOCKED: ATOM     11  C   UNL     1     -59.414 -38.953   3.111 -0.51 +0.00    +0.101 C  
DOCKED: ENDROOT
DOCKED: BRANCH   2  12
DOCKED: ATOM     12  C   UNL     1     -56.281 -36.623   8.290 -0.20 +0.00    +0.038 C  
DOCKED: BRANCH  12  13
DOCKED: ATOM     13  C   UNL     1     -56.030 -35.511   7.273 -0.15 +0.00    +0.038 C  
DOCKED: BRANCH  13  14
DOCKED: ATOM     14  C   UNL     1     -55.520 -34.245   7.958 -0.07 +0.00    +0.251 C  
DOCKED: BRANCH  14  15
DOCKED: ATOM     15  N   UNL     1     -54.998 -33.309   6.970 -0.08 +0.00    +0.141 N  
DOCKED: ATOM     16  C   UNL     1     -53.670 -33.724   6.516 -0.07 +0.00    +0.285 C  
DOCKED: ATOM     17  C   UNL     1     -55.912 -33.198   5.832 -0.09 +0.00    +0.285 C  
DOCKED: ENDBRANCH  14  15
DOCKED: ENDBRANCH  13  14
DOCKED: ENDBRANCH  12  13
DOCKED: ENDBRANCH   2  12
DOCKED: BRANCH   2  18
DOCKED: ATOM     18  C   UNL     1     -58.041 -38.001   9.383 -0.15 +0.00    +0.006 A  
DOCKED: ATOM     19  C   UNL     1     -57.262 -39.127   9.650 -0.09 +0.00    +0.001 A  
DOCKED: ATOM     20  C   UNL     1     -57.567 -39.941  10.742 -0.21 +0.00    +0.029 A  
DOCKED: ATOM     21  C   UNL     1     -58.648 -39.628  11.565 -0.12 +0.00    +0.140 A  
DOCKED: ATOM     22  C   UNL     1     -59.426 -38.502  11.297 -0.11 +0.00    +0.029 A  
DOCKED: ATOM     23  F   UNL     1     -58.939 -40.408  12.614 -0.04 -0.00    -0.204 F  
DOCKED: ATOM     24  C   UNL     1     -59.122 -37.687  10.205 -0.09 +0.00    +0.001 A  
DOCKED: ENDBRANCH   2  18
DOCKED: TORSDOF 5
DOCKED: TER
DOCKED: ENDMDL
________________________________________________________________________________


    FINAL DOCKED STATE:
    ________________________


Run:   156 / 512
Time taken for this run:   0.002s

DOCKED: MODEL        156
DOCKED: USER    Run = 156
DOCKED: USER
DOCKED: USER    Estimated Free Energy of Binding    =  -3.86 kcal/mol  [=(1)+(2)+(3)-(4)]
DOCKED: USER
DOCKED: USER    (1) Final Intermolecular Energy     =  -5.36 kcal/mol
DOCKED: USER        vdW + Hbond + desolv Energy     =  -5.36 kcal/mol
DOCKED: USER        Electrostatic Energy            =  +0.00 kcal/mol
DOCKED: USER        Moving Ligand-Fixed Receptor    =  -5.36 kcal/mol
DOCKED: USER        Moving Ligand-Moving Receptor   =  +0.00 kcal/mol
DOCKED: USER    (2) Final Total Internal Energy     =  -1.39 kcal/mol
DOCKED: USER    (3) Torsional Free Energy           =  +1.49 kcal/mol
DOCKED: USER    (4) Unbound System's Energy         =  -1.39 kcal/mol
DOCKED: USER
DOCKED: USER
DOCKED: REMARK  5 active torsions:
DOCKED: REMARK  status: ('A' for Active; 'I' for Inactive)
DOCKED: REMARK    1  A    between atoms: C_2  and  C_19 
DOCKED: REMARK    2  A    between atoms: C_2  and  C_11 
DOCKED: REMARK    3  A    between atoms: C_19  and  C_20 
DOCKED: REMARK    4  A    between atoms: C_20  and  C_21 
DOCKED: REMARK    5  A    between atoms: C_21  and  N_22 
DOCKED: USER                              x       y       z     vdW  Elec       q    Type
DOCKED: USER                           _______ _______ _______ _____ _____    ______ ____
DOCKED: ROOT
DOCKED: ATOM      1  O   UNL     1     -50.264 -25.481  -4.030 -0.01 -0.00    -0.346 OA 
DOCKED: ATOM      2  C   UNL     1     -50.834 -26.066  -2.816 -0.06 +0.00    +0.130 C  
DOCKED: ATOM      3  C   UNL     1     -52.272 -26.309  -3.175 -0.15 +0.00    +0.004 A  
DOCKED: ATOM      4  C   UNL     1     -52.480 -25.993  -4.510 -0.16 +0.00    +0.006 A  
DOCKED: ATOM      5  C   UNL     1     -51.211 -25.539  -5.122 -0.09 +0.00    +0.169 C  
DOCKED: ATOM      6  C   UNL     1     -53.310 -26.782  -2.385 -0.22 -0.00    -0.001 A  
DOCKED: ATOM      7  C   UNL     1     -53.725 -26.134  -5.098 -0.27 +0.00    +0.008 A  
DOCKED: ATOM      8  C   UNL     1     -54.573 -26.925  -2.963 -0.33 +0.00    +0.010 A  
DOCKED: ATOM      9  C   UNL     1     -54.779 -26.603  -4.313 -0.36 +0.00    +0.068 A  
DOCKED: ATOM     10  N   UNL     1     -57.134 -26.885  -5.354 -2.57 -0.00    -0.191 NA 
DOCKED: ATOM     11  C   UNL     1     -56.078 -26.758  -4.887 -0.33 +0.00    +0.101 C  
DOCKED: ENDROOT
DOCKED: BRANCH   2  12
DOCKED: ATOM     12  C   UNL     1     -50.077 -27.351  -2.499 -0.03 +0.00    +0.038 C  
DOCKED: BRANCH  12  13
DOCKED: ATOM     13  C   UNL     1     -50.412 -28.456  -3.498 -0.02 +0.00    +0.038 C  
DOCKED: BRANCH  13  14
DOCKED: ATOM     14  C   UNL     1     -51.230 -29.564  -2.837 -0.01 +0.00    +0.251 C  
DOCKED: BRANCH  14  15
DOCKED: ATOM     15  N   UNL     1     -52.138 -30.171  -3.804 -0.07 +0.00    +0.141 N  
DOCKED: ATOM     16  C   UNL     1     -53.502 -30.211  -3.277 -0.11 +0.00    +0.285 C  
DOCKED: ATOM     17  C   UNL     1     -52.105 -29.438  -5.071 -0.06 +0.00    +0.285 C  
DOCKED: ENDBRANCH  14  15
DOCKED: ENDBRANCH  13  14
DOCKED: ENDBRANCH  12  13
DOCKED: ENDBRANCH   2  12
DOCKED: BRANCH   2  18
DOCKED: ATOM     18  C   UNL     1     -50.668 -25.060  -1.727 -0.08 +0.00    +0.006 A  
DOCKED: ATOM     19  C   UNL     1     -51.767 -24.326  -1.284 -0.18 +0.00    +0.001 A  
DOCKED: ATOM     20  C   UNL     1     -51.611 -23.385  -0.265 -0.14 +0.00    +0.029 A  
DOCKED: ATOM     21  C   UNL     1     -50.357 -23.180   0.309 -0.05 +0.00    +0.140 A  
DOCKED: ATOM     22  C   UNL     1     -49.258 -23.916  -0.135 -0.03 +0.00    +0.029 A  
DOCKED: ATOM     23  F   UNL     1     -50.207 -22.278   1.288 -0.01 -0.00    -0.204 F  
DOCKED: ATOM     24  C   UNL     1     -49.413 -24.857  -1.154 -0.03 +0.00    +0.001 A  
DOCKED: ENDBRANCH   2  18
DOCKED: TORSDOF 5
DOCKED: TER
DOCKED: ENDMDL
________________________________________________________________________________


    FINAL DOCKED STATE:
    ________________________


Run:   157 / 512
Time taken for this run:   0.002s

DOCKED: MODEL        157
DOCKED: USER    Run = 157
DOCKED: USER
DOCKED: USER    Estimated Free Energy of Binding    =  -3.94 kcal/mol  [=(1)+(2)+(3)-(4)]
DOCKED: USER
DOCKED: USER    (1) Final Intermolecular Energy     =  -5.43 kcal/mol
DOCKED: USER        vdW + Hbond + desolv Energy     =  -5.43 kcal/mol
DOCKED: USER        Electrostatic Energy            =  +0.00 kcal/mol
DOCKED: USER        Moving Ligand-Fixed Receptor    =  -5.43 kcal/mol
DOCKED: USER        Moving Ligand-Moving Receptor   =  +0.00 kcal/mol
DOCKED: USER    (2) Final Total Internal Energy     =  -1.26 kcal/mol
DOCKED: USER    (3) Torsional Free Energy           =  +1.49 kcal/mol
DOCKED: USER    (4) Unbound System's Energy         =  -1.26 kcal/mol
DOCKED: USER
DOCKED: USER
DOCKED: REMARK  5 active torsions:
DOCKED: REMARK  status: ('A' for Active; 'I' for Inactive)
DOCKED: REMARK    1  A    between atoms: C_2  and  C_19 
DOCKED: REMARK    2  A    between atoms: C_2  and  C_11 
DOCKED: REMARK    3  A    between atoms: C_19  and  C_20 
DOCKED: REMARK    4  A    between atoms: C_20  and  C_21 
DOCKED: REMARK    5  A    between atoms: C_21  and  N_22 
DOCKED: USER                              x       y       z     vdW  Elec       q    Type
DOCKED: USER                           _______ _______ _______ _____ _____    ______ ____
DOCKED: ROOT
DOCKED: ATOM      1  O   UNL     1     -51.170 -25.259  -1.459 -0.03 -0.00    -0.346 OA 
DOCKED: ATOM      2  C   UNL     1     -50.837 -25.485  -2.866 -0.07 +0.00    +0.130 C  
DOCKED: ATOM      3  C   UNL     1     -52.137 -25.918  -3.478 -0.15 +0.00    +0.004 A  
DOCKED: ATOM      4  C   UNL     1     -53.149 -25.839  -2.532 -0.24 +0.00    +0.006 A  
DOCKED: ATOM      5  C   UNL     1     -52.599 -25.344  -1.250 -0.16 +0.00    +0.169 C  
DOCKED: ATOM      6  C   UNL     1     -52.406 -26.338  -4.773 -0.17 -0.00    -0.001 A  
DOCKED: ATOM      7  C   UNL     1     -54.454 -26.179  -2.842 -0.30 +0.00    +0.008 A  
DOCKED: ATOM      8  C   UNL     1     -53.717 -26.687  -5.101 -0.28 +0.00    +0.010 A  
DOCKED: ATOM      9  C   UNL     1     -54.736 -26.608  -4.140 -0.35 +0.00    +0.068 A  
DOCKED: ATOM     10  N   UNL     1     -57.160 -27.259  -4.783 -2.53 -0.00    -0.191 NA 
DOCKED: ATOM     11  C   UNL     1     -56.072 -26.968  -4.494 -0.42 +0.00    +0.101 C  
DOCKED: ENDROOT
DOCKED: BRANCH   2  12
DOCKED: ATOM     12  C   UNL     1     -50.309 -24.182  -3.453 -0.10 +0.00    +0.038 C  
DOCKED: BRANCH  12  13
DOCKED: ATOM     13  C   UNL     1     -50.748 -22.978  -2.621 -0.12 +0.00    +0.038 C  
DOCKED: BRANCH  13  14
DOCKED: ATOM     14  C   UNL     1     -51.996 -22.327  -3.213 -0.09 +0.00    +0.251 C  
DOCKED: BRANCH  14  15
DOCKED: ATOM     15  N   UNL     1     -52.629 -21.456  -2.229 -0.15 +0.00    +0.141 N  
DOCKED: ATOM     16  C   UNL     1     -53.543 -22.219  -1.377 -0.18 +0.00    +0.285 C  
DOCKED: ATOM     17  C   UNL     1     -51.619 -20.781  -1.413 -0.03 +0.00    +0.285 C  
DOCKED: ENDBRANCH  14  15
DOCKED: ENDBRANCH  13  14
DOCKED: ENDBRANCH  12  13
DOCKED: ENDBRANCH   2  12
DOCKED: BRANCH   2  18
DOCKED: ATOM     18  C   UNL     1     -49.794 -26.552  -2.900 -0.02 +0.00    +0.006 A  
DOCKED: ATOM     19  C   UNL     1     -49.982 -27.734  -2.185 -0.02 +0.00    +0.001 A  
DOCKED: ATOM     20  C   UNL     1     -49.006 -28.731  -2.218 -0.00 +0.00    +0.029 A  
DOCKED: ATOM     21  C   UNL     1     -47.845 -28.545  -2.965 -0.00 +0.00    +0.140 A  
DOCKED: ATOM     22  C   UNL     1     -47.657 -27.363  -3.681 -0.00 +0.00    +0.029 A  
DOCKED: ATOM     23  F   UNL     1     -46.909 -29.502  -2.998 +0.00 -0.00    -0.204 F  
DOCKED: ATOM     24  C   UNL     1     -48.632 -26.365  -3.648 -0.01 +0.00    +0.001 A  
DOCKED: ENDBRANCH   2  18
DOCKED: TORSDOF 5
DOCKED: TER
DOCKED: ENDMDL
________________________________________________________________________________


    FINAL DOCKED STATE:
    ________________________


Run:   158 / 512
Time taken for this run:   0.002s

DOCKED: MODEL        158
DOCKED: USER    Run = 158
DOCKED: USER
DOCKED: USER    Estimated Free Energy of Binding    =  -5.06 kcal/mol  [=(1)+(2)+(3)-(4)]
DOCKED: USER
DOCKED: USER    (1) Final Intermolecular Energy     =  -6.55 kcal/mol
DOCKED: USER        vdW + Hbond + desolv Energy     =  -6.55 kcal/mol
DOCKED: USER        Electrostatic Energy            =  +0.00 kcal/mol
DOCKED: USER        Moving Ligand-Fixed Receptor    =  -6.55 kcal/mol
DOCKED: USER        Moving Ligand-Moving Receptor   =  +0.00 kcal/mol
DOCKED: USER    (2) Final Total Internal Energy     =  -0.88 kcal/mol
DOCKED: USER    (3) Torsional Free Energy           =  +1.49 kcal/mol
DOCKED: USER    (4) Unbound System's Energy         =  -0.88 kcal/mol
DOCKED: USER
DOCKED: USER
DOCKED: REMARK  5 active torsions:
DOCKED: REMARK  status: ('A' for Active; 'I' for Inactive)
DOCKED: REMARK    1  A    between atoms: C_2  and  C_19 
DOCKED: REMARK    2  A    between atoms: C_2  and  C_11 
DOCKED: REMARK    3  A    between atoms: C_19  and  C_20 
DOCKED: REMARK    4  A    between atoms: C_20  and  C_21 
DOCKED: REMARK    5  A    between atoms: C_21  and  N_22 
DOCKED: USER                              x       y       z     vdW  Elec       q    Type
DOCKED: USER                           _______ _______ _______ _____ _____    ______ ____
DOCKED: ROOT
DOCKED: ATOM      1  O   UNL     1     -57.942 -36.871   8.245 -0.03 -0.00    -0.346 OA 
DOCKED: ATOM      2  C   UNL     1     -59.383 -37.126   8.256 -0.10 +0.00    +0.130 C  
DOCKED: ATOM      3  C   UNL     1     -59.690 -37.519   6.840 -0.23 +0.00    +0.004 A  
DOCKED: ATOM      4  C   UNL     1     -58.512 -37.591   6.110 -0.35 +0.00    +0.006 A  
DOCKED: ATOM      5  C   UNL     1     -57.360 -37.268   6.982 -0.24 +0.00    +0.169 C  
DOCKED: ATOM      6  C   UNL     1     -60.912 -37.801   6.248 -0.27 -0.00    -0.001 A  
DOCKED: ATOM      7  C   UNL     1     -58.514 -37.941   4.771 -0.34 +0.00    +0.008 A  
DOCKED: ATOM      8  C   UNL     1     -60.932 -38.152   4.897 -0.30 +0.00    +0.010 A  
DOCKED: ATOM      9  C   UNL     1     -59.739 -38.222   4.163 -0.34 +0.00    +0.068 A  
DOCKED: ATOM     10  N   UNL     1     -59.810 -38.880   1.658 -2.91 -0.00    -0.191 NA 
DOCKED: ATOM     11  C   UNL     1     -59.778 -38.584   2.781 -0.27 +0.00    +0.101 C  
DOCKED: ENDROOT
DOCKED: BRANCH   2  12
DOCKED: ATOM     12  C   UNL     1     -59.669 -38.240   9.257 -0.16 +0.00    +0.038 C  
DOCKED: BRANCH  12  13
DOCKED: ATOM     13  C   UNL     1     -58.896 -39.511   8.910 -0.29 +0.00    +0.038 C  
DOCKED: BRANCH  13  14
DOCKED: ATOM     14  C   UNL     1     -57.895 -39.862  10.009 -0.10 +0.00    +0.251 C  
DOCKED: BRANCH  14  15
DOCKED: ATOM     15  N   UNL     1     -57.554 -38.675  10.783 -0.13 +0.00    +0.141 N  
DOCKED: ATOM     16  C   UNL     1     -58.533 -38.455  11.849 -0.05 +0.00    +0.285 C  
DOCKED: ATOM     17  C   UNL     1     -56.209 -38.795  11.347 -0.06 +0.00    +0.285 C  
DOCKED: ENDBRANCH  14  15
DOCKED: ENDBRANCH  13  14
DOCKED: ENDBRANCH  12  13
DOCKED: ENDBRANCH   2  12
DOCKED: BRANCH   2  18
DOCKED: ATOM     18  C   UNL     1     -60.047 -35.853   8.664 -0.08 +0.00    +0.006 A  
DOCKED: ATOM     19  C   UNL     1     -61.062 -35.314   7.874 -0.15 +0.00    +0.001 A  
DOCKED: ATOM     20  C   UNL     1     -61.682 -34.123   8.256 -0.10 +0.00    +0.029 A  
DOCKED: ATOM     21  C   UNL     1     -61.288 -33.475   9.425 -0.01 +0.00    +0.140 A  
DOCKED: ATOM     22  C   UNL     1     -60.273 -34.016  10.215 -0.02 +0.00    +0.029 A  
DOCKED: ATOM     23  F   UNL     1     -61.885 -32.334   9.792 +0.01 -0.00    -0.204 F  
DOCKED: ATOM     24  C   UNL     1     -59.652 -35.206   9.833 -0.03 +0.00    +0.001 A  
DOCKED: ENDBRANCH   2  18
DOCKED: TORSDOF 5
DOCKED: TER
DOCKED: ENDMDL
________________________________________________________________________________


    FINAL DOCKED STATE:
    ________________________


Run:   159 / 512
Time taken for this run:   0.002s

DOCKED: MODEL        159
DOCKED: USER    Run = 159
DOCKED: USER
DOCKED: USER    Estimated Free Energy of Binding    =  -4.30 kcal/mol  [=(1)+(2)+(3)-(4)]
DOCKED: USER
DOCKED: USER    (1) Final Intermolecular Energy     =  -5.80 kcal/mol
DOCKED: USER        vdW + Hbond + desolv Energy     =  -5.80 kcal/mol
DOCKED: USER        Electrostatic Energy            =  +0.00 kcal/mol
DOCKED: USER        Moving Ligand-Fixed Receptor    =  -5.80 kcal/mol
DOCKED: USER        Moving Ligand-Moving Receptor   =  +0.00 kcal/mol
DOCKED: USER    (2) Final Total Internal Energy     =  -1.21 kcal/mol
DOCKED: USER    (3) Torsional Free Energy           =  +1.49 kcal/mol
DOCKED: USER    (4) Unbound System's Energy         =  -1.21 kcal/mol
DOCKED: USER
DOCKED: USER
DOCKED: REMARK  5 active torsions:
DOCKED: REMARK  status: ('A' for Active; 'I' for Inactive)
DOCKED: REMARK    1  A    between atoms: C_2  and  C_19 
DOCKED: REMARK    2  A    between atoms: C_2  and  C_11 
DOCKED: REMARK    3  A    between atoms: C_19  and  C_20 
DOCKED: REMARK    4  A    between atoms: C_20  and  C_21 
DOCKED: REMARK    5  A    between atoms: C_21  and  N_22 
DOCKED: USER                              x       y       z     vdW  Elec       q    Type
DOCKED: USER                           _______ _______ _______ _____ _____    ______ ____
DOCKED: ROOT
DOCKED: ATOM      1  O   UNL     1     -56.086 -35.389   9.163 -0.02 -0.00    -0.346 OA 
DOCKED: ATOM      2  C   UNL     1     -56.619 -34.737   7.965 -0.11 +0.00    +0.130 C  
DOCKED: ATOM      3  C   UNL     1     -57.280 -35.854   7.211 -0.23 +0.00    +0.004 A  
DOCKED: ATOM      4  C   UNL     1     -57.227 -37.020   7.963 -0.21 +0.00    +0.006 A  
DOCKED: ATOM      5  C   UNL     1     -56.550 -36.756   9.252 -0.10 +0.00    +0.169 C  
DOCKED: ATOM      6  C   UNL     1     -57.889 -35.838   5.965 -0.19 -0.00    -0.001 A  
DOCKED: ATOM      7  C   UNL     1     -57.774 -38.203   7.496 -0.29 +0.00    +0.008 A  
DOCKED: ATOM      8  C   UNL     1     -58.441 -37.024   5.479 -0.33 +0.00    +0.010 A  
DOCKED: ATOM      9  C   UNL     1     -58.385 -38.200   6.241 -0.31 +0.00    +0.068 A  
DOCKED: ATOM     10  N   UNL     1     -59.424 -40.383   5.311 -2.59 -0.00    -0.191 NA 
DOCKED: ATOM     11  C   UNL     1     -58.957 -39.404   5.728 -0.30 +0.00    +0.101 C  
DOCKED: ENDROOT
DOCKED: BRANCH   2  12
DOCKED: ATOM     12  C   UNL     1     -57.598 -33.654   8.401 -0.07 +0.00    +0.038 C  
DOCKED: BRANCH  12  13
DOCKED: ATOM     13  C   UNL     1     -58.981 -34.236   8.687 -0.07 +0.00    +0.038 C  
DOCKED: BRANCH  13  14
DOCKED: ATOM     14  C   UNL     1     -59.990 -33.804   7.624 -0.12 +0.00    +0.251 C  
DOCKED: BRANCH  14  15
DOCKED: ATOM     15  N   UNL     1     -59.958 -32.356   7.453 -0.10 +0.00    +0.141 N  
DOCKED: ATOM     16  C   UNL     1     -59.581 -32.007   6.083 -0.12 +0.00    +0.285 C  
DOCKED: ATOM     17  C   UNL     1     -61.256 -31.769   7.788 -0.05 +0.00    +0.285 C  
DOCKED: ENDBRANCH  14  15
DOCKED: ENDBRANCH  13  14
DOCKED: ENDBRANCH  12  13
DOCKED: ENDBRANCH   2  12
DOCKED: BRANCH   2  18
DOCKED: ATOM     18  C   UNL     1     -55.457 -34.150   7.235 -0.13 +0.00    +0.006 A  
DOCKED: ATOM     19  C   UNL     1     -54.229 -34.810   7.235 -0.07 +0.00    +0.001 A  
DOCKED: ATOM     20  C   UNL     1     -53.143 -34.259   6.553 -0.10 +0.00    +0.029 A  
DOCKED: ATOM     21  C   UNL     1     -53.287 -33.052   5.871 -0.07 +0.00    +0.140 A  
DOCKED: ATOM     22  C   UNL     1     -54.516 -32.393   5.871 -0.08 +0.00    +0.029 A  
DOCKED: ATOM     23  F   UNL     1     -52.246 -32.525   5.214 -0.00 -0.00    -0.204 F  
DOCKED: ATOM     24  C   UNL     1     -55.603 -32.942   6.554 -0.12 +0.00    +0.001 A  
DOCKED: ENDBRANCH   2  18
DOCKED: TORSDOF 5
DOCKED: TER
DOCKED: ENDMDL
________________________________________________________________________________


    FINAL DOCKED STATE:
    ________________________


Run:   160 / 512
Time taken for this run:   0.002s

DOCKED: MODEL        160
DOCKED: USER    Run = 160
DOCKED: USER
DOCKED: USER    Estimated Free Energy of Binding    =  -3.82 kcal/mol  [=(1)+(2)+(3)-(4)]
DOCKED: USER
DOCKED: USER    (1) Final Intermolecular Energy     =  -5.31 kcal/mol
DOCKED: USER        vdW + Hbond + desolv Energy     =  -5.31 kcal/mol
DOCKED: USER        Electrostatic Energy            =  +0.00 kcal/mol
DOCKED: USER        Moving Ligand-Fixed Receptor    =  -5.31 kcal/mol
DOCKED: USER        Moving Ligand-Moving Receptor   =  +0.00 kcal/mol
DOCKED: USER    (2) Final Total Internal Energy     =  -1.24 kcal/mol
DOCKED: USER    (3) Torsional Free Energy           =  +1.49 kcal/mol
DOCKED: USER    (4) Unbound System's Energy         =  -1.24 kcal/mol
DOCKED: USER
DOCKED: USER
DOCKED: REMARK  5 active torsions:
DOCKED: REMARK  status: ('A' for Active; 'I' for Inactive)
DOCKED: REMARK    1  A    between atoms: C_2  and  C_19 
DOCKED: REMARK    2  A    between atoms: C_2  and  C_11 
DOCKED: REMARK    3  A    between atoms: C_19  and  C_20 
DOCKED: REMARK    4  A    between atoms: C_20  and  C_21 
DOCKED: REMARK    5  A    between atoms: C_21  and  N_22 
DOCKED: USER                              x       y       z     vdW  Elec       q    Type
DOCKED: USER                           _______ _______ _______ _____ _____    ______ ____
DOCKED: ROOT
DOCKED: ATOM      1  O   UNL     1     -51.621 -29.478  -1.076 -0.00 -0.00    -0.346 OA 
DOCKED: ATOM      2  C   UNL     1     -52.902 -29.907  -0.514 -0.09 +0.00    +0.130 C  
DOCKED: ATOM      3  C   UNL     1     -53.921 -29.268  -1.412 -0.20 +0.00    +0.004 A  
DOCKED: ATOM      4  C   UNL     1     -53.280 -28.623  -2.460 -0.16 +0.00    +0.006 A  
DOCKED: ATOM      5  C   UNL     1     -51.816 -28.798  -2.338 -0.04 +0.00    +0.169 C  
DOCKED: ATOM      6  C   UNL     1     -55.305 -29.268  -1.316 -0.30 -0.00    -0.001 A  
DOCKED: ATOM      7  C   UNL     1     -53.995 -27.955  -3.440 -0.24 +0.00    +0.008 A  
DOCKED: ATOM      8  C   UNL     1     -56.040 -28.596  -2.294 -0.27 +0.00    +0.010 A  
DOCKED: ATOM      9  C   UNL     1     -55.388 -27.943  -3.351 -0.30 +0.00    +0.068 A  
DOCKED: ATOM     10  N   UNL     1     -56.782 -26.708  -5.152 -2.45 -0.00    -0.191 NA 
DOCKED: ATOM     11  C   UNL     1     -56.157 -27.262  -4.344 -0.42 +0.00    +0.101 C  
DOCKED: ENDROOT
DOCKED: BRANCH   2  12
DOCKED: ATOM     12  C   UNL     1     -52.956 -31.430  -0.543 -0.09 +0.00    +0.038 C  
DOCKED: BRANCH  12  13
DOCKED: ATOM     13  C   UNL     1     -52.070 -32.040   0.541 -0.04 +0.00    +0.038 C  
DOCKED: BRANCH  13  14
DOCKED: ATOM     14  C   UNL     1     -51.175 -33.136  -0.033 -0.02 +0.00    +0.251 C  
DOCKED: BRANCH  14  15
DOCKED: ATOM     15  N   UNL     1     -49.787 -32.913   0.356 -0.00 +0.00    +0.141 N  
DOCKED: ATOM     16  C   UNL     1     -49.311 -31.623  -0.145 +0.00 +0.00    +0.285 C  
DOCKED: ATOM     17  C   UNL     1     -49.643 -32.977   1.811 -0.00 +0.00    +0.285 C  
DOCKED: ENDBRANCH  14  15
DOCKED: ENDBRANCH  13  14
DOCKED: ENDBRANCH  12  13
DOCKED: ENDBRANCH   2  12
DOCKED: BRANCH   2  18
DOCKED: ATOM     18  C   UNL     1     -52.957 -29.394   0.886 -0.13 +0.00    +0.006 A  
DOCKED: ATOM     19  C   UNL     1     -51.829 -28.807   1.458 -0.11 +0.00    +0.001 A  
DOCKED: ATOM     20  C   UNL     1     -51.882 -28.327   2.768 -0.05 +0.00    +0.029 A  
DOCKED: ATOM     21  C   UNL     1     -53.062 -28.434   3.502 -0.03 +0.00    +0.140 A  
DOCKED: ATOM     22  C   UNL     1     -54.190 -29.021   2.929 -0.15 +0.00    +0.029 A  
DOCKED: ATOM     23  F   UNL     1     -53.114 -27.972   4.758 -0.04 -0.00    -0.204 F  
DOCKED: ATOM     24  C   UNL     1     -54.138 -29.502   1.620 -0.17 +0.00    +0.001 A  
DOCKED: ENDBRANCH   2  18
DOCKED: TORSDOF 5
DOCKED: TER
DOCKED: ENDMDL
________________________________________________________________________________


    FINAL DOCKED STATE:
    ________________________


Run:   161 / 512
Time taken for this run:   0.002s

DOCKED: MODEL        161
DOCKED: USER    Run = 161
DOCKED: USER
DOCKED: USER    Estimated Free Energy of Binding    =  -3.91 kcal/mol  [=(1)+(2)+(3)-(4)]
DOCKED: USER
DOCKED: USER    (1) Final Intermolecular Energy     =  -5.40 kcal/mol
DOCKED: USER        vdW + Hbond + desolv Energy     =  -5.40 kcal/mol
DOCKED: USER        Electrostatic Energy            =  +0.00 kcal/mol
DOCKED: USER        Moving Ligand-Fixed Receptor    =  -5.40 kcal/mol
DOCKED: USER        Moving Ligand-Moving Receptor   =  +0.00 kcal/mol
DOCKED: USER    (2) Final Total Internal Energy     =  -1.28 kcal/mol
DOCKED: USER    (3) Torsional Free Energy           =  +1.49 kcal/mol
DOCKED: USER    (4) Unbound System's Energy         =  -1.28 kcal/mol
DOCKED: USER
DOCKED: USER
DOCKED: REMARK  5 active torsions:
DOCKED: REMARK  status: ('A' for Active; 'I' for Inactive)
DOCKED: REMARK    1  A    between atoms: C_2  and  C_19 
DOCKED: REMARK    2  A    between atoms: C_2  and  C_11 
DOCKED: REMARK    3  A    between atoms: C_19  and  C_20 
DOCKED: REMARK    4  A    between atoms: C_20  and  C_21 
DOCKED: REMARK    5  A    between atoms: C_21  and  N_22 
DOCKED: USER                              x       y       z     vdW  Elec       q    Type
DOCKED: USER                           _______ _______ _______ _____ _____    ______ ____
DOCKED: ROOT
DOCKED: ATOM      1  O   UNL     1     -49.622 -39.235  -2.213 -0.02 -0.00    -0.346 OA 
DOCKED: ATOM      2  C   UNL     1     -49.662 -37.989  -1.447 -0.08 +0.00    +0.130 C  
DOCKED: ATOM      3  C   UNL     1     -50.266 -38.395  -0.133 -0.12 +0.00    +0.004 A  
DOCKED: ATOM      4  C   UNL     1     -50.452 -39.769  -0.109 -0.17 +0.00    +0.006 A  
DOCKED: ATOM      5  C   UNL     1     -49.980 -40.363  -1.380 -0.09 +0.00    +0.169 C  
DOCKED: ATOM      6  C   UNL     1     -50.612 -37.611   0.958 -0.12 -0.00    -0.001 A  
DOCKED: ATOM      7  C   UNL     1     -50.991 -40.405   0.997 -0.28 +0.00    +0.008 A  
DOCKED: ATOM      8  C   UNL     1     -51.161 -38.236   2.079 -0.22 +0.00    +0.010 A  
DOCKED: ATOM      9  C   UNL     1     -51.349 -39.626   2.098 -0.30 +0.00    +0.068 A  
DOCKED: ATOM     10  N   UNL     1     -52.366 -40.755   4.197 -2.59 -0.00    -0.191 NA 
DOCKED: ATOM     11  C   UNL     1     -51.910 -40.248   3.255 -0.41 +0.00    +0.101 C  
DOCKED: ENDROOT
DOCKED: BRANCH   2  12
DOCKED: ATOM     12  C   UNL     1     -48.239 -37.462  -1.308 -0.02 +0.00    +0.038 C  
DOCKED: BRANCH  12  13
DOCKED: ATOM     13  C   UNL     1     -47.268 -38.239  -2.195 -0.01 +0.00    +0.038 C  
DOCKED: BRANCH  13  14
DOCKED: ATOM     14  C   UNL     1     -47.215 -37.647  -3.602 -0.00 +0.00    +0.251 C  
DOCKED: BRANCH  14  15
DOCKED: ATOM     15  N   UNL     1     -47.372 -38.697  -4.601 -0.00 +0.00    +0.141 N  
DOCKED: ATOM     16  C   UNL     1     -46.404 -38.526  -5.686 -0.00 +0.00    +0.285 C  
DOCKED: ATOM     17  C   UNL     1     -47.218 -40.018  -3.988 -0.00 +0.00    +0.285 C  
DOCKED: ENDBRANCH  14  15
DOCKED: ENDBRANCH  13  14
DOCKED: ENDBRANCH  12  13
DOCKED: ENDBRANCH   2  12
DOCKED: BRANCH   2  18
DOCKED: ATOM     18  C   UNL     1     -50.518 -37.034  -2.210 -0.11 +0.00    +0.006 A  
DOCKED: ATOM     19  C   UNL     1     -51.086 -35.938  -1.563 -0.12 +0.00    +0.001 A  
DOCKED: ATOM     20  C   UNL     1     -51.887 -35.046  -2.278 -0.18 +0.00    +0.029 A  
DOCKED: ATOM     21  C   UNL     1     -52.117 -35.252  -3.638 -0.19 +0.00    +0.140 A  
DOCKED: ATOM     22  C   UNL     1     -51.548 -36.349  -4.284 -0.16 +0.00    +0.029 A  
DOCKED: ATOM     23  F   UNL     1     -52.883 -34.394  -4.324 -0.11 -0.00    -0.204 F  
DOCKED: ATOM     24  C   UNL     1     -50.747 -37.242  -3.570 -0.07 +0.00    +0.001 A  
DOCKED: ENDBRANCH   2  18
DOCKED: TORSDOF 5
DOCKED: TER
DOCKED: ENDMDL
________________________________________________________________________________


    FINAL DOCKED STATE:
    ________________________


Run:   162 / 512
Time taken for this run:   0.002s

DOCKED: MODEL        162
DOCKED: USER    Run = 162
DOCKED: USER
DOCKED: USER    Estimated Free Energy of Binding    =  -5.46 kcal/mol  [=(1)+(2)+(3)-(4)]
DOCKED: USER
DOCKED: USER    (1) Final Intermolecular Energy     =  -6.95 kcal/mol
DOCKED: USER        vdW + Hbond + desolv Energy     =  -6.95 kcal/mol
DOCKED: USER        Electrostatic Energy            =  +0.00 kcal/mol
DOCKED: USER        Moving Ligand-Fixed Receptor    =  -6.95 kcal/mol
DOCKED: USER        Moving Ligand-Moving Receptor   =  +0.00 kcal/mol
DOCKED: USER    (2) Final Total Internal Energy     =  -0.77 kcal/mol
DOCKED: USER    (3) Torsional Free Energy           =  +1.49 kcal/mol
DOCKED: USER    (4) Unbound System's Energy         =  -0.77 kcal/mol
DOCKED: USER
DOCKED: USER
DOCKED: REMARK  5 active torsions:
DOCKED: REMARK  status: ('A' for Active; 'I' for Inactive)
DOCKED: REMARK    1  A    between atoms: C_2  and  C_19 
DOCKED: REMARK    2  A    between atoms: C_2  and  C_11 
DOCKED: REMARK    3  A    between atoms: C_19  and  C_20 
DOCKED: REMARK    4  A    between atoms: C_20  and  C_21 
DOCKED: REMARK    5  A    between atoms: C_21  and  N_22 
DOCKED: USER                              x       y       z     vdW  Elec       q    Type
DOCKED: USER                           _______ _______ _______ _____ _____    ______ ____
DOCKED: ROOT
DOCKED: ATOM      1  O   UNL     1     -59.854 -38.530   8.716 -0.04 -0.00    -0.346 OA 
DOCKED: ATOM      2  C   UNL     1     -59.093 -37.382   8.220 -0.12 +0.00    +0.130 C  
DOCKED: ATOM      3  C   UNL     1     -59.112 -37.556   6.729 -0.26 +0.00    +0.004 A  
DOCKED: ATOM      4  C   UNL     1     -59.906 -38.644   6.395 -0.29 +0.00    +0.006 A  
DOCKED: ATOM      5  C   UNL     1     -60.470 -39.249   7.623 -0.16 +0.00    +0.169 C  
DOCKED: ATOM      6  C   UNL     1     -58.485 -36.805   5.745 -0.33 -0.00    -0.001 A  
DOCKED: ATOM      7  C   UNL     1     -60.097 -39.020   5.077 -0.40 +0.00    +0.008 A  
DOCKED: ATOM      8  C   UNL     1     -58.664 -37.173   4.411 -0.03 +0.00    +0.010 A  
DOCKED: ATOM      9  C   UNL     1     -59.467 -38.275   4.079 -0.39 +0.00    +0.068 A  
DOCKED: ATOM     10  N   UNL     1     -59.783 -38.929   1.591 -2.92 -0.00    -0.191 NA 
DOCKED: ATOM     11  C   UNL     1     -59.640 -38.636   2.707 -0.33 +0.00    +0.101 C  
DOCKED: ENDROOT
DOCKED: BRANCH   2  12
DOCKED: ATOM     12  C   UNL     1     -59.791 -36.106   8.677 -0.09 +0.00    +0.038 C  
DOCKED: BRANCH  12  13
DOCKED: ATOM     13  C   UNL     1     -60.259 -35.271   7.487 -0.20 +0.00    +0.038 C  
DOCKED: BRANCH  13  14
DOCKED: ATOM     14  C   UNL     1     -59.562 -33.912   7.462 -0.13 +0.00    +0.251 C  
DOCKED: BRANCH  14  15
DOCKED: ATOM     15  N   UNL     1     -60.533 -32.848   7.233 -0.15 +0.00    +0.141 N  
DOCKED: ATOM     16  C   UNL     1     -60.038 -31.905   6.230 -0.13 +0.00    +0.285 C  
DOCKED: ATOM     17  C   UNL     1     -61.820 -33.406   6.814 -0.14 +0.00    +0.285 C  
DOCKED: ENDBRANCH  14  15
DOCKED: ENDBRANCH  13  14
DOCKED: ENDBRANCH  12  13
DOCKED: ENDBRANCH   2  12
DOCKED: BRANCH   2  18
DOCKED: ATOM     18  C   UNL     1     -57.722 -37.484   8.800 -0.15 +0.00    +0.006 A  
DOCKED: ATOM     19  C   UNL     1     -56.623 -37.022   8.077 -0.22 +0.00    +0.001 A  
DOCKED: ATOM     20  C   UNL     1     -55.342 -37.118   8.621 -0.18 +0.00    +0.029 A  
DOCKED: ATOM     21  C   UNL     1     -55.161 -37.675   9.886 -0.01 +0.00    +0.140 A  
DOCKED: ATOM     22  C   UNL     1     -56.261 -38.136  10.609 -0.11 +0.00    +0.029 A  
DOCKED: ATOM     23  F   UNL     1     -53.931 -37.765  10.409 -0.03 -0.00    -0.204 F  
DOCKED: ATOM     24  C   UNL     1     -57.543 -38.041  10.066 -0.14 +0.00    +0.001 A  
DOCKED: ENDBRANCH   2  18
DOCKED: TORSDOF 5
DOCKED: TER
DOCKED: ENDMDL
________________________________________________________________________________


    FINAL DOCKED STATE:
    ________________________


Run:   163 / 512
Time taken for this run:   0.002s

DOCKED: MODEL        163
DOCKED: USER    Run = 163
DOCKED: USER
DOCKED: USER    Estimated Free Energy of Binding    =  -3.69 kcal/mol  [=(1)+(2)+(3)-(4)]
DOCKED: USER
DOCKED: USER    (1) Final Intermolecular Energy     =  -5.18 kcal/mol
DOCKED: USER        vdW + Hbond + desolv Energy     =  -5.18 kcal/mol
DOCKED: USER        Electrostatic Energy            =  +0.00 kcal/mol
DOCKED: USER        Moving Ligand-Fixed Receptor    =  -5.18 kcal/mol
DOCKED: USER        Moving Ligand-Moving Receptor   =  +0.00 kcal/mol
DOCKED: USER    (2) Final Total Internal Energy     =  -1.22 kcal/mol
DOCKED: USER    (3) Torsional Free Energy           =  +1.49 kcal/mol
DOCKED: USER    (4) Unbound System's Energy         =  -1.22 kcal/mol
DOCKED: USER
DOCKED: USER
DOCKED: REMARK  5 active torsions:
DOCKED: REMARK  status: ('A' for Active; 'I' for Inactive)
DOCKED: REMARK    1  A    between atoms: C_2  and  C_19 
DOCKED: REMARK    2  A    between atoms: C_2  and  C_11 
DOCKED: REMARK    3  A    between atoms: C_19  and  C_20 
DOCKED: REMARK    4  A    between atoms: C_20  and  C_21 
DOCKED: REMARK    5  A    between atoms: C_21  and  N_22 
DOCKED: USER                              x       y       z     vdW  Elec       q    Type
DOCKED: USER                           _______ _______ _______ _____ _____    ______ ____
DOCKED: ROOT
DOCKED: ATOM      1  O   UNL     1     -50.943 -26.076  -1.273 -0.03 -0.00    -0.346 OA 
DOCKED: ATOM      2  C   UNL     1     -50.708 -25.521  -2.607 -0.06 +0.00    +0.130 C  
DOCKED: ATOM      3  C   UNL     1     -51.976 -25.824  -3.351 -0.14 +0.00    +0.004 A  
DOCKED: ATOM      4  C   UNL     1     -52.897 -26.402  -2.489 -0.20 +0.00    +0.006 A  
DOCKED: ATOM      5  C   UNL     1     -52.316 -26.508  -1.132 -0.12 +0.00    +0.169 C  
DOCKED: ATOM      6  C   UNL     1     -52.294 -25.596  -4.682 -0.11 -0.00    -0.001 A  
DOCKED: ATOM      7  C   UNL     1     -54.157 -26.774  -2.924 -0.30 +0.00    +0.008 A  
DOCKED: ATOM      8  C   UNL     1     -53.559 -25.970  -5.138 -0.17 +0.00    +0.010 A  
DOCKED: ATOM      9  C   UNL     1     -54.486 -26.556  -4.263 -0.33 +0.00    +0.068 A  
DOCKED: ATOM     10  N   UNL     1     -56.828 -27.233  -5.140 -2.29 -0.00    -0.191 NA 
DOCKED: ATOM     11  C   UNL     1     -55.778 -26.930  -4.747 -0.44 +0.00    +0.101 C  
DOCKED: ENDROOT
DOCKED: BRANCH   2  12
DOCKED: ATOM     12  C   UNL     1     -50.445 -24.026  -2.468 -0.09 +0.00    +0.038 C  
DOCKED: BRANCH  12  13
DOCKED: ATOM     13  C   UNL     1     -51.674 -23.206  -2.852 -0.19 +0.00    +0.038 C  
DOCKED: BRANCH  13  14
DOCKED: ATOM     14  C   UNL     1     -52.040 -22.214  -1.750 -0.10 +0.00    +0.251 C  
DOCKED: BRANCH  14  15
DOCKED: ATOM     15  N   UNL     1     -53.069 -22.777  -0.883 -0.21 +0.00    +0.141 N  
DOCKED: ATOM     16  C   UNL     1     -52.728 -22.569   0.525 -0.12 +0.00    +0.285 C  
DOCKED: ATOM     17  C   UNL     1     -54.374 -22.185  -1.181 -0.22 +0.00    +0.285 C  
DOCKED: ENDBRANCH  14  15
DOCKED: ENDBRANCH  13  14
DOCKED: ENDBRANCH  12  13
DOCKED: ENDBRANCH   2  12
DOCKED: BRANCH   2  18
DOCKED: ATOM     18  C   UNL     1     -49.520 -26.227  -3.170 -0.02 +0.00    +0.006 A  
DOCKED: ATOM     19  C   UNL     1     -48.845 -27.175  -2.403 -0.01 +0.00    +0.001 A  
DOCKED: ATOM     20  C   UNL     1     -47.734 -27.834  -2.931 -0.00 +0.00    +0.029 A  
DOCKED: ATOM     21  C   UNL     1     -47.301 -27.545  -4.224 -0.00 +0.00    +0.140 A  
DOCKED: ATOM     22  C   UNL     1     -47.977 -26.597  -4.991 -0.01 +0.00    +0.029 A  
DOCKED: ATOM     23  F   UNL     1     -46.235 -28.179  -4.731 +0.00 -0.00    -0.204 F  
DOCKED: ATOM     24  C   UNL     1     -49.088 -25.936  -4.463 -0.03 +0.00    +0.001 A  
DOCKED: ENDBRANCH   2  18
DOCKED: TORSDOF 5
DOCKED: TER
DOCKED: ENDMDL
________________________________________________________________________________


    FINAL DOCKED STATE:
    ________________________


Run:   164 / 512
Time taken for this run:   0.002s

DOCKED: MODEL        164
DOCKED: USER    Run = 164
DOCKED: USER
DOCKED: USER    Estimated Free Energy of Binding    =  -5.41 kcal/mol  [=(1)+(2)+(3)-(4)]
DOCKED: USER
DOCKED: USER    (1) Final Intermolecular Energy     =  -6.90 kcal/mol
DOCKED: USER        vdW + Hbond + desolv Energy     =  -6.90 kcal/mol
DOCKED: USER        Electrostatic Energy            =  +0.00 kcal/mol
DOCKED: USER        Moving Ligand-Fixed Receptor    =  -6.90 kcal/mol
DOCKED: USER        Moving Ligand-Moving Receptor   =  +0.00 kcal/mol
DOCKED: USER    (2) Final Total Internal Energy     =  -1.41 kcal/mol
DOCKED: USER    (3) Torsional Free Energy           =  +1.49 kcal/mol
DOCKED: USER    (4) Unbound System's Energy         =  -1.41 kcal/mol
DOCKED: USER
DOCKED: USER
DOCKED: REMARK  5 active torsions:
DOCKED: REMARK  status: ('A' for Active; 'I' for Inactive)
DOCKED: REMARK    1  A    between atoms: C_2  and  C_19 
DOCKED: REMARK    2  A    between atoms: C_2  and  C_11 
DOCKED: REMARK    3  A    between atoms: C_19  and  C_20 
DOCKED: REMARK    4  A    between atoms: C_20  and  C_21 
DOCKED: REMARK    5  A    between atoms: C_21  and  N_22 
DOCKED: USER                              x       y       z     vdW  Elec       q    Type
DOCKED: USER                           _______ _______ _______ _____ _____    ______ ____
DOCKED: ROOT
DOCKED: ATOM      1  O   UNL     1     -57.688 -37.613   7.948 -0.06 -0.00    -0.346 OA 
DOCKED: ATOM      2  C   UNL     1     -59.143 -37.761   7.982 -0.14 +0.00    +0.130 C  
DOCKED: ATOM      3  C   UNL     1     -59.513 -38.003   6.547 -0.27 +0.00    +0.004 A  
DOCKED: ATOM      4  C   UNL     1     -58.362 -38.096   5.777 -0.39 +0.00    +0.006 A  
DOCKED: ATOM      5  C   UNL     1     -57.168 -37.937   6.637 -0.25 +0.00    +0.169 C  
DOCKED: ATOM      6  C   UNL     1     -60.767 -38.141   5.971 -0.30 -0.00    -0.001 A  
DOCKED: ATOM      7  C   UNL     1     -58.424 -38.324   4.413 -0.25 +0.00    +0.008 A  
DOCKED: ATOM      8  C   UNL     1     -60.847 -38.367   4.595 -0.26 +0.00    +0.010 A  
DOCKED: ATOM      9  C   UNL     1     -59.681 -38.459   3.821 -0.39 +0.00    +0.068 A  
DOCKED: ATOM     10  N   UNL     1     -59.863 -38.885   1.272 -3.09 -0.00    -0.191 NA 
DOCKED: ATOM     11  C   UNL     1     -59.781 -38.693   2.415 -0.28 +0.00    +0.101 C  
DOCKED: ENDROOT
DOCKED: BRANCH   2  12
DOCKED: ATOM     12  C   UNL     1     -59.488 -38.935   8.889 -0.23 +0.00    +0.038 C  
DOCKED: BRANCH  12  13
DOCKED: ATOM     13  C   UNL     1     -58.245 -39.748   9.245 -0.28 +0.00    +0.038 C  
DOCKED: BRANCH  13  14
DOCKED: ATOM     14  C   UNL     1     -57.963 -39.693  10.746 -0.13 +0.00    +0.251 C  
DOCKED: BRANCH  14  15
DOCKED: ATOM     15  N   UNL     1     -57.954 -38.310  11.209 -0.09 +0.00    +0.141 N  
DOCKED: ATOM     16  C   UNL     1     -58.738 -38.173  12.438 -0.03 +0.00    +0.285 C  
DOCKED: ATOM     17  C   UNL     1     -56.582 -37.849  11.428 -0.06 +0.00    +0.285 C  
DOCKED: ENDBRANCH  14  15
DOCKED: ENDBRANCH  13  14
DOCKED: ENDBRANCH  12  13
DOCKED: ENDBRANCH   2  12
DOCKED: BRANCH   2  18
DOCKED: ATOM     18  C   UNL     1     -59.699 -36.484   8.518 -0.09 +0.00    +0.006 A  
DOCKED: ATOM     19  C   UNL     1     -60.469 -36.494   9.681 -0.05 +0.00    +0.001 A  
DOCKED: ATOM     20  C   UNL     1     -60.988 -35.299  10.181 -0.02 +0.00    +0.029 A  
DOCKED: ATOM     21  C   UNL     1     -60.738 -34.098   9.519 -0.01 +0.00    +0.140 A  
DOCKED: ATOM     22  C   UNL     1     -59.968 -34.089   8.357 -0.08 +0.00    +0.029 A  
DOCKED: ATOM     23  F   UNL     1     -61.235 -32.952  10.001 +0.01 -0.00    -0.204 F  
DOCKED: ATOM     24  C   UNL     1     -59.448 -35.284   7.855 -0.14 +0.00    +0.001 A  
DOCKED: ENDBRANCH   2  18
DOCKED: TORSDOF 5
DOCKED: TER
DOCKED: ENDMDL
________________________________________________________________________________


    FINAL DOCKED STATE:
    ________________________


Run:   165 / 512
Time taken for this run:   0.002s

DOCKED: MODEL        165
DOCKED: USER    Run = 165
DOCKED: USER
DOCKED: USER    Estimated Free Energy of Binding    =  -4.13 kcal/mol  [=(1)+(2)+(3)-(4)]
DOCKED: USER
DOCKED: USER    (1) Final Intermolecular Energy     =  -5.62 kcal/mol
DOCKED: USER        vdW + Hbond + desolv Energy     =  -5.62 kcal/mol
DOCKED: USER        Electrostatic Energy            =  +0.00 kcal/mol
DOCKED: USER        Moving Ligand-Fixed Receptor    =  -5.62 kcal/mol
DOCKED: USER        Moving Ligand-Moving Receptor   =  +0.00 kcal/mol
DOCKED: USER    (2) Final Total Internal Energy     =  -1.17 kcal/mol
DOCKED: USER    (3) Torsional Free Energy           =  +1.49 kcal/mol
DOCKED: USER    (4) Unbound System's Energy         =  -1.17 kcal/mol
DOCKED: USER
DOCKED: USER
DOCKED: REMARK  5 active torsions:
DOCKED: REMARK  status: ('A' for Active; 'I' for Inactive)
DOCKED: REMARK    1  A    between atoms: C_2  and  C_19 
DOCKED: REMARK    2  A    between atoms: C_2  and  C_11 
DOCKED: REMARK    3  A    between atoms: C_19  and  C_20 
DOCKED: REMARK    4  A    between atoms: C_20  and  C_21 
DOCKED: REMARK    5  A    between atoms: C_21  and  N_22 
DOCKED: USER                              x       y       z     vdW  Elec       q    Type
DOCKED: USER                           _______ _______ _______ _____ _____    ______ ____
DOCKED: ROOT
DOCKED: ATOM      1  O   UNL     1     -56.867 -33.896   7.327 -0.05 -0.00    -0.346 OA 
DOCKED: ATOM      2  C   UNL     1     -56.031 -34.968   7.870 -0.13 +0.00    +0.130 C  
DOCKED: ATOM      3  C   UNL     1     -56.723 -36.224   7.425 -0.21 +0.00    +0.004 A  
DOCKED: ATOM      4  C   UNL     1     -57.797 -35.901   6.608 -0.27 +0.00    +0.006 A  
DOCKED: ATOM      5  C   UNL     1     -57.881 -34.432   6.446 -0.15 +0.00    +0.169 C  
DOCKED: ATOM      6  C   UNL     1     -56.419 -37.547   7.712 -0.25 -0.00    -0.001 A  
DOCKED: ATOM      7  C   UNL     1     -58.602 -36.882   6.055 -0.32 +0.00    +0.008 A  
DOCKED: ATOM      8  C   UNL     1     -57.225 -38.548   7.166 -0.35 +0.00    +0.010 A  
DOCKED: ATOM      9  C   UNL     1     -58.310 -38.217   6.341 -0.31 +0.00    +0.068 A  
DOCKED: ATOM     10  N   UNL     1     -59.782 -40.099   5.340 -2.56 -0.00    -0.191 NA 
DOCKED: ATOM     11  C   UNL     1     -59.123 -39.255   5.790 -0.36 +0.00    +0.101 C  
DOCKED: ENDROOT
DOCKED: BRANCH   2  12
DOCKED: ATOM     12  C   UNL     1     -54.628 -34.826   7.291 -0.09 +0.00    +0.038 C  
DOCKED: BRANCH  12  13
DOCKED: ATOM     13  C   UNL     1     -54.444 -33.476   6.602 -0.12 +0.00    +0.038 C  
DOCKED: BRANCH  13  14
DOCKED: ATOM     14  C   UNL     1     -54.758 -33.573   5.110 -0.10 +0.00    +0.251 C  
DOCKED: BRANCH  14  15
DOCKED: ATOM     15  N   UNL     1     -54.538 -32.286   4.460 -0.08 +0.00    +0.141 N  
DOCKED: ATOM     16  C   UNL     1     -54.528 -32.438   3.005 -0.08 +0.00    +0.285 C  
DOCKED: ATOM     17  C   UNL     1     -55.565 -31.323   4.863 -0.06 +0.00    +0.285 C  
DOCKED: ENDBRANCH  14  15
DOCKED: ENDBRANCH  13  14
DOCKED: ENDBRANCH  12  13
DOCKED: ENDBRANCH   2  12
DOCKED: BRANCH   2  18
DOCKED: ATOM     18  C   UNL     1     -56.020 -34.804   9.353 -0.05 +0.00    +0.006 A  
DOCKED: ATOM     19  C   UNL     1     -54.993 -35.368  10.109 -0.04 +0.00    +0.001 A  
DOCKED: ATOM     20  C   UNL     1     -54.984 -35.214  11.496 -0.01 +0.00    +0.029 A  
DOCKED: ATOM     21  C   UNL     1     -56.001 -34.497  12.125 -0.00 +0.00    +0.140 A  
DOCKED: ATOM     22  C   UNL     1     -57.028 -33.933  11.368 -0.00 +0.00    +0.029 A  
DOCKED: ATOM     23  F   UNL     1     -55.992 -34.348  13.456 +0.00 -0.00    -0.204 F  
DOCKED: ATOM     24  C   UNL     1     -57.038 -34.086   9.981 -0.02 +0.00    +0.001 A  
DOCKED: ENDBRANCH   2  18
DOCKED: TORSDOF 5
DOCKED: TER
DOCKED: ENDMDL
________________________________________________________________________________


    FINAL DOCKED STATE:
    ________________________


Run:   166 / 512
Time taken for this run:   0.002s

DOCKED: MODEL        166
DOCKED: USER    Run = 166
DOCKED: USER
DOCKED: USER    Estimated Free Energy of Binding    =  -4.69 kcal/mol  [=(1)+(2)+(3)-(4)]
DOCKED: USER
DOCKED: USER    (1) Final Intermolecular Energy     =  -6.18 kcal/mol
DOCKED: USER        vdW + Hbond + desolv Energy     =  -6.18 kcal/mol
DOCKED: USER        Electrostatic Energy            =  +0.00 kcal/mol
DOCKED: USER        Moving Ligand-Fixed Receptor    =  -6.18 kcal/mol
DOCKED: USER        Moving Ligand-Moving Receptor   =  +0.00 kcal/mol
DOCKED: USER    (2) Final Total Internal Energy     =  -1.03 kcal/mol
DOCKED: USER    (3) Torsional Free Energy           =  +1.49 kcal/mol
DOCKED: USER    (4) Unbound System's Energy         =  -1.03 kcal/mol
DOCKED: USER
DOCKED: USER
DOCKED: REMARK  5 active torsions:
DOCKED: REMARK  status: ('A' for Active; 'I' for Inactive)
DOCKED: REMARK    1  A    between atoms: C_2  and  C_19 
DOCKED: REMARK    2  A    between atoms: C_2  and  C_11 
DOCKED: REMARK    3  A    between atoms: C_19  and  C_20 
DOCKED: REMARK    4  A    between atoms: C_20  and  C_21 
DOCKED: REMARK    5  A    between atoms: C_21  and  N_22 
DOCKED: USER                              x       y       z     vdW  Elec       q    Type
DOCKED: USER                           _______ _______ _______ _____ _____    ______ ____
DOCKED: ROOT
DOCKED: ATOM      1  O   UNL     1     -56.301 -29.737   1.343 -0.12 -0.00    -0.346 OA 
DOCKED: ATOM      2  C   UNL     1     -55.007 -29.922   0.685 -0.20 +0.00    +0.130 C  
DOCKED: ATOM      3  C   UNL     1     -55.208 -29.322  -0.677 -0.27 +0.00    +0.004 A  
DOCKED: ATOM      4  C   UNL     1     -56.468 -28.746  -0.752 -0.03 +0.00    +0.006 A  
DOCKED: ATOM      5  C   UNL     1     -57.174 -28.910   0.538 -0.14 +0.00    +0.169 C  
DOCKED: ATOM      6  C   UNL     1     -54.339 -29.279  -1.758 -0.24 -0.00    -0.001 A  
DOCKED: ATOM      7  C   UNL     1     -56.903 -28.114  -1.905 -0.12 +0.00    +0.008 A  
DOCKED: ATOM      8  C   UNL     1     -54.766 -28.650  -2.929 -0.25 +0.00    +0.010 A  
DOCKED: ATOM      9  C   UNL     1     -56.041 -28.070  -3.001 -0.26 +0.00    +0.068 A  
DOCKED: ATOM     10  N   UNL     1     -56.800 -26.906  -5.188 -2.53 -0.00    -0.191 NA 
DOCKED: ATOM     11  C   UNL     1     -56.460 -27.428  -4.208 -0.28 +0.00    +0.101 C  
DOCKED: ENDROOT
DOCKED: BRANCH   2  12
DOCKED: ATOM     12  C   UNL     1     -53.943 -29.199   1.502 -0.18 +0.00    +0.038 C  
DOCKED: BRANCH  12  13
DOCKED: ATOM     13  C   UNL     1     -52.573 -29.284   0.830 -0.13 +0.00    +0.038 C  
DOCKED: BRANCH  13  14
DOCKED: ATOM     14  C   UNL     1     -51.763 -28.012   1.074 -0.06 +0.00    +0.251 C  
DOCKED: BRANCH  14  15
DOCKED: ATOM     15  N   UNL     1     -51.212 -27.513  -0.180 -0.10 +0.00    +0.141 N  
DOCKED: ATOM     16  C   UNL     1     -50.993 -28.612  -1.121 -0.03 +0.00    +0.285 C  
DOCKED: ATOM     17  C   UNL     1     -52.100 -26.510  -0.770 -0.07 +0.00    +0.285 C  
DOCKED: ENDBRANCH  14  15
DOCKED: ENDBRANCH  13  14
DOCKED: ENDBRANCH  12  13
DOCKED: ENDBRANCH   2  12
DOCKED: BRANCH   2  18
DOCKED: ATOM     18  C   UNL     1     -54.746 -31.391   0.640 -0.17 +0.00    +0.006 A  
DOCKED: ATOM     19  C   UNL     1     -55.603 -32.271   1.300 -0.21 +0.00    +0.001 A  
DOCKED: ATOM     20  C   UNL     1     -55.358 -33.644   1.257 -0.21 +0.00    +0.029 A  
DOCKED: ATOM     21  C   UNL     1     -54.258 -34.134   0.556 -0.18 +0.00    +0.140 A  
DOCKED: ATOM     22  C   UNL     1     -53.401 -33.253  -0.104 -0.17 +0.00    +0.029 A  
DOCKED: ATOM     23  F   UNL     1     -54.023 -35.452   0.514 -0.11 -0.00    -0.204 F  
DOCKED: ATOM     24  C   UNL     1     -53.645 -31.880  -0.062 -0.13 +0.00    +0.001 A  
DOCKED: ENDBRANCH   2  18
DOCKED: TORSDOF 5
DOCKED: TER
DOCKED: ENDMDL
________________________________________________________________________________


    FINAL DOCKED STATE:
    ________________________


Run:   167 / 512
Time taken for this run:   0.002s

DOCKED: MODEL        167
DOCKED: USER    Run = 167
DOCKED: USER
DOCKED: USER    Estimated Free Energy of Binding    =  -3.98 kcal/mol  [=(1)+(2)+(3)-(4)]
DOCKED: USER
DOCKED: USER    (1) Final Intermolecular Energy     =  -5.47 kcal/mol
DOCKED: USER        vdW + Hbond + desolv Energy     =  -5.47 kcal/mol
DOCKED: USER        Electrostatic Energy            =  +0.00 kcal/mol
DOCKED: USER        Moving Ligand-Fixed Receptor    =  -5.47 kcal/mol
DOCKED: USER        Moving Ligand-Moving Receptor   =  +0.00 kcal/mol
DOCKED: USER    (2) Final Total Internal Energy     =  -1.17 kcal/mol
DOCKED: USER    (3) Torsional Free Energy           =  +1.49 kcal/mol
DOCKED: USER    (4) Unbound System's Energy         =  -1.17 kcal/mol
DOCKED: USER
DOCKED: USER
DOCKED: REMARK  5 active torsions:
DOCKED: REMARK  status: ('A' for Active; 'I' for Inactive)
DOCKED: REMARK    1  A    between atoms: C_2  and  C_19 
DOCKED: REMARK    2  A    between atoms: C_2  and  C_11 
DOCKED: REMARK    3  A    between atoms: C_19  and  C_20 
DOCKED: REMARK    4  A    between atoms: C_20  and  C_21 
DOCKED: REMARK    5  A    between atoms: C_21  and  N_22 
DOCKED: USER                              x       y       z     vdW  Elec       q    Type
DOCKED: USER                           _______ _______ _______ _____ _____    ______ ____
DOCKED: ROOT
DOCKED: ATOM      1  O   UNL     1     -58.735 -33.548   7.270 -0.07 -0.00    -0.346 OA 
DOCKED: ATOM      2  C   UNL     1     -57.445 -34.200   7.499 -0.14 +0.00    +0.130 C  
DOCKED: ATOM      3  C   UNL     1     -57.684 -35.625   7.090 -0.23 +0.00    +0.004 A  
DOCKED: ATOM      4  C   UNL     1     -58.964 -35.753   6.569 -0.25 +0.00    +0.006 A  
DOCKED: ATOM      5  C   UNL     1     -59.646 -34.439   6.585 -0.17 +0.00    +0.169 C  
DOCKED: ATOM      6  C   UNL     1     -56.833 -36.718   7.163 -0.22 -0.00    -0.001 A  
DOCKED: ATOM      7  C   UNL     1     -59.437 -36.970   6.110 -0.28 +0.00    +0.008 A  
DOCKED: ATOM      8  C   UNL     1     -57.296 -37.953   6.708 -0.31 +0.00    +0.010 A  
DOCKED: ATOM      9  C   UNL     1     -58.592 -38.078   6.184 -0.31 +0.00    +0.068 A  
DOCKED: ATOM     10  N   UNL     1     -59.419 -40.385   5.343 -2.62 -0.00    -0.191 NA 
DOCKED: ATOM     11  C   UNL     1     -59.048 -39.351   5.721 -0.33 +0.00    +0.101 C  
DOCKED: ENDROOT
DOCKED: BRANCH   2  12
DOCKED: ATOM     12  C   UNL     1     -56.395 -33.505   6.640 -0.17 +0.00    +0.038 C  
DOCKED: BRANCH  12  13
DOCKED: ATOM     13  C   UNL     1     -56.981 -32.296   5.913 -0.08 +0.00    +0.038 C  
DOCKED: BRANCH  13  14
DOCKED: ATOM     14  C   UNL     1     -57.082 -31.090   6.845 -0.04 +0.00    +0.251 C  
DOCKED: BRANCH  14  15
DOCKED: ATOM     15  N   UNL     1     -57.474 -29.902   6.096 -0.04 +0.00    +0.141 N  
DOCKED: ATOM     16  C   UNL     1     -57.031 -30.000   4.704 -0.06 +0.00    +0.285 C  
DOCKED: ATOM     17  C   UNL     1     -58.924 -29.711   6.154 -0.04 +0.00    +0.285 C  
DOCKED: ENDBRANCH  14  15
DOCKED: ENDBRANCH  13  14
DOCKED: ENDBRANCH  12  13
DOCKED: ENDBRANCH   2  12
DOCKED: BRANCH   2  18
DOCKED: ATOM     18  C   UNL     1     -57.135 -34.056   8.951 -0.05 +0.00    +0.006 A  
DOCKED: ATOM     19  C   UNL     1     -57.962 -33.285   9.767 -0.02 +0.00    +0.001 A  
DOCKED: ATOM     20  C   UNL     1     -57.671 -33.151  11.125 -0.00 +0.00    +0.029 A  
DOCKED: ATOM     21  C   UNL     1     -56.554 -33.787  11.665 -0.00 +0.00    +0.140 A  
DOCKED: ATOM     22  C   UNL     1     -55.727 -34.558  10.848 -0.01 +0.00    +0.029 A  
DOCKED: ATOM     23  F   UNL     1     -56.276 -33.659  12.969 +0.00 -0.00    -0.204 F  
DOCKED: ATOM     24  C   UNL     1     -56.017 -34.692   9.489 -0.04 +0.00    +0.001 A  
DOCKED: ENDBRANCH   2  18
DOCKED: TORSDOF 5
DOCKED: TER
DOCKED: ENDMDL
________________________________________________________________________________


    FINAL DOCKED STATE:
    ________________________


Run:   168 / 512
Time taken for this run:   0.002s

DOCKED: MODEL        168
DOCKED: USER    Run = 168
DOCKED: USER
DOCKED: USER    Estimated Free Energy of Binding    =  -4.81 kcal/mol  [=(1)+(2)+(3)-(4)]
DOCKED: USER
DOCKED: USER    (1) Final Intermolecular Energy     =  -6.30 kcal/mol
DOCKED: USER        vdW + Hbond + desolv Energy     =  -6.30 kcal/mol
DOCKED: USER        Electrostatic Energy            =  +0.00 kcal/mol
DOCKED: USER        Moving Ligand-Fixed Receptor    =  -6.30 kcal/mol
DOCKED: USER        Moving Ligand-Moving Receptor   =  +0.00 kcal/mol
DOCKED: USER    (2) Final Total Internal Energy     =  -1.32 kcal/mol
DOCKED: USER    (3) Torsional Free Energy           =  +1.49 kcal/mol
DOCKED: USER    (4) Unbound System's Energy         =  -1.32 kcal/mol
DOCKED: USER
DOCKED: USER
DOCKED: REMARK  5 active torsions:
DOCKED: REMARK  status: ('A' for Active; 'I' for Inactive)
DOCKED: REMARK    1  A    between atoms: C_2  and  C_19 
DOCKED: REMARK    2  A    between atoms: C_2  and  C_11 
DOCKED: REMARK    3  A    between atoms: C_19  and  C_20 
DOCKED: REMARK    4  A    between atoms: C_20  and  C_21 
DOCKED: REMARK    5  A    between atoms: C_21  and  N_22 
DOCKED: USER                              x       y       z     vdW  Elec       q    Type
DOCKED: USER                           _______ _______ _______ _____ _____    ______ ____
DOCKED: ROOT
DOCKED: ATOM      1  O   UNL     1     -58.886 -36.046   8.335 -0.01 -0.00    -0.346 OA 
DOCKED: ATOM      2  C   UNL     1     -57.913 -37.136   8.257 -0.14 +0.00    +0.130 C  
DOCKED: ATOM      3  C   UNL     1     -58.185 -37.766   6.922 -0.30 +0.00    +0.004 A  
DOCKED: ATOM      4  C   UNL     1     -59.151 -37.033   6.247 -0.30 +0.00    +0.006 A  
DOCKED: ATOM      5  C   UNL     1     -59.571 -35.878   7.071 -0.18 +0.00    +0.169 C  
DOCKED: ATOM      6  C   UNL     1     -57.613 -38.891   6.345 -0.41 -0.00    -0.001 A  
DOCKED: ATOM      7  C   UNL     1     -59.581 -37.399   4.983 -0.02 +0.00    +0.008 A  
DOCKED: ATOM      8  C   UNL     1     -58.039 -39.276   5.073 -0.35 +0.00    +0.010 A  
DOCKED: ATOM      9  C   UNL     1     -59.018 -38.533   4.395 -0.43 +0.00    +0.068 A  
DOCKED: ATOM     10  N   UNL     1     -59.783 -39.271   2.032 -2.27 -0.00    -0.191 NA 
DOCKED: ATOM     11  C   UNL     1     -59.440 -38.940   3.092 -0.50 +0.00    +0.101 C  
DOCKED: ENDROOT
DOCKED: BRANCH   2  12
DOCKED: ATOM     12  C   UNL     1     -56.513 -36.542   8.360 -0.19 +0.00    +0.038 C  
DOCKED: BRANCH  12  13
DOCKED: ATOM     13  C   UNL     1     -56.385 -35.271   7.522 -0.19 +0.00    +0.038 C  
DOCKED: BRANCH  13  14
DOCKED: ATOM     14  C   UNL     1     -55.873 -34.106   8.367 -0.05 +0.00    +0.251 C  
DOCKED: BRANCH  14  15
DOCKED: ATOM     15  N   UNL     1     -56.989 -33.308   8.860 -0.02 +0.00    +0.141 N  
DOCKED: ATOM     16  C   UNL     1     -57.977 -33.092   7.801 -0.06 +0.00    +0.285 C  
DOCKED: ATOM     17  C   UNL     1     -57.616 -33.955  10.014 -0.00 +0.00    +0.285 C  
DOCKED: ENDBRANCH  14  15
DOCKED: ENDBRANCH  13  14
DOCKED: ENDBRANCH  12  13
DOCKED: ENDBRANCH   2  12
DOCKED: BRANCH   2  18
DOCKED: ATOM     18  C   UNL     1     -58.194 -38.053   9.401 -0.15 +0.00    +0.006 A  
DOCKED: ATOM     19  C   UNL     1     -57.148 -38.735  10.020 -0.16 +0.00    +0.001 A  
DOCKED: ATOM     20  C   UNL     1     -57.412 -39.592  11.089 -0.23 +0.00    +0.029 A  
DOCKED: ATOM     21  C   UNL     1     -58.720 -39.766  11.537 -0.03 +0.00    +0.140 A  
DOCKED: ATOM     22  C   UNL     1     -59.767 -39.083  10.917 -0.14 +0.00    +0.029 A  
DOCKED: ATOM     23  F   UNL     1     -58.973 -40.587  12.564 -0.04 -0.00    -0.204 F  
DOCKED: ATOM     24  C   UNL     1     -59.504 -38.226   9.847 -0.13 +0.00    +0.001 A  
DOCKED: ENDBRANCH   2  18
DOCKED: TORSDOF 5
DOCKED: TER
DOCKED: ENDMDL
________________________________________________________________________________


    FINAL DOCKED STATE:
    ________________________


Run:   169 / 512
Time taken for this run:   0.002s

DOCKED: MODEL        169
DOCKED: USER    Run = 169
DOCKED: USER
DOCKED: USER    Estimated Free Energy of Binding    =  -4.59 kcal/mol  [=(1)+(2)+(3)-(4)]
DOCKED: USER
DOCKED: USER    (1) Final Intermolecular Energy     =  -6.08 kcal/mol
DOCKED: USER        vdW + Hbond + desolv Energy     =  -6.08 kcal/mol
DOCKED: USER        Electrostatic Energy            =  +0.00 kcal/mol
DOCKED: USER        Moving Ligand-Fixed Receptor    =  -6.08 kcal/mol
DOCKED: USER        Moving Ligand-Moving Receptor   =  +0.00 kcal/mol
DOCKED: USER    (2) Final Total Internal Energy     =  -1.32 kcal/mol
DOCKED: USER    (3) Torsional Free Energy           =  +1.49 kcal/mol
DOCKED: USER    (4) Unbound System's Energy         =  -1.32 kcal/mol
DOCKED: USER
DOCKED: USER
DOCKED: REMARK  5 active torsions:
DOCKED: REMARK  status: ('A' for Active; 'I' for Inactive)
DOCKED: REMARK    1  A    between atoms: C_2  and  C_19 
DOCKED: REMARK    2  A    between atoms: C_2  and  C_11 
DOCKED: REMARK    3  A    between atoms: C_19  and  C_20 
DOCKED: REMARK    4  A    between atoms: C_20  and  C_21 
DOCKED: REMARK    5  A    between atoms: C_21  and  N_22 
DOCKED: USER                              x       y       z     vdW  Elec       q    Type
DOCKED: USER                           _______ _______ _______ _____ _____    ______ ____
DOCKED: ROOT
DOCKED: ATOM      1  O   UNL     1     -56.233 -29.975   1.696 -0.10 -0.00    -0.346 OA 
DOCKED: ATOM      2  C   UNL     1     -54.929 -29.969   1.030 -0.19 +0.00    +0.130 C  
DOCKED: ATOM      3  C   UNL     1     -55.218 -29.379  -0.319 -0.25 +0.00    +0.004 A  
DOCKED: ATOM      4  C   UNL     1     -56.546 -28.980  -0.380 -0.12 +0.00    +0.006 A  
DOCKED: ATOM      5  C   UNL     1     -57.215 -29.263   0.909 -0.21 +0.00    +0.169 C  
DOCKED: ATOM      6  C   UNL     1     -54.371 -29.199  -1.403 -0.24 -0.00    -0.001 A  
DOCKED: ATOM      7  C   UNL     1     -57.071 -28.395  -1.520 -0.07 +0.00    +0.008 A  
DOCKED: ATOM      8  C   UNL     1     -54.886 -28.614  -2.561 -0.29 +0.00    +0.010 A  
DOCKED: ATOM      9  C   UNL     1     -56.230 -28.214  -2.619 -0.29 +0.00    +0.068 A  
DOCKED: ATOM     10  N   UNL     1     -57.154 -27.128  -4.782 -2.45 -0.00    -0.191 NA 
DOCKED: ATOM     11  C   UNL     1     -56.739 -27.616  -3.812 -0.31 +0.00    +0.101 C  
DOCKED: ENDROOT
DOCKED: BRANCH   2  12
DOCKED: ATOM     12  C   UNL     1     -53.969 -29.121   1.856 -0.17 +0.00    +0.038 C  
DOCKED: BRANCH  12  13
DOCKED: ATOM     13  C   UNL     1     -54.638 -28.600   3.127 -0.17 +0.00    +0.038 C  
DOCKED: BRANCH  13  14
DOCKED: ATOM     14  C   UNL     1     -54.555 -29.629   4.253 -0.06 +0.00    +0.251 C  
DOCKED: BRANCH  14  15
DOCKED: ATOM     15  N   UNL     1     -55.703 -29.501   5.143 -0.04 +0.00    +0.141 N  
DOCKED: ATOM     16  C   UNL     1     -56.870 -30.181   4.580 -0.07 +0.00    +0.285 C  
DOCKED: ATOM     17  C   UNL     1     -55.391 -30.042   6.467 -0.01 +0.00    +0.285 C  
DOCKED: ENDBRANCH  14  15
DOCKED: ENDBRANCH  13  14
DOCKED: ENDBRANCH  12  13
DOCKED: ENDBRANCH   2  12
DOCKED: BRANCH   2  18
DOCKED: ATOM     18  C   UNL     1     -54.470 -31.387   0.959 -0.14 +0.00    +0.006 A  
DOCKED: ATOM     19  C   UNL     1     -55.358 -32.423   1.244 -0.22 +0.00    +0.001 A  
DOCKED: ATOM     20  C   UNL     1     -54.927 -33.748   1.177 -0.26 +0.00    +0.029 A  
DOCKED: ATOM     21  C   UNL     1     -53.609 -34.036   0.825 -0.18 +0.00    +0.140 A  
DOCKED: ATOM     22  C   UNL     1     -52.721 -32.999   0.539 -0.09 +0.00    +0.029 A  
DOCKED: ATOM     23  F   UNL     1     -53.196 -35.308   0.759 -0.09 -0.00    -0.204 F  
DOCKED: ATOM     24  C   UNL     1     -53.151 -31.673   0.606 -0.07 +0.00    +0.001 A  
DOCKED: ENDBRANCH   2  18
DOCKED: TORSDOF 5
DOCKED: TER
DOCKED: ENDMDL
________________________________________________________________________________


    FINAL DOCKED STATE:
    ________________________


Run:   170 / 512
Time taken for this run:   0.002s

DOCKED: MODEL        170
DOCKED: USER    Run = 170
DOCKED: USER
DOCKED: USER    Estimated Free Energy of Binding    =  -4.29 kcal/mol  [=(1)+(2)+(3)-(4)]
DOCKED: USER
DOCKED: USER    (1) Final Intermolecular Energy     =  -5.78 kcal/mol
DOCKED: USER        vdW + Hbond + desolv Energy     =  -5.78 kcal/mol
DOCKED: USER        Electrostatic Energy            =  +0.00 kcal/mol
DOCKED: USER        Moving Ligand-Fixed Receptor    =  -5.78 kcal/mol
DOCKED: USER        Moving Ligand-Moving Receptor   =  +0.00 kcal/mol
DOCKED: USER    (2) Final Total Internal Energy     =  -1.36 kcal/mol
DOCKED: USER    (3) Torsional Free Energy           =  +1.49 kcal/mol
DOCKED: USER    (4) Unbound System's Energy         =  -1.36 kcal/mol
DOCKED: USER
DOCKED: USER
DOCKED: REMARK  5 active torsions:
DOCKED: REMARK  status: ('A' for Active; 'I' for Inactive)
DOCKED: REMARK    1  A    between atoms: C_2  and  C_19 
DOCKED: REMARK    2  A    between atoms: C_2  and  C_11 
DOCKED: REMARK    3  A    between atoms: C_19  and  C_20 
DOCKED: REMARK    4  A    between atoms: C_20  and  C_21 
DOCKED: REMARK    5  A    between atoms: C_21  and  N_22 
DOCKED: USER                              x       y       z     vdW  Elec       q    Type
DOCKED: USER                           _______ _______ _______ _____ _____    ______ ____
DOCKED: ROOT
DOCKED: ATOM      1  O   UNL     1     -55.151 -35.864   8.652 -0.06 -0.00    -0.346 OA 
DOCKED: ATOM      2  C   UNL     1     -56.052 -35.019   7.866 -0.13 +0.00    +0.130 C  
DOCKED: ATOM      3  C   UNL     1     -56.970 -36.000   7.196 -0.22 +0.00    +0.004 A  
DOCKED: ATOM      4  C   UNL     1     -56.692 -37.283   7.644 -0.25 +0.00    +0.006 A  
DOCKED: ATOM      5  C   UNL     1     -55.595 -37.241   8.637 -0.17 +0.00    +0.169 C  
DOCKED: ATOM      6  C   UNL     1     -57.979 -35.772   6.271 -0.27 -0.00    -0.001 A  
DOCKED: ATOM      7  C   UNL     1     -57.404 -38.377   7.185 -0.34 +0.00    +0.008 A  
DOCKED: ATOM      8  C   UNL     1     -58.704 -36.866   5.795 -0.32 +0.00    +0.010 A  
DOCKED: ATOM      9  C   UNL     1     -58.418 -38.162   6.250 -0.31 +0.00    +0.068 A  
DOCKED: ATOM     10  N   UNL     1     -59.785 -40.170   5.349 -2.56 -0.00    -0.191 NA 
DOCKED: ATOM     11  C   UNL     1     -59.172 -39.269   5.752 -0.37 +0.00    +0.101 C  
DOCKED: ENDROOT
DOCKED: BRANCH   2  12
DOCKED: ATOM     12  C   UNL     1     -56.781 -34.077   8.816 -0.06 +0.00    +0.038 C  
DOCKED: BRANCH  12  13
DOCKED: ATOM     13  C   UNL     1     -55.824 -33.466   9.838 -0.02 +0.00    +0.038 C  
DOCKED: BRANCH  13  14
DOCKED: ATOM     14  C   UNL     1     -56.104 -34.001  11.241 -0.00 +0.00    +0.251 C  
DOCKED: BRANCH  14  15
DOCKED: ATOM     15  N   UNL     1     -55.605 -35.365  11.373 -0.01 +0.00    +0.141 N  
DOCKED: ATOM     16  C   UNL     1     -54.447 -35.406  12.268 -0.00 +0.00    +0.285 C  
DOCKED: ATOM     17  C   UNL     1     -56.659 -36.254  11.866 -0.01 +0.00    +0.285 C  
DOCKED: ENDBRANCH  14  15
DOCKED: ENDBRANCH  13  14
DOCKED: ENDBRANCH  12  13
DOCKED: ENDBRANCH   2  12
DOCKED: BRANCH   2  18
DOCKED: ATOM     18  C   UNL     1     -55.205 -34.261   6.899 -0.14 +0.00    +0.006 A  
DOCKED: ATOM     19  C   UNL     1     -55.801 -33.400   5.978 -0.15 +0.00    +0.001 A  
DOCKED: ATOM     20  C   UNL     1     -55.008 -32.691   5.075 -0.12 +0.00    +0.029 A  
DOCKED: ATOM     21  C   UNL     1     -53.622 -32.844   5.094 -0.08 +0.00    +0.140 A  
DOCKED: ATOM     22  C   UNL     1     -53.027 -33.705   6.016 -0.09 +0.00    +0.029 A  
DOCKED: ATOM     23  F   UNL     1     -52.862 -32.162   4.227 -0.00 -0.00    -0.204 F  
DOCKED: ATOM     24  C   UNL     1     -53.820 -34.414   6.920 -0.10 +0.00    +0.001 A  
DOCKED: ENDBRANCH   2  18
DOCKED: TORSDOF 5
DOCKED: TER
DOCKED: ENDMDL
________________________________________________________________________________


    FINAL DOCKED STATE:
    ________________________


Run:   171 / 512
Time taken for this run:   0.002s

DOCKED: MODEL        171
DOCKED: USER    Run = 171
DOCKED: USER
DOCKED: USER    Estimated Free Energy of Binding    =  -5.89 kcal/mol  [=(1)+(2)+(3)-(4)]
DOCKED: USER
DOCKED: USER    (1) Final Intermolecular Energy     =  -7.38 kcal/mol
DOCKED: USER        vdW + Hbond + desolv Energy     =  -7.38 kcal/mol
DOCKED: USER        Electrostatic Energy            =  +0.00 kcal/mol
DOCKED: USER        Moving Ligand-Fixed Receptor    =  -7.38 kcal/mol
DOCKED: USER        Moving Ligand-Moving Receptor   =  +0.00 kcal/mol
DOCKED: USER    (2) Final Total Internal Energy     =  -1.10 kcal/mol
DOCKED: USER    (3) Torsional Free Energy           =  +1.49 kcal/mol
DOCKED: USER    (4) Unbound System's Energy         =  -1.10 kcal/mol
DOCKED: USER
DOCKED: USER
DOCKED: REMARK  5 active torsions:
DOCKED: REMARK  status: ('A' for Active; 'I' for Inactive)
DOCKED: REMARK    1  A    between atoms: C_2  and  C_19 
DOCKED: REMARK    2  A    between atoms: C_2  and  C_11 
DOCKED: REMARK    3  A    between atoms: C_19  and  C_20 
DOCKED: REMARK    4  A    between atoms: C_20  and  C_21 
DOCKED: REMARK    5  A    between atoms: C_21  and  N_22 
DOCKED: USER                              x       y       z     vdW  Elec       q    Type
DOCKED: USER                           _______ _______ _______ _____ _____    ______ ____
DOCKED: ROOT
DOCKED: ATOM      1  O   UNL     1     -57.575 -36.233   7.888 -0.05 -0.00    -0.346 OA 
DOCKED: ATOM      2  C   UNL     1     -57.177 -37.640   7.843 -0.23 +0.00    +0.130 C  
DOCKED: ATOM      3  C   UNL     1     -57.715 -38.124   6.527 -0.35 +0.00    +0.004 A  
DOCKED: ATOM      4  C   UNL     1     -58.274 -37.061   5.832 -0.35 +0.00    +0.006 A  
DOCKED: ATOM      5  C   UNL     1     -58.136 -35.817   6.621 -0.23 +0.00    +0.169 C  
DOCKED: ATOM      6  C   UNL     1     -57.700 -39.400   5.984 -0.39 -0.00    -0.001 A  
DOCKED: ATOM      7  C   UNL     1     -58.838 -37.236   4.580 -0.08 +0.00    +0.008 A  
DOCKED: ATOM      8  C   UNL     1     -58.269 -39.594   4.724 -0.42 +0.00    +0.010 A  
DOCKED: ATOM      9  C   UNL     1     -58.835 -38.517   4.026 -0.42 +0.00    +0.068 A  
DOCKED: ATOM     10  N   UNL     1     -59.878 -38.909   1.687 -2.87 -0.00    -0.191 NA 
DOCKED: ATOM     11  C   UNL     1     -59.411 -38.733   2.736 -0.44 +0.00    +0.101 C  
DOCKED: ENDROOT
DOCKED: BRANCH   2  12
DOCKED: ATOM     12  C   UNL     1     -55.657 -37.715   7.926 -0.18 +0.00    +0.038 C  
DOCKED: BRANCH  12  13
DOCKED: ATOM     13  C   UNL     1     -55.084 -36.541   8.718 -0.18 +0.00    +0.038 C  
DOCKED: BRANCH  13  14
DOCKED: ATOM     14  C   UNL     1     -53.910 -35.901   7.980 -0.06 +0.00    +0.251 C  
DOCKED: BRANCH  14  15
DOCKED: ATOM     15  N   UNL     1     -54.090 -34.456   7.896 -0.07 +0.00    +0.141 N  
DOCKED: ATOM     16  C   UNL     1     -52.823 -33.763   8.131 -0.03 +0.00    +0.285 C  
DOCKED: ATOM     17  C   UNL     1     -54.641 -34.080   6.593 -0.08 +0.00    +0.285 C  
DOCKED: ENDBRANCH  14  15
DOCKED: ENDBRANCH  13  14
DOCKED: ENDBRANCH  12  13
DOCKED: ENDBRANCH   2  12
DOCKED: BRANCH   2  18
DOCKED: ATOM     18  C   UNL     1     -57.814 -38.312   9.013 -0.19 +0.00    +0.006 A  
DOCKED: ATOM     19  C   UNL     1     -57.082 -38.515  10.183 -0.16 +0.00    +0.001 A  
DOCKED: ATOM     20  C   UNL     1     -57.678 -39.144  11.277 -0.20 +0.00    +0.029 A  
DOCKED: ATOM     21  C   UNL     1     -59.004 -39.567  11.200 -0.06 +0.00    +0.140 A  
DOCKED: ATOM     22  C   UNL     1     -59.736 -39.362  10.030 -0.12 +0.00    +0.029 A  
DOCKED: ATOM     23  F   UNL     1     -59.577 -40.168  12.251 -0.03 -0.00    -0.204 F  
DOCKED: ATOM     24  C   UNL     1     -59.140 -38.734   8.935 -0.20 +0.00    +0.001 A  
DOCKED: ENDBRANCH   2  18
DOCKED: TORSDOF 5
DOCKED: TER
DOCKED: ENDMDL
________________________________________________________________________________


    FINAL DOCKED STATE:
    ________________________


Run:   172 / 512
Time taken for this run:   0.002s

DOCKED: MODEL        172
DOCKED: USER    Run = 172
DOCKED: USER
DOCKED: USER    Estimated Free Energy of Binding    =  -4.28 kcal/mol  [=(1)+(2)+(3)-(4)]
DOCKED: USER
DOCKED: USER    (1) Final Intermolecular Energy     =  -5.78 kcal/mol
DOCKED: USER        vdW + Hbond + desolv Energy     =  -5.78 kcal/mol
DOCKED: USER        Electrostatic Energy            =  +0.00 kcal/mol
DOCKED: USER        Moving Ligand-Fixed Receptor    =  -5.78 kcal/mol
DOCKED: USER        Moving Ligand-Moving Receptor   =  +0.00 kcal/mol
DOCKED: USER    (2) Final Total Internal Energy     =  -1.25 kcal/mol
DOCKED: USER    (3) Torsional Free Energy           =  +1.49 kcal/mol
DOCKED: USER    (4) Unbound System's Energy         =  -1.25 kcal/mol
DOCKED: USER
DOCKED: USER
DOCKED: REMARK  5 active torsions:
DOCKED: REMARK  status: ('A' for Active; 'I' for Inactive)
DOCKED: REMARK    1  A    between atoms: C_2  and  C_19 
DOCKED: REMARK    2  A    between atoms: C_2  and  C_11 
DOCKED: REMARK    3  A    between atoms: C_19  and  C_20 
DOCKED: REMARK    4  A    between atoms: C_20  and  C_21 
DOCKED: REMARK    5  A    between atoms: C_21  and  N_22 
DOCKED: USER                              x       y       z     vdW  Elec       q    Type
DOCKED: USER                           _______ _______ _______ _____ _____    ______ ____
DOCKED: ROOT
DOCKED: ATOM      1  O   UNL     1     -50.104 -38.426  -2.114 -0.02 -0.00    -0.346 OA 
DOCKED: ATOM      2  C   UNL     1     -50.086 -37.284  -1.200 -0.10 +0.00    +0.130 C  
DOCKED: ATOM      3  C   UNL     1     -50.574 -37.856   0.100 -0.13 +0.00    +0.004 A  
DOCKED: ATOM      4  C   UNL     1     -50.750 -39.226  -0.030 -0.18 +0.00    +0.006 A  
DOCKED: ATOM      5  C   UNL     1     -50.384 -39.652  -1.399 -0.07 +0.00    +0.169 C  
DOCKED: ATOM      6  C   UNL     1     -50.831 -37.216   1.304 -0.13 -0.00    -0.001 A  
DOCKED: ATOM      7  C   UNL     1     -51.189 -40.000   1.031 -0.29 +0.00    +0.008 A  
DOCKED: ATOM      8  C   UNL     1     -51.279 -37.982   2.381 -0.23 +0.00    +0.010 A  
DOCKED: ATOM      9  C   UNL     1     -51.457 -39.367   2.245 -0.31 +0.00    +0.068 A  
DOCKED: ATOM     10  N   UNL     1     -52.285 -40.759   4.267 -2.68 -0.00    -0.191 NA 
DOCKED: ATOM     11  C   UNL     1     -51.914 -40.134   3.360 -0.41 +0.00    +0.101 C  
DOCKED: ENDROOT
DOCKED: BRANCH   2  12
DOCKED: ATOM     12  C   UNL     1     -48.659 -36.755  -1.117 -0.02 +0.00    +0.038 C  
DOCKED: BRANCH  12  13
DOCKED: ATOM     13  C   UNL     1     -47.862 -37.471  -0.029 -0.02 +0.00    +0.038 C  
DOCKED: BRANCH  13  14
DOCKED: ATOM     14  C   UNL     1     -47.183 -38.724  -0.580 -0.01 +0.00    +0.251 C  
DOCKED: BRANCH  14  15
DOCKED: ATOM     15  N   UNL     1     -47.007 -39.712   0.478 -0.04 +0.00    +0.141 N  
DOCKED: ATOM     16  C   UNL     1     -45.586 -39.898   0.778 -0.03 +0.00    +0.285 C  
DOCKED: ATOM     17  C   UNL     1     -47.733 -39.311   1.684 -0.03 +0.00    +0.285 C  
DOCKED: ENDBRANCH  14  15
DOCKED: ENDBRANCH  13  14
DOCKED: ENDBRANCH  12  13
DOCKED: ENDBRANCH   2  12
DOCKED: BRANCH   2  18
DOCKED: ATOM     18  C   UNL     1     -51.009 -36.257  -1.766 -0.09 +0.00    +0.006 A  
DOCKED: ATOM     19  C   UNL     1     -51.285 -36.247  -3.133 -0.14 +0.00    +0.001 A  
DOCKED: ATOM     20  C   UNL     1     -52.148 -35.286  -3.661 -0.21 +0.00    +0.029 A  
DOCKED: ATOM     21  C   UNL     1     -52.733 -34.338  -2.823 -0.19 +0.00    +0.140 A  
DOCKED: ATOM     22  C   UNL     1     -52.457 -34.349  -1.456 -0.18 +0.00    +0.029 A  
DOCKED: ATOM     23  F   UNL     1     -53.563 -33.417  -3.330 -0.13 -0.00    -0.204 F  
DOCKED: ATOM     24  C   UNL     1     -51.593 -35.309  -0.927 -0.13 +0.00    +0.001 A  
DOCKED: ENDBRANCH   2  18
DOCKED: TORSDOF 5
DOCKED: TER
DOCKED: ENDMDL
________________________________________________________________________________


    FINAL DOCKED STATE:
    ________________________


Run:   173 / 512
Time taken for this run:   0.002s

DOCKED: MODEL        173
DOCKED: USER    Run = 173
DOCKED: USER
DOCKED: USER    Estimated Free Energy of Binding    =  -3.41 kcal/mol  [=(1)+(2)+(3)-(4)]
DOCKED: USER
DOCKED: USER    (1) Final Intermolecular Energy     =  -4.90 kcal/mol
DOCKED: USER        vdW + Hbond + desolv Energy     =  -4.90 kcal/mol
DOCKED: USER        Electrostatic Energy            =  +0.00 kcal/mol
DOCKED: USER        Moving Ligand-Fixed Receptor    =  -4.90 kcal/mol
DOCKED: USER        Moving Ligand-Moving Receptor   =  +0.00 kcal/mol
DOCKED: USER    (2) Final Total Internal Energy     =  -1.48 kcal/mol
DOCKED: USER    (3) Torsional Free Energy           =  +1.49 kcal/mol
DOCKED: USER    (4) Unbound System's Energy         =  -1.48 kcal/mol
DOCKED: USER
DOCKED: USER
DOCKED: REMARK  5 active torsions:
DOCKED: REMARK  status: ('A' for Active; 'I' for Inactive)
DOCKED: REMARK    1  A    between atoms: C_2  and  C_19 
DOCKED: REMARK    2  A    between atoms: C_2  and  C_11 
DOCKED: REMARK    3  A    between atoms: C_19  and  C_20 
DOCKED: REMARK    4  A    between atoms: C_20  and  C_21 
DOCKED: REMARK    5  A    between atoms: C_21  and  N_22 
DOCKED: USER                              x       y       z     vdW  Elec       q    Type
DOCKED: USER                           _______ _______ _______ _____ _____    ______ ____
DOCKED: ROOT
DOCKED: ATOM      1  O   UNL     1     -56.423 -36.722  10.310 -0.02 -0.00    -0.346 OA 
DOCKED: ATOM      2  C   UNL     1     -56.959 -35.748   9.358 -0.06 +0.00    +0.130 C  
DOCKED: ATOM      3  C   UNL     1     -57.544 -36.597   8.267 -0.15 +0.00    +0.004 A  
DOCKED: ATOM      4  C   UNL     1     -57.451 -37.937   8.616 -0.20 +0.00    +0.006 A  
DOCKED: ATOM      5  C   UNL     1     -56.818 -38.066   9.948 -0.12 +0.00    +0.169 C  
DOCKED: ATOM      6  C   UNL     1     -58.124 -36.214   7.066 -0.25 -0.00    -0.001 A  
DOCKED: ATOM      7  C   UNL     1     -57.925 -38.934   7.782 -0.30 +0.00    +0.008 A  
DOCKED: ATOM      8  C   UNL     1     -58.603 -37.208   6.212 -0.32 +0.00    +0.010 A  
DOCKED: ATOM      9  C   UNL     1     -58.505 -38.562   6.568 -0.29 +0.00    +0.068 A  
DOCKED: ATOM     10  N   UNL     1     -59.410 -40.382   4.961 -2.36 -0.00    -0.191 NA 
DOCKED: ATOM     11  C   UNL     1     -59.003 -39.565   5.682 -0.23 +0.00    +0.101 C  
DOCKED: ENDROOT
DOCKED: BRANCH   2  12
DOCKED: ATOM     12  C   UNL     1     -58.003 -34.898  10.073 -0.03 +0.00    +0.038 C  
DOCKED: BRANCH  12  13
DOCKED: ATOM     13  C   UNL     1     -59.407 -35.470   9.890 -0.04 +0.00    +0.038 C  
DOCKED: BRANCH  13  14
DOCKED: ATOM     14  C   UNL     1     -59.732 -36.487  10.982 -0.01 +0.00    +0.251 C  
DOCKED: BRANCH  14  15
DOCKED: ATOM     15  N   UNL     1     -60.679 -37.479  10.486 -0.03 +0.00    +0.141 N  
DOCKED: ATOM     16  C   UNL     1     -61.002 -37.226   9.081 -0.02 +0.00    +0.285 C  
DOCKED: ATOM     17  C   UNL     1     -60.141 -38.831  10.647 -0.06 +0.00    +0.285 C  
DOCKED: ENDBRANCH  14  15
DOCKED: ENDBRANCH  13  14
DOCKED: ENDBRANCH  12  13
DOCKED: ENDBRANCH   2  12
DOCKED: BRANCH   2  18
DOCKED: ATOM     18  C   UNL     1     -55.812 -34.915   8.894 -0.07 +0.00    +0.006 A  
DOCKED: ATOM     19  C   UNL     1     -54.794 -35.491   8.134 -0.13 +0.00    +0.001 A  
DOCKED: ATOM     20  C   UNL     1     -53.722 -34.710   7.701 -0.10 +0.00    +0.029 A  
DOCKED: ATOM     21  C   UNL     1     -53.668 -33.356   8.028 -0.03 +0.00    +0.140 A  
DOCKED: ATOM     22  C   UNL     1     -54.686 -32.780   8.788 -0.02 +0.00    +0.029 A  
DOCKED: ATOM     23  F   UNL     1     -52.640 -32.606   7.610 -0.00 -0.00    -0.204 F  
DOCKED: ATOM     24  C   UNL     1     -55.759 -33.561   9.222 -0.03 +0.00    +0.001 A  
DOCKED: ENDBRANCH   2  18
DOCKED: TORSDOF 5
DOCKED: TER
DOCKED: ENDMDL
________________________________________________________________________________


    FINAL DOCKED STATE:
    ________________________


Run:   174 / 512
Time taken for this run:   0.002s

DOCKED: MODEL        174
DOCKED: USER    Run = 174
DOCKED: USER
DOCKED: USER    Estimated Free Energy of Binding    =  -4.72 kcal/mol  [=(1)+(2)+(3)-(4)]
DOCKED: USER
DOCKED: USER    (1) Final Intermolecular Energy     =  -6.21 kcal/mol
DOCKED: USER        vdW + Hbond + desolv Energy     =  -6.21 kcal/mol
DOCKED: USER        Electrostatic Energy            =  +0.00 kcal/mol
DOCKED: USER        Moving Ligand-Fixed Receptor    =  -6.21 kcal/mol
DOCKED: USER        Moving Ligand-Moving Receptor   =  +0.00 kcal/mol
DOCKED: USER    (2) Final Total Internal Energy     =  -1.41 kcal/mol
DOCKED: USER    (3) Torsional Free Energy           =  +1.49 kcal/mol
DOCKED: USER    (4) Unbound System's Energy         =  -1.41 kcal/mol
DOCKED: USER
DOCKED: USER
DOCKED: REMARK  5 active torsions:
DOCKED: REMARK  status: ('A' for Active; 'I' for Inactive)
DOCKED: REMARK    1  A    between atoms: C_2  and  C_19 
DOCKED: REMARK    2  A    between atoms: C_2  and  C_11 
DOCKED: REMARK    3  A    between atoms: C_19  and  C_20 
DOCKED: REMARK    4  A    between atoms: C_20  and  C_21 
DOCKED: REMARK    5  A    between atoms: C_21  and  N_22 
DOCKED: USER                              x       y       z     vdW  Elec       q    Type
DOCKED: USER                           _______ _______ _______ _____ _____    ______ ____
DOCKED: ROOT
DOCKED: ATOM      1  O   UNL     1     -57.391 -38.838   8.978 -0.09 -0.00    -0.346 OA 
DOCKED: ATOM      2  C   UNL     1     -57.539 -37.454   8.524 -0.16 +0.00    +0.130 C  
DOCKED: ATOM      3  C   UNL     1     -57.998 -37.590   7.101 -0.28 +0.00    +0.004 A  
DOCKED: ATOM      4  C   UNL     1     -58.200 -38.930   6.801 -0.34 +0.00    +0.006 A  
DOCKED: ATOM      5  C   UNL     1     -57.907 -39.760   7.991 -0.13 +0.00    +0.169 C  
DOCKED: ATOM      6  C   UNL     1     -58.228 -36.606   6.151 -0.32 -0.00    -0.001 A  
DOCKED: ATOM      7  C   UNL     1     -58.633 -39.331   5.549 -0.41 +0.00    +0.008 A  
DOCKED: ATOM      8  C   UNL     1     -58.660 -36.994   4.882 -0.16 +0.00    +0.010 A  
DOCKED: ATOM      9  C   UNL     1     -58.862 -38.350   4.583 -0.40 +0.00    +0.068 A  
DOCKED: ATOM     10  N   UNL     1     -59.670 -39.036   2.218 -2.13 -0.00    -0.191 NA 
DOCKED: ATOM     11  C   UNL     1     -59.307 -38.729   3.279 -0.51 +0.00    +0.101 C  
DOCKED: ENDROOT
DOCKED: BRANCH   2  12
DOCKED: ATOM     12  C   UNL     1     -58.565 -36.762   9.414 -0.09 +0.00    +0.038 C  
DOCKED: BRANCH  12  13
DOCKED: ATOM     13  C   UNL     1     -59.992 -37.093   8.981 -0.10 +0.00    +0.038 C  
DOCKED: BRANCH  13  14
DOCKED: ATOM     14  C   UNL     1     -60.457 -38.415   9.588 -0.07 +0.00    +0.251 C  
DOCKED: BRANCH  14  15
DOCKED: ATOM     15  N   UNL     1     -61.090 -39.245   8.571 -0.15 +0.00    +0.141 N  
DOCKED: ATOM     16  C   UNL     1     -62.201 -40.008   9.144 -0.10 +0.00    +0.285 C  
DOCKED: ATOM     17  C   UNL     1     -61.562 -38.423   7.455 -0.08 +0.00    +0.285 C  
DOCKED: ENDBRANCH  14  15
DOCKED: ENDBRANCH  13  14
DOCKED: ENDBRANCH  12  13
DOCKED: ENDBRANCH   2  12
DOCKED: BRANCH   2  18
DOCKED: ATOM     18  C   UNL     1     -56.199 -36.809   8.645 -0.17 +0.00    +0.006 A  
DOCKED: ATOM     19  C   UNL     1     -56.090 -35.522   9.169 -0.08 +0.00    +0.001 A  
DOCKED: ATOM     20  C   UNL     1     -54.836 -34.920   9.280 -0.06 +0.00    +0.029 A  
DOCKED: ATOM     21  C   UNL     1     -53.694 -35.606   8.869 -0.07 +0.00    +0.140 A  
DOCKED: ATOM     22  C   UNL     1     -53.804 -36.894   8.345 -0.16 +0.00    +0.029 A  
DOCKED: ATOM     23  F   UNL     1     -52.491 -35.028   8.978 -0.00 -0.00    -0.204 F  
DOCKED: ATOM     24  C   UNL     1     -55.058 -37.496   8.232 -0.14 +0.00    +0.001 A  
DOCKED: ENDBRANCH   2  18
DOCKED: TORSDOF 5
DOCKED: TER
DOCKED: ENDMDL
________________________________________________________________________________


    FINAL DOCKED STATE:
    ________________________


Run:   175 / 512
Time taken for this run:   0.002s

DOCKED: MODEL        175
DOCKED: USER    Run = 175
DOCKED: USER
DOCKED: USER    Estimated Free Energy of Binding    =  -4.03 kcal/mol  [=(1)+(2)+(3)-(4)]
DOCKED: USER
DOCKED: USER    (1) Final Intermolecular Energy     =  -5.52 kcal/mol
DOCKED: USER        vdW + Hbond + desolv Energy     =  -5.52 kcal/mol
DOCKED: USER        Electrostatic Energy            =  +0.00 kcal/mol
DOCKED: USER        Moving Ligand-Fixed Receptor    =  -5.52 kcal/mol
DOCKED: USER        Moving Ligand-Moving Receptor   =  +0.00 kcal/mol
DOCKED: USER    (2) Final Total Internal Energy     =  -1.49 kcal/mol
DOCKED: USER    (3) Torsional Free Energy           =  +1.49 kcal/mol
DOCKED: USER    (4) Unbound System's Energy         =  -1.49 kcal/mol
DOCKED: USER
DOCKED: USER
DOCKED: REMARK  5 active torsions:
DOCKED: REMARK  status: ('A' for Active; 'I' for Inactive)
DOCKED: REMARK    1  A    between atoms: C_2  and  C_19 
DOCKED: REMARK    2  A    between atoms: C_2  and  C_11 
DOCKED: REMARK    3  A    between atoms: C_19  and  C_20 
DOCKED: REMARK    4  A    between atoms: C_20  and  C_21 
DOCKED: REMARK    5  A    between atoms: C_21  and  N_22 
DOCKED: USER                              x       y       z     vdW  Elec       q    Type
DOCKED: USER                           _______ _______ _______ _____ _____    ______ ____
DOCKED: ROOT
DOCKED: ATOM      1  O   UNL     1     -60.543 -33.722   7.628 -0.06 -0.00    -0.346 OA 
DOCKED: ATOM      2  C   UNL     1     -59.096 -33.929   7.573 -0.15 +0.00    +0.130 C  
DOCKED: ATOM      3  C   UNL     1     -58.952 -35.348   7.105 -0.22 +0.00    +0.004 A  
DOCKED: ATOM      4  C   UNL     1     -60.204 -35.872   6.812 -0.22 +0.00    +0.006 A  
DOCKED: ATOM      5  C   UNL     1     -61.245 -34.847   7.049 -0.19 +0.00    +0.169 C  
DOCKED: ATOM      6  C   UNL     1     -57.805 -36.111   6.942 -0.26 -0.00    -0.001 A  
DOCKED: ATOM      7  C   UNL     1     -60.352 -37.169   6.352 -0.24 +0.00    +0.008 A  
DOCKED: ATOM      8  C   UNL     1     -57.939 -37.423   6.483 -0.32 +0.00    +0.010 A  
DOCKED: ATOM      9  C   UNL     1     -59.206 -37.949   6.189 -0.27 +0.00    +0.068 A  
DOCKED: ATOM     10  N   UNL     1     -59.418 -40.385   5.335 -2.61 -0.00    -0.191 NA 
DOCKED: ATOM     11  C   UNL     1     -59.323 -39.293   5.719 -0.36 +0.00    +0.101 C  
DOCKED: ENDROOT
DOCKED: BRANCH   2  12
DOCKED: ATOM     12  C   UNL     1     -58.501 -32.920   6.598 -0.18 +0.00    +0.038 C  
DOCKED: BRANCH  12  13
DOCKED: ATOM     13  C   UNL     1     -59.572 -31.985   6.041 -0.18 +0.00    +0.038 C  
DOCKED: BRANCH  13  14
DOCKED: ATOM     14  C   UNL     1     -59.460 -30.592   6.658 -0.07 +0.00    +0.251 C  
DOCKED: BRANCH  14  15
DOCKED: ATOM     15  N   UNL     1     -60.637 -30.299   7.467 -0.03 +0.00    +0.141 N  
DOCKED: ATOM     16  C   UNL     1     -61.852 -30.769   6.800 -0.06 +0.00    +0.285 C  
DOCKED: ATOM     17  C   UNL     1     -60.517 -30.909   8.792 -0.01 +0.00    +0.285 C  
DOCKED: ENDBRANCH  14  15
DOCKED: ENDBRANCH  13  14
DOCKED: ENDBRANCH  12  13
DOCKED: ENDBRANCH   2  12
DOCKED: BRANCH   2  18
DOCKED: ATOM     18  C   UNL     1     -58.572 -33.716   8.954 -0.04 +0.00    +0.006 A  
DOCKED: ATOM     19  C   UNL     1     -59.242 -34.266  10.046 -0.02 +0.00    +0.001 A  
DOCKED: ATOM     20  C   UNL     1     -58.752 -34.066  11.337 -0.00 +0.00    +0.029 A  
DOCKED: ATOM     21  C   UNL     1     -57.592 -33.317  11.534 -0.00 +0.00    +0.140 A  
DOCKED: ATOM     22  C   UNL     1     -56.922 -32.767  10.441 -0.01 +0.00    +0.029 A  
DOCKED: ATOM     23  F   UNL     1     -57.121 -33.126  12.773 +0.00 -0.00    -0.204 F  
DOCKED: ATOM     24  C   UNL     1     -57.412 -32.966   9.150 -0.03 +0.00    +0.001 A  
DOCKED: ENDBRANCH   2  18
DOCKED: TORSDOF 5
DOCKED: TER
DOCKED: ENDMDL
________________________________________________________________________________


    FINAL DOCKED STATE:
    ________________________


Run:   176 / 512
Time taken for this run:   0.002s

DOCKED: MODEL        176
DOCKED: USER    Run = 176
DOCKED: USER
DOCKED: USER    Estimated Free Energy of Binding    =  -4.83 kcal/mol  [=(1)+(2)+(3)-(4)]
DOCKED: USER
DOCKED: USER    (1) Final Intermolecular Energy     =  -6.32 kcal/mol
DOCKED: USER        vdW + Hbond + desolv Energy     =  -6.32 kcal/mol
DOCKED: USER        Electrostatic Energy            =  +0.00 kcal/mol
DOCKED: USER        Moving Ligand-Fixed Receptor    =  -6.32 kcal/mol
DOCKED: USER        Moving Ligand-Moving Receptor   =  +0.00 kcal/mol
DOCKED: USER    (2) Final Total Internal Energy     =  -0.88 kcal/mol
DOCKED: USER    (3) Torsional Free Energy           =  +1.49 kcal/mol
DOCKED: USER    (4) Unbound System's Energy         =  -0.88 kcal/mol
DOCKED: USER
DOCKED: USER
DOCKED: REMARK  5 active torsions:
DOCKED: REMARK  status: ('A' for Active; 'I' for Inactive)
DOCKED: REMARK    1  A    between atoms: C_2  and  C_19 
DOCKED: REMARK    2  A    between atoms: C_2  and  C_11 
DOCKED: REMARK    3  A    between atoms: C_19  and  C_20 
DOCKED: REMARK    4  A    between atoms: C_20  and  C_21 
DOCKED: REMARK    5  A    between atoms: C_21  and  N_22 
DOCKED: USER                              x       y       z     vdW  Elec       q    Type
DOCKED: USER                           _______ _______ _______ _____ _____    ______ ____
DOCKED: ROOT
DOCKED: ATOM      1  O   UNL     1     -55.329 -29.961   0.490 -0.10 -0.00    -0.346 OA 
DOCKED: ATOM      2  C   UNL     1     -54.086 -29.883  -0.279 -0.17 +0.00    +0.130 C  
DOCKED: ATOM      3  C   UNL     1     -54.487 -29.171  -1.539 -0.25 +0.00    +0.004 A  
DOCKED: ATOM      4  C   UNL     1     -55.815 -28.779  -1.451 -0.29 +0.00    +0.006 A  
DOCKED: ATOM      5  C   UNL     1     -56.374 -29.185  -0.142 -0.24 +0.00    +0.169 C  
DOCKED: ATOM      6  C   UNL     1     -53.733 -28.884  -2.667 -0.20 -0.00    -0.001 A  
DOCKED: ATOM      7  C   UNL     1     -56.433 -28.094  -2.484 -0.39 +0.00    +0.008 A  
DOCKED: ATOM      8  C   UNL     1     -54.343 -28.199  -3.719 -0.26 +0.00    +0.010 A  
DOCKED: ATOM      9  C   UNL     1     -55.687 -27.805  -3.627 -0.27 +0.00    +0.068 A  
DOCKED: ATOM     10  N   UNL     1     -56.788 -26.529  -5.594 -2.53 -0.00    -0.191 NA 
DOCKED: ATOM     11  C   UNL     1     -56.294 -27.102  -4.712 -0.30 +0.00    +0.101 C  
DOCKED: ENDROOT
DOCKED: BRANCH   2  12
DOCKED: ATOM     12  C   UNL     1     -53.060 -29.108   0.540 -0.16 +0.00    +0.038 C  
DOCKED: BRANCH  12  13
DOCKED: ATOM     13  C   UNL     1     -52.544 -27.890  -0.223 -0.10 +0.00    +0.038 C  
DOCKED: BRANCH  13  14
DOCKED: ATOM     14  C   UNL     1     -51.017 -27.847  -0.221 -0.08 +0.00    +0.251 C  
DOCKED: BRANCH  14  15
DOCKED: ATOM     15  N   UNL     1     -50.525 -27.236  -1.451 -0.04 +0.00    +0.141 N  
DOCKED: ATOM     16  C   UNL     1     -50.600 -25.777  -1.368 -0.05 +0.00    +0.285 C  
DOCKED: ATOM     17  C   UNL     1     -49.151 -27.660  -1.723 -0.00 +0.00    +0.285 C  
DOCKED: ENDBRANCH  14  15
DOCKED: ENDBRANCH  13  14
DOCKED: ENDBRANCH  12  13
DOCKED: ENDBRANCH   2  12
DOCKED: BRANCH   2  18
DOCKED: ATOM     18  C   UNL     1     -53.634 -31.284  -0.520 -0.13 +0.00    +0.006 A  
DOCKED: ATOM     19  C   UNL     1     -53.900 -31.901  -1.742 -0.21 +0.00    +0.001 A  
DOCKED: ATOM     20  C   UNL     1     -53.477 -33.211  -1.967 -0.18 +0.00    +0.029 A  
DOCKED: ATOM     21  C   UNL     1     -52.789 -33.903  -0.971 -0.15 +0.00    +0.140 A  
DOCKED: ATOM     22  C   UNL     1     -52.523 -33.285   0.251 -0.09 +0.00    +0.029 A  
DOCKED: ATOM     23  F   UNL     1     -52.382 -35.160  -1.188 -0.08 -0.00    -0.204 F  
DOCKED: ATOM     24  C   UNL     1     -52.947 -31.974   0.477 -0.07 +0.00    +0.001 A  
DOCKED: ENDBRANCH   2  18
DOCKED: TORSDOF 5
DOCKED: TER
DOCKED: ENDMDL
________________________________________________________________________________


    FINAL DOCKED STATE:
    ________________________


Run:   177 / 512
Time taken for this run:   0.002s

DOCKED: MODEL        177
DOCKED: USER    Run = 177
DOCKED: USER
DOCKED: USER    Estimated Free Energy of Binding    =  -4.34 kcal/mol  [=(1)+(2)+(3)-(4)]
DOCKED: USER
DOCKED: USER    (1) Final Intermolecular Energy     =  -5.83 kcal/mol
DOCKED: USER        vdW + Hbond + desolv Energy     =  -5.83 kcal/mol
DOCKED: USER        Electrostatic Energy            =  +0.00 kcal/mol
DOCKED: USER        Moving Ligand-Fixed Receptor    =  -5.83 kcal/mol
DOCKED: USER        Moving Ligand-Moving Receptor   =  +0.00 kcal/mol
DOCKED: USER    (2) Final Total Internal Energy     =  -1.43 kcal/mol
DOCKED: USER    (3) Torsional Free Energy           =  +1.49 kcal/mol
DOCKED: USER    (4) Unbound System's Energy         =  -1.43 kcal/mol
DOCKED: USER
DOCKED: USER
DOCKED: REMARK  5 active torsions:
DOCKED: REMARK  status: ('A' for Active; 'I' for Inactive)
DOCKED: REMARK    1  A    between atoms: C_2  and  C_19 
DOCKED: REMARK    2  A    between atoms: C_2  and  C_11 
DOCKED: REMARK    3  A    between atoms: C_19  and  C_20 
DOCKED: REMARK    4  A    between atoms: C_20  and  C_21 
DOCKED: REMARK    5  A    between atoms: C_21  and  N_22 
DOCKED: USER                              x       y       z     vdW  Elec       q    Type
DOCKED: USER                           _______ _______ _______ _____ _____    ______ ____
DOCKED: ROOT
DOCKED: ATOM      1  O   UNL     1     -53.319 -30.389  -0.318 -0.02 -0.00    -0.346 OA 
DOCKED: ATOM      2  C   UNL     1     -54.723 -30.322   0.088 -0.19 +0.00    +0.130 C  
DOCKED: ATOM      3  C   UNL     1     -55.366 -29.479  -0.975 -0.29 +0.00    +0.004 A  
DOCKED: ATOM      4  C   UNL     1     -54.435 -29.182  -1.961 -0.25 +0.00    +0.006 A  
DOCKED: ATOM      5  C   UNL     1     -53.136 -29.809  -1.630 -0.11 +0.00    +0.169 C  
DOCKED: ATOM      6  C   UNL     1     -56.672 -29.021  -1.068 +0.03 -0.00    -0.001 A  
DOCKED: ATOM      7  C   UNL     1     -54.774 -28.419  -3.065 -0.27 +0.00    +0.008 A  
DOCKED: ATOM      8  C   UNL     1     -57.028 -28.246  -2.173 -0.35 +0.00    +0.010 A  
DOCKED: ATOM      9  C   UNL     1     -56.084 -27.947  -3.166 -0.28 +0.00    +0.068 A  
DOCKED: ATOM     10  N   UNL     1     -56.779 -26.510  -5.207 -2.38 -0.00    -0.191 NA 
DOCKED: ATOM     11  C   UNL     1     -56.467 -27.154  -4.292 -0.29 +0.00    +0.101 C  
DOCKED: ENDROOT
DOCKED: BRANCH   2  12
DOCKED: ATOM     12  C   UNL     1     -55.279 -31.741   0.137 -0.25 +0.00    +0.038 C  
DOCKED: BRANCH  12  13
DOCKED: ATOM     13  C   UNL     1     -54.164 -32.779   0.040 -0.20 +0.00    +0.038 C  
DOCKED: BRANCH  13  14
DOCKED: ATOM     14  C   UNL     1     -53.303 -32.782   1.301 -0.07 +0.00    +0.251 C  
DOCKED: BRANCH  14  15
DOCKED: ATOM     15  N   UNL     1     -51.926 -32.426   0.977 -0.02 +0.00    +0.141 N  
DOCKED: ATOM     16  C   UNL     1     -51.055 -32.624   2.136 -0.00 +0.00    +0.285 C  
DOCKED: ATOM     17  C   UNL     1     -51.445 -33.212  -0.160 -0.02 +0.00    +0.285 C  
DOCKED: ENDBRANCH  14  15
DOCKED: ENDBRANCH  13  14
DOCKED: ENDBRANCH  12  13
DOCKED: ENDBRANCH   2  12
DOCKED: BRANCH   2  18
DOCKED: ATOM     18  C   UNL     1     -54.758 -29.684   1.437 -0.19 +0.00    +0.006 A  
DOCKED: ATOM     19  C   UNL     1     -55.903 -29.784   2.226 -0.21 +0.00    +0.001 A  
DOCKED: ATOM     20  C   UNL     1     -55.934 -29.186   3.487 -0.16 +0.00    +0.029 A  
DOCKED: ATOM     21  C   UNL     1     -54.821 -28.490   3.956 -0.13 +0.00    +0.140 A  
DOCKED: ATOM     22  C   UNL     1     -53.676 -28.390   3.166 +0.01 +0.00    +0.029 A  
DOCKED: ATOM     23  F   UNL     1     -54.850 -27.918   5.166 -0.04 -0.00    -0.204 F  
DOCKED: ATOM     24  C   UNL     1     -53.644 -28.988   1.904 -0.14 +0.00    +0.001 A  
DOCKED: ENDBRANCH   2  18
DOCKED: TORSDOF 5
DOCKED: TER
DOCKED: ENDMDL
________________________________________________________________________________


    FINAL DOCKED STATE:
    ________________________


Run:   178 / 512
Time taken for this run:   0.002s

DOCKED: MODEL        178
DOCKED: USER    Run = 178
DOCKED: USER
DOCKED: USER    Estimated Free Energy of Binding    =  -3.97 kcal/mol  [=(1)+(2)+(3)-(4)]
DOCKED: USER
DOCKED: USER    (1) Final Intermolecular Energy     =  -5.46 kcal/mol
DOCKED: USER        vdW + Hbond + desolv Energy     =  -5.46 kcal/mol
DOCKED: USER        Electrostatic Energy            =  +0.00 kcal/mol
DOCKED: USER        Moving Ligand-Fixed Receptor    =  -5.46 kcal/mol
DOCKED: USER        Moving Ligand-Moving Receptor   =  +0.00 kcal/mol
DOCKED: USER    (2) Final Total Internal Energy     =  -1.41 kcal/mol
DOCKED: USER    (3) Torsional Free Energy           =  +1.49 kcal/mol
DOCKED: USER    (4) Unbound System's Energy         =  -1.41 kcal/mol
DOCKED: USER
DOCKED: USER
DOCKED: REMARK  5 active torsions:
DOCKED: REMARK  status: ('A' for Active; 'I' for Inactive)
DOCKED: REMARK    1  A    between atoms: C_2  and  C_19 
DOCKED: REMARK    2  A    between atoms: C_2  and  C_11 
DOCKED: REMARK    3  A    between atoms: C_19  and  C_20 
DOCKED: REMARK    4  A    between atoms: C_20  and  C_21 
DOCKED: REMARK    5  A    between atoms: C_21  and  N_22 
DOCKED: USER                              x       y       z     vdW  Elec       q    Type
DOCKED: USER                           _______ _______ _______ _____ _____    ______ ____
DOCKED: ROOT
DOCKED: ATOM      1  O   UNL     1     -58.463 -34.684   9.387 -0.00 -0.00    -0.346 OA 
DOCKED: ATOM      2  C   UNL     1     -57.848 -34.437   8.082 -0.09 +0.00    +0.130 C  
DOCKED: ATOM      3  C   UNL     1     -58.155 -35.681   7.299 -0.21 +0.00    +0.004 A  
DOCKED: ATOM      4  C   UNL     1     -58.968 -36.517   8.051 -0.13 +0.00    +0.006 A  
DOCKED: ATOM      5  C   UNL     1     -59.261 -35.890   9.359 -0.04 +0.00    +0.169 C  
DOCKED: ATOM      6  C   UNL     1     -57.757 -36.039   6.020 -0.23 -0.00    -0.001 A  
DOCKED: ATOM      7  C   UNL     1     -59.405 -37.734   7.556 -0.18 +0.00    +0.008 A  
DOCKED: ATOM      8  C   UNL     1     -58.186 -37.264   5.507 -0.31 +0.00    +0.010 A  
DOCKED: ATOM      9  C   UNL     1     -59.006 -38.108   6.272 -0.27 +0.00    +0.068 A  
DOCKED: ATOM     10  N   UNL     1     -59.787 -40.374   5.290 -2.52 -0.00    -0.191 NA 
DOCKED: ATOM     11  C   UNL     1     -59.436 -39.358   5.731 -0.33 +0.00    +0.101 C  
DOCKED: ENDROOT
DOCKED: BRANCH   2  12
DOCKED: ATOM     12  C   UNL     1     -58.478 -33.187   7.481 -0.14 +0.00    +0.038 C  
DOCKED: BRANCH  12  13
DOCKED: ATOM     13  C   UNL     1     -59.774 -33.516   6.742 -0.24 +0.00    +0.038 C  
DOCKED: BRANCH  13  14
DOCKED: ATOM     14  C   UNL     1     -60.975 -32.859   7.420 -0.12 +0.00    +0.251 C  
DOCKED: BRANCH  14  15
DOCKED: ATOM     15  N   UNL     1     -62.059 -33.822   7.574 -0.13 +0.00    +0.141 N  
DOCKED: ATOM     16  C   UNL     1     -61.761 -35.056   6.846 -0.13 +0.00    +0.285 C  
DOCKED: ATOM     17  C   UNL     1     -62.295 -34.112   8.989 -0.01 +0.00    +0.285 C  
DOCKED: ENDBRANCH  14  15
DOCKED: ENDBRANCH  13  14
DOCKED: ENDBRANCH  12  13
DOCKED: ENDBRANCH   2  12
DOCKED: BRANCH   2  18
DOCKED: ATOM     18  C   UNL     1     -56.387 -34.245   8.317 -0.08 +0.00    +0.006 A  
DOCKED: ATOM     19  C   UNL     1     -55.588 -35.333   8.665 -0.10 +0.00    +0.001 A  
DOCKED: ATOM     20  C   UNL     1     -54.222 -35.151   8.885 -0.08 +0.00    +0.029 A  
DOCKED: ATOM     21  C   UNL     1     -53.658 -33.883   8.757 -0.03 +0.00    +0.140 A  
DOCKED: ATOM     22  C   UNL     1     -54.458 -32.795   8.409 -0.03 +0.00    +0.029 A  
DOCKED: ATOM     23  F   UNL     1     -52.346 -33.709   8.966 -0.00 -0.00    -0.204 F  
DOCKED: ATOM     24  C   UNL     1     -55.824 -32.975   8.189 -0.05 +0.00    +0.001 A  
DOCKED: ENDBRANCH   2  18
DOCKED: TORSDOF 5
DOCKED: TER
DOCKED: ENDMDL
________________________________________________________________________________


    FINAL DOCKED STATE:
    ________________________


Run:   179 / 512
Time taken for this run:   0.002s

DOCKED: MODEL        179
DOCKED: USER    Run = 179
DOCKED: USER
DOCKED: USER    Estimated Free Energy of Binding    =  -3.58 kcal/mol  [=(1)+(2)+(3)-(4)]
DOCKED: USER
DOCKED: USER    (1) Final Intermolecular Energy     =  -5.07 kcal/mol
DOCKED: USER        vdW + Hbond + desolv Energy     =  -5.07 kcal/mol
DOCKED: USER        Electrostatic Energy            =  +0.00 kcal/mol
DOCKED: USER        Moving Ligand-Fixed Receptor    =  -5.07 kcal/mol
DOCKED: USER        Moving Ligand-Moving Receptor   =  +0.00 kcal/mol
DOCKED: USER    (2) Final Total Internal Energy     =  -1.39 kcal/mol
DOCKED: USER    (3) Torsional Free Energy           =  +1.49 kcal/mol
DOCKED: USER    (4) Unbound System's Energy         =  -1.39 kcal/mol
DOCKED: USER
DOCKED: USER
DOCKED: REMARK  5 active torsions:
DOCKED: REMARK  status: ('A' for Active; 'I' for Inactive)
DOCKED: REMARK    1  A    between atoms: C_2  and  C_19 
DOCKED: REMARK    2  A    between atoms: C_2  and  C_11 
DOCKED: REMARK    3  A    between atoms: C_19  and  C_20 
DOCKED: REMARK    4  A    between atoms: C_20  and  C_21 
DOCKED: REMARK    5  A    between atoms: C_21  and  N_22 
DOCKED: USER                              x       y       z     vdW  Elec       q    Type
DOCKED: USER                           _______ _______ _______ _____ _____    ______ ____
DOCKED: ROOT
DOCKED: ATOM      1  O   UNL     1     -53.225 -34.397   1.488 -0.04 -0.00    -0.346 OA 
DOCKED: ATOM      2  C   UNL     1     -52.303 -34.347   2.623 -0.11 +0.00    +0.130 C  
DOCKED: ATOM      3  C   UNL     1     -52.099 -35.790   2.984 -0.18 +0.00    +0.004 A  
DOCKED: ATOM      4  C   UNL     1     -52.757 -36.598   2.068 -0.29 +0.00    +0.006 A  
DOCKED: ATOM      5  C   UNL     1     -53.422 -35.760   1.045 -0.25 +0.00    +0.169 C  
DOCKED: ATOM      6  C   UNL     1     -51.378 -36.344   4.032 -0.16 -0.00    -0.001 A  
DOCKED: ATOM      7  C   UNL     1     -52.722 -37.978   2.169 -0.31 +0.00    +0.008 A  
DOCKED: ATOM      8  C   UNL     1     -51.337 -37.734   4.151 -0.20 +0.00    +0.010 A  
DOCKED: ATOM      9  C   UNL     1     -52.006 -38.547   3.223 -0.21 +0.00    +0.068 A  
DOCKED: ATOM     10  N   UNL     1     -51.906 -41.124   3.469 -2.13 -0.00    -0.191 NA 
DOCKED: ATOM     11  C   UNL     1     -51.951 -39.968   3.359 -0.40 +0.00    +0.101 C  
DOCKED: ENDROOT
DOCKED: BRANCH   2  12
DOCKED: ATOM     12  C   UNL     1     -51.019 -33.661   2.172 -0.04 +0.00    +0.038 C  
DOCKED: BRANCH  12  13
DOCKED: ATOM     13  C   UNL     1     -51.275 -32.716   1.000 -0.02 +0.00    +0.038 C  
DOCKED: BRANCH  13  14
DOCKED: ATOM     14  C   UNL     1     -51.692 -31.331   1.492 -0.01 +0.00    +0.251 C  
DOCKED: BRANCH  14  15
DOCKED: ATOM     15  N   UNL     1     -52.812 -30.829   0.705 -0.04 +0.00    +0.141 N  
DOCKED: ATOM     16  C   UNL     1     -54.073 -31.019   1.422 -0.06 +0.00    +0.285 C  
DOCKED: ATOM     17  C   UNL     1     -52.621 -29.414   0.380 -0.08 +0.00    +0.285 C  
DOCKED: ENDBRANCH  14  15
DOCKED: ENDBRANCH  13  14
DOCKED: ENDBRANCH  12  13
DOCKED: ENDBRANCH   2  12
DOCKED: BRANCH   2  18
DOCKED: ATOM     18  C   UNL     1     -52.979 -33.568   3.701 -0.12 +0.00    +0.006 A  
DOCKED: ATOM     19  C   UNL     1     -52.228 -33.013   4.737 -0.06 +0.00    +0.001 A  
DOCKED: ATOM     20  C   UNL     1     -52.862 -32.286   5.744 -0.04 +0.00    +0.029 A  
DOCKED: ATOM     21  C   UNL     1     -54.245 -32.113   5.715 -0.05 +0.00    +0.140 A  
DOCKED: ATOM     22  C   UNL     1     -54.996 -32.668   4.679 -0.12 +0.00    +0.029 A  
DOCKED: ATOM     23  F   UNL     1     -54.853 -31.413   6.682 -0.00 -0.00    -0.204 F  
DOCKED: ATOM     24  C   UNL     1     -54.363 -33.397   3.671 -0.15 +0.00    +0.001 A  
DOCKED: ENDBRANCH   2  18
DOCKED: TORSDOF 5
DOCKED: TER
DOCKED: ENDMDL
________________________________________________________________________________


    FINAL DOCKED STATE:
    ________________________


Run:   180 / 512
Time taken for this run:   0.002s

DOCKED: MODEL        180
DOCKED: USER    Run = 180
DOCKED: USER
DOCKED: USER    Estimated Free Energy of Binding    =  -5.58 kcal/mol  [=(1)+(2)+(3)-(4)]
DOCKED: USER
DOCKED: USER    (1) Final Intermolecular Energy     =  -7.07 kcal/mol
DOCKED: USER        vdW + Hbond + desolv Energy     =  -7.07 kcal/mol
DOCKED: USER        Electrostatic Energy            =  +0.00 kcal/mol
DOCKED: USER        Moving Ligand-Fixed Receptor    =  -7.07 kcal/mol
DOCKED: USER        Moving Ligand-Moving Receptor   =  +0.00 kcal/mol
DOCKED: USER    (2) Final Total Internal Energy     =  -1.33 kcal/mol
DOCKED: USER    (3) Torsional Free Energy           =  +1.49 kcal/mol
DOCKED: USER    (4) Unbound System's Energy         =  -1.33 kcal/mol
DOCKED: USER
DOCKED: USER
DOCKED: REMARK  5 active torsions:
DOCKED: REMARK  status: ('A' for Active; 'I' for Inactive)
DOCKED: REMARK    1  A    between atoms: C_2  and  C_19 
DOCKED: REMARK    2  A    between atoms: C_2  and  C_11 
DOCKED: REMARK    3  A    between atoms: C_19  and  C_20 
DOCKED: REMARK    4  A    between atoms: C_20  and  C_21 
DOCKED: REMARK    5  A    between atoms: C_21  and  N_22 
DOCKED: USER                              x       y       z     vdW  Elec       q    Type
DOCKED: USER                           _______ _______ _______ _____ _____    ______ ____
DOCKED: ROOT
DOCKED: ATOM      1  O   UNL     1     -57.062 -38.504   7.988 -0.13 -0.00    -0.346 OA 
DOCKED: ATOM      2  C   UNL     1     -58.396 -37.903   8.044 -0.17 +0.00    +0.130 C  
DOCKED: ATOM      3  C   UNL     1     -58.932 -38.087   6.654 -0.29 +0.00    +0.004 A  
DOCKED: ATOM      4  C   UNL     1     -58.031 -38.826   5.900 -0.41 +0.00    +0.006 A  
DOCKED: ATOM      5  C   UNL     1     -56.860 -39.187   6.729 -0.27 +0.00    +0.169 C  
DOCKED: ATOM      6  C   UNL     1     -60.127 -37.646   6.103 -0.28 -0.00    -0.001 A  
DOCKED: ATOM      7  C   UNL     1     -58.288 -39.144   4.577 -0.41 +0.00    +0.008 A  
DOCKED: ATOM      8  C   UNL     1     -60.399 -37.955   4.770 -0.17 +0.00    +0.010 A  
DOCKED: ATOM      9  C   UNL     1     -59.484 -38.700   4.011 -0.43 +0.00    +0.068 A  
DOCKED: ATOM     10  N   UNL     1     -60.023 -39.260   1.539 -2.79 -0.00    -0.191 NA 
DOCKED: ATOM     11  C   UNL     1     -59.781 -39.009   2.647 -0.31 +0.00    +0.101 C  
DOCKED: ENDROOT
DOCKED: BRANCH   2  12
DOCKED: ATOM     12  C   UNL     1     -59.213 -38.640   9.098 -0.20 +0.00    +0.038 C  
DOCKED: BRANCH  12  13
DOCKED: ATOM     13  C   UNL     1     -58.361 -39.660   9.851 -0.21 +0.00    +0.038 C  
DOCKED: BRANCH  13  14
DOCKED: ATOM     14  C   UNL     1     -57.957 -39.130  11.225 -0.14 +0.00    +0.251 C  
DOCKED: BRANCH  14  15
DOCKED: ATOM     15  N   UNL     1     -56.506 -39.132  11.363 -0.15 +0.00    +0.141 N  
DOCKED: ATOM     16  C   UNL     1     -55.971 -37.779  11.208 -0.06 +0.00    +0.285 C  
DOCKED: ATOM     17  C   UNL     1     -56.112 -39.689  12.658 -0.13 +0.00    +0.285 C  
DOCKED: ENDBRANCH  14  15
DOCKED: ENDBRANCH  13  14
DOCKED: ENDBRANCH  12  13
DOCKED: ENDBRANCH   2  12
DOCKED: BRANCH   2  18
DOCKED: ATOM     18  C   UNL     1     -58.213 -36.468   8.411 -0.12 +0.00    +0.006 A  
DOCKED: ATOM     19  C   UNL     1     -58.397 -36.058   9.731 -0.05 +0.00    +0.001 A  
DOCKED: ATOM     20  C   UNL     1     -58.225 -34.716  10.073 -0.02 +0.00    +0.029 A  
DOCKED: ATOM     21  C   UNL     1     -57.871 -33.787   9.096 -0.02 +0.00    +0.140 A  
DOCKED: ATOM     22  C   UNL     1     -57.687 -34.198   7.776 -0.12 +0.00    +0.029 A  
DOCKED: ATOM     23  F   UNL     1     -57.705 -32.500   9.425 +0.00 -0.00    -0.204 F  
DOCKED: ATOM     24  C   UNL     1     -57.858 -35.540   7.433 -0.20 +0.00    +0.001 A  
DOCKED: ENDBRANCH   2  18
DOCKED: TORSDOF 5
DOCKED: TER
DOCKED: ENDMDL
________________________________________________________________________________


    FINAL DOCKED STATE:
    ________________________


Run:   181 / 512
Time taken for this run:   0.002s

DOCKED: MODEL        181
DOCKED: USER    Run = 181
DOCKED: USER
DOCKED: USER    Estimated Free Energy of Binding    =  -4.26 kcal/mol  [=(1)+(2)+(3)-(4)]
DOCKED: USER
DOCKED: USER    (1) Final Intermolecular Energy     =  -5.75 kcal/mol
DOCKED: USER        vdW + Hbond + desolv Energy     =  -5.75 kcal/mol
DOCKED: USER        Electrostatic Energy            =  +0.00 kcal/mol
DOCKED: USER        Moving Ligand-Fixed Receptor    =  -5.75 kcal/mol
DOCKED: USER        Moving Ligand-Moving Receptor   =  +0.00 kcal/mol
DOCKED: USER    (2) Final Total Internal Energy     =  -1.25 kcal/mol
DOCKED: USER    (3) Torsional Free Energy           =  +1.49 kcal/mol
DOCKED: USER    (4) Unbound System's Energy         =  -1.25 kcal/mol
DOCKED: USER
DOCKED: USER
DOCKED: REMARK  5 active torsions:
DOCKED: REMARK  status: ('A' for Active; 'I' for Inactive)
DOCKED: REMARK    1  A    between atoms: C_2  and  C_19 
DOCKED: REMARK    2  A    between atoms: C_2  and  C_11 
DOCKED: REMARK    3  A    between atoms: C_19  and  C_20 
DOCKED: REMARK    4  A    between atoms: C_20  and  C_21 
DOCKED: REMARK    5  A    between atoms: C_21  and  N_22 
DOCKED: USER                              x       y       z     vdW  Elec       q    Type
DOCKED: USER                           _______ _______ _______ _____ _____    ______ ____
DOCKED: ROOT
DOCKED: ATOM      1  O   UNL     1     -55.095 -35.894   8.646 -0.07 -0.00    -0.346 OA 
DOCKED: ATOM      2  C   UNL     1     -56.023 -35.086   7.854 -0.13 +0.00    +0.130 C  
DOCKED: ATOM      3  C   UNL     1     -56.889 -36.102   7.167 -0.22 +0.00    +0.004 A  
DOCKED: ATOM      4  C   UNL     1     -56.559 -37.374   7.612 -0.25 +0.00    +0.006 A  
DOCKED: ATOM      5  C   UNL     1     -55.476 -37.289   8.618 -0.17 +0.00    +0.169 C  
DOCKED: ATOM      6  C   UNL     1     -57.896 -35.915   6.232 -0.28 -0.00    -0.001 A  
DOCKED: ATOM      7  C   UNL     1     -57.216 -38.497   7.138 -0.35 +0.00    +0.008 A  
DOCKED: ATOM      8  C   UNL     1     -58.566 -37.037   5.741 -0.34 +0.00    +0.010 A  
DOCKED: ATOM      9  C   UNL     1     -58.227 -38.322   6.193 -0.32 +0.00    +0.068 A  
DOCKED: ATOM     10  N   UNL     1     -59.493 -40.383   5.265 -2.55 -0.00    -0.191 NA 
DOCKED: ATOM     11  C   UNL     1     -58.924 -39.459   5.681 -0.29 +0.00    +0.101 C  
DOCKED: ENDROOT
DOCKED: BRANCH   2  12
DOCKED: ATOM     12  C   UNL     1     -56.805 -34.182   8.800 -0.06 +0.00    +0.038 C  
DOCKED: BRANCH  12  13
DOCKED: ATOM     13  C   UNL     1     -56.021 -33.907  10.081 -0.02 +0.00    +0.038 C  
DOCKED: BRANCH  13  14
DOCKED: ATOM     14  C   UNL     1     -56.275 -32.488  10.587 -0.00 +0.00    +0.251 C  
DOCKED: BRANCH  14  15
DOCKED: ATOM     15  N   UNL     1     -55.869 -31.512   9.582 -0.00 +0.00    +0.141 N  
DOCKED: ATOM     16  C   UNL     1     -56.128 -30.150  10.052 +0.00 +0.00    +0.285 C  
DOCKED: ATOM     17  C   UNL     1     -54.453 -31.673   9.249 -0.00 +0.00    +0.285 C  
DOCKED: ENDBRANCH  14  15
DOCKED: ENDBRANCH  13  14
DOCKED: ENDBRANCH  12  13
DOCKED: ENDBRANCH   2  12
DOCKED: BRANCH   2  18
DOCKED: ATOM     18  C   UNL     1     -55.200 -34.284   6.901 -0.14 +0.00    +0.006 A  
DOCKED: ATOM     19  C   UNL     1     -55.822 -33.434   5.987 -0.15 +0.00    +0.001 A  
DOCKED: ATOM     20  C   UNL     1     -55.051 -32.686   5.097 -0.12 +0.00    +0.029 A  
DOCKED: ATOM     21  C   UNL     1     -53.661 -32.788   5.122 -0.08 +0.00    +0.140 A  
DOCKED: ATOM     22  C   UNL     1     -53.040 -33.638   6.036 -0.09 +0.00    +0.029 A  
DOCKED: ATOM     23  F   UNL     1     -52.922 -32.068   4.268 -0.00 -0.00    -0.204 F  
DOCKED: ATOM     24  C   UNL     1     -53.810 -34.388   6.927 -0.11 +0.00    +0.001 A  
DOCKED: ENDBRANCH   2  18
DOCKED: TORSDOF 5
DOCKED: TER
DOCKED: ENDMDL
________________________________________________________________________________


    FINAL DOCKED STATE:
    ________________________


Run:   182 / 512
Time taken for this run:   0.002s

DOCKED: MODEL        182
DOCKED: USER    Run = 182
DOCKED: USER
DOCKED: USER    Estimated Free Energy of Binding    =  -4.55 kcal/mol  [=(1)+(2)+(3)-(4)]
DOCKED: USER
DOCKED: USER    (1) Final Intermolecular Energy     =  -6.05 kcal/mol
DOCKED: USER        vdW + Hbond + desolv Energy     =  -6.05 kcal/mol
DOCKED: USER        Electrostatic Energy            =  +0.00 kcal/mol
DOCKED: USER        Moving Ligand-Fixed Receptor    =  -6.05 kcal/mol
DOCKED: USER        Moving Ligand-Moving Receptor   =  +0.00 kcal/mol
DOCKED: USER    (2) Final Total Internal Energy     =  -1.60 kcal/mol
DOCKED: USER    (3) Torsional Free Energy           =  +1.49 kcal/mol
DOCKED: USER    (4) Unbound System's Energy         =  -1.60 kcal/mol
DOCKED: USER
DOCKED: USER
DOCKED: REMARK  5 active torsions:
DOCKED: REMARK  status: ('A' for Active; 'I' for Inactive)
DOCKED: REMARK    1  A    between atoms: C_2  and  C_19 
DOCKED: REMARK    2  A    between atoms: C_2  and  C_11 
DOCKED: REMARK    3  A    between atoms: C_19  and  C_20 
DOCKED: REMARK    4  A    between atoms: C_20  and  C_21 
DOCKED: REMARK    5  A    between atoms: C_21  and  N_22 
DOCKED: USER                              x       y       z     vdW  Elec       q    Type
DOCKED: USER                           _______ _______ _______ _____ _____    ______ ____
DOCKED: ROOT
DOCKED: ATOM      1  O   UNL     1     -55.574 -30.177   1.205 -0.08 -0.00    -0.346 OA 
DOCKED: ATOM      2  C   UNL     1     -54.300 -30.038   0.499 -0.16 +0.00    +0.130 C  
DOCKED: ATOM      3  C   UNL     1     -54.673 -29.362  -0.788 -0.24 +0.00    +0.004 A  
DOCKED: ATOM      4  C   UNL     1     -56.023 -29.042  -0.773 -0.24 +0.00    +0.006 A  
DOCKED: ATOM      5  C   UNL     1     -56.625 -29.466   0.511 -0.25 +0.00    +0.169 C  
DOCKED: ATOM      6  C   UNL     1     -53.879 -29.045  -1.881 -0.21 -0.00    -0.001 A  
DOCKED: ATOM      7  C   UNL     1     -56.624 -28.402  -1.843 -0.29 +0.00    +0.008 A  
DOCKED: ATOM      8  C   UNL     1     -54.471 -28.403  -2.970 -0.27 +0.00    +0.010 A  
DOCKED: ATOM      9  C   UNL     1     -55.837 -28.083  -2.951 -0.29 +0.00    +0.068 A  
DOCKED: ATOM     10  N   UNL     1     -56.903 -26.888  -4.987 -2.40 -0.00    -0.191 NA 
DOCKED: ATOM     11  C   UNL     1     -56.425 -27.424  -4.074 -0.34 +0.00    +0.101 C  
DOCKED: ENDROOT
DOCKED: BRANCH   2  12
DOCKED: ATOM     12  C   UNL     1     -53.360 -29.201   1.359 -0.16 +0.00    +0.038 C  
DOCKED: BRANCH  12  13
DOCKED: ATOM     13  C   UNL     1     -53.821 -29.165   2.815 -0.15 +0.00    +0.038 C  
DOCKED: BRANCH  13  14
DOCKED: ATOM     14  C   UNL     1     -53.314 -30.385   3.581 -0.04 +0.00    +0.251 C  
DOCKED: BRANCH  14  15
DOCKED: ATOM     15  N   UNL     1     -54.207 -31.520   3.376 -0.06 +0.00    +0.141 N  
DOCKED: ATOM     16  C   UNL     1     -53.543 -32.772   3.744 -0.07 +0.00    +0.285 C  
DOCKED: ATOM     17  C   UNL     1     -55.439 -31.353   4.148 -0.06 +0.00    +0.285 C  
DOCKED: ENDBRANCH  14  15
DOCKED: ENDBRANCH  13  14
DOCKED: ENDBRANCH  12  13
DOCKED: ENDBRANCH   2  12
DOCKED: BRANCH   2  18
DOCKED: ATOM     18  C   UNL     1     -53.761 -31.415   0.297 -0.11 +0.00    +0.006 A  
DOCKED: ATOM     19  C   UNL     1     -54.624 -32.510   0.309 -0.19 +0.00    +0.001 A  
DOCKED: ATOM     20  C   UNL     1     -54.119 -33.797   0.121 -0.16 +0.00    +0.029 A  
DOCKED: ATOM     21  C   UNL     1     -52.753 -33.987  -0.079 -0.14 +0.00    +0.140 A  
DOCKED: ATOM     22  C   UNL     1     -51.890 -32.892  -0.091 -0.05 +0.00    +0.029 A  
DOCKED: ATOM     23  F   UNL     1     -52.268 -35.223  -0.262 -0.06 -0.00    -0.204 F  
DOCKED: ATOM     24  C   UNL     1     -52.394 -31.604   0.097 -0.05 +0.00    +0.001 A  
DOCKED: ENDBRANCH   2  18
DOCKED: TORSDOF 5
DOCKED: TER
DOCKED: ENDMDL
________________________________________________________________________________


    FINAL DOCKED STATE:
    ________________________


Run:   183 / 512
Time taken for this run:   0.002s

DOCKED: MODEL        183
DOCKED: USER    Run = 183
DOCKED: USER
DOCKED: USER    Estimated Free Energy of Binding    =  -3.98 kcal/mol  [=(1)+(2)+(3)-(4)]
DOCKED: USER
DOCKED: USER    (1) Final Intermolecular Energy     =  -5.47 kcal/mol
DOCKED: USER        vdW + Hbond + desolv Energy     =  -5.47 kcal/mol
DOCKED: USER        Electrostatic Energy            =  +0.00 kcal/mol
DOCKED: USER        Moving Ligand-Fixed Receptor    =  -5.47 kcal/mol
DOCKED: USER        Moving Ligand-Moving Receptor   =  +0.00 kcal/mol
DOCKED: USER    (2) Final Total Internal Energy     =  -1.15 kcal/mol
DOCKED: USER    (3) Torsional Free Energy           =  +1.49 kcal/mol
DOCKED: USER    (4) Unbound System's Energy         =  -1.15 kcal/mol
DOCKED: USER
DOCKED: USER
DOCKED: REMARK  5 active torsions:
DOCKED: REMARK  status: ('A' for Active; 'I' for Inactive)
DOCKED: REMARK    1  A    between atoms: C_2  and  C_19 
DOCKED: REMARK    2  A    between atoms: C_2  and  C_11 
DOCKED: REMARK    3  A    between atoms: C_19  and  C_20 
DOCKED: REMARK    4  A    between atoms: C_20  and  C_21 
DOCKED: REMARK    5  A    between atoms: C_21  and  N_22 
DOCKED: USER                              x       y       z     vdW  Elec       q    Type
DOCKED: USER                           _______ _______ _______ _____ _____    ______ ____
DOCKED: ROOT
DOCKED: ATOM      1  O   UNL     1     -49.126 -35.813   0.389 +0.01 -0.00    -0.346 OA 
DOCKED: ATOM      2  C   UNL     1     -50.568 -35.707   0.166 -0.07 +0.00    +0.130 C  
DOCKED: ATOM      3  C   UNL     1     -51.146 -36.786   1.036 -0.14 +0.00    +0.004 A  
DOCKED: ATOM      4  C   UNL     1     -50.135 -37.383   1.775 -0.09 +0.00    +0.006 A  
DOCKED: ATOM      5  C   UNL     1     -48.838 -36.742   1.460 -0.02 +0.00    +0.169 C  
DOCKED: ATOM      6  C   UNL     1     -52.464 -37.199   1.170 -0.22 -0.00    -0.001 A  
DOCKED: ATOM      7  C   UNL     1     -50.402 -38.409   2.665 -0.17 +0.00    +0.008 A  
DOCKED: ATOM      8  C   UNL     1     -52.749 -38.235   2.061 -0.27 +0.00    +0.010 A  
DOCKED: ATOM      9  C   UNL     1     -51.723 -38.837   2.805 -0.31 +0.00    +0.068 A  
DOCKED: ATOM     10  N   UNL     1     -52.287 -40.755   4.453 -2.68 -0.00    -0.191 NA 
DOCKED: ATOM     11  C   UNL     1     -52.034 -39.895   3.713 -0.27 +0.00    +0.101 C  
DOCKED: ENDROOT
DOCKED: BRANCH   2  12
DOCKED: ATOM     12  C   UNL     1     -51.018 -34.310   0.576 -0.06 +0.00    +0.038 C  
DOCKED: BRANCH  12  13
DOCKED: ATOM     13  C   UNL     1     -51.358 -34.248   2.064 -0.06 +0.00    +0.038 C  
DOCKED: BRANCH  13  14
DOCKED: ATOM     14  C   UNL     1     -52.313 -33.094   2.362 -0.03 +0.00    +0.251 C  
DOCKED: BRANCH  14  15
DOCKED: ATOM     15  N   UNL     1     -52.878 -32.571   1.124 -0.05 +0.00    +0.141 N  
DOCKED: ATOM     16  C   UNL     1     -54.323 -32.802   1.077 -0.12 +0.00    +0.285 C  
DOCKED: ATOM     17  C   UNL     1     -52.588 -31.142   0.988 -0.02 +0.00    +0.285 C  
DOCKED: ENDBRANCH  14  15
DOCKED: ENDBRANCH  13  14
DOCKED: ENDBRANCH  12  13
DOCKED: ENDBRANCH   2  12
DOCKED: BRANCH   2  18
DOCKED: ATOM     18  C   UNL     1     -50.804 -35.944  -1.288 -0.12 +0.00    +0.006 A  
DOCKED: ATOM     19  C   UNL     1     -51.682 -35.123  -1.994 -0.16 +0.00    +0.001 A  
DOCKED: ATOM     20  C   UNL     1     -51.901 -35.346  -3.354 -0.20 +0.00    +0.029 A  
DOCKED: ATOM     21  C   UNL     1     -51.242 -36.388  -4.006 -0.14 +0.00    +0.140 A  
DOCKED: ATOM     22  C   UNL     1     -50.364 -37.208  -3.299 -0.11 +0.00    +0.029 A  
DOCKED: ATOM     23  F   UNL     1     -51.452 -36.600  -5.311 -0.07 -0.00    -0.204 F  
DOCKED: ATOM     24  C   UNL     1     -50.144 -36.986  -1.938 -0.11 +0.00    +0.001 A  
DOCKED: ENDBRANCH   2  18
DOCKED: TORSDOF 5
DOCKED: TER
DOCKED: ENDMDL
________________________________________________________________________________


    FINAL DOCKED STATE:
    ________________________


Run:   184 / 512
Time taken for this run:   0.002s

DOCKED: MODEL        184
DOCKED: USER    Run = 184
DOCKED: USER
DOCKED: USER    Estimated Free Energy of Binding    =  -4.59 kcal/mol  [=(1)+(2)+(3)-(4)]
DOCKED: USER
DOCKED: USER    (1) Final Intermolecular Energy     =  -6.08 kcal/mol
DOCKED: USER        vdW + Hbond + desolv Energy     =  -6.08 kcal/mol
DOCKED: USER        Electrostatic Energy            =  +0.00 kcal/mol
DOCKED: USER        Moving Ligand-Fixed Receptor    =  -6.08 kcal/mol
DOCKED: USER        Moving Ligand-Moving Receptor   =  +0.00 kcal/mol
DOCKED: USER    (2) Final Total Internal Energy     =  -1.22 kcal/mol
DOCKED: USER    (3) Torsional Free Energy           =  +1.49 kcal/mol
DOCKED: USER    (4) Unbound System's Energy         =  -1.22 kcal/mol
DOCKED: USER
DOCKED: USER
DOCKED: REMARK  5 active torsions:
DOCKED: REMARK  status: ('A' for Active; 'I' for Inactive)
DOCKED: REMARK    1  A    between atoms: C_2  and  C_19 
DOCKED: REMARK    2  A    between atoms: C_2  and  C_11 
DOCKED: REMARK    3  A    between atoms: C_19  and  C_20 
DOCKED: REMARK    4  A    between atoms: C_20  and  C_21 
DOCKED: REMARK    5  A    between atoms: C_21  and  N_22 
DOCKED: USER                              x       y       z     vdW  Elec       q    Type
DOCKED: USER                           _______ _______ _______ _____ _____    ______ ____
DOCKED: ROOT
DOCKED: ATOM      1  O   UNL     1     -55.664 -30.323   0.897 -0.09 -0.00    -0.346 OA 
DOCKED: ATOM      2  C   UNL     1     -54.354 -30.000   0.330 -0.17 +0.00    +0.130 C  
DOCKED: ATOM      3  C   UNL     1     -54.682 -29.268  -0.939 -0.24 +0.00    +0.004 A  
DOCKED: ATOM      4  C   UNL     1     -56.055 -29.090  -1.034 -0.28 +0.00    +0.006 A  
DOCKED: ATOM      5  C   UNL     1     -56.720 -29.672   0.154 -0.10 +0.00    +0.169 C  
DOCKED: ATOM      6  C   UNL     1     -53.833 -28.788  -1.925 -0.21 -0.00    -0.001 A  
DOCKED: ATOM      7  C   UNL     1     -56.624 -28.434  -2.112 -0.34 +0.00    +0.008 A  
DOCKED: ATOM      8  C   UNL     1     -54.391 -28.128  -3.021 -0.27 +0.00    +0.010 A  
DOCKED: ATOM      9  C   UNL     1     -55.780 -27.952  -3.113 -0.31 +0.00    +0.068 A  
DOCKED: ATOM     10  N   UNL     1     -56.784 -26.718  -5.158 -2.46 -0.00    -0.191 NA 
DOCKED: ATOM     11  C   UNL     1     -56.334 -27.272  -4.241 -0.40 +0.00    +0.101 C  
DOCKED: ENDROOT
DOCKED: BRANCH   2  12
DOCKED: ATOM     12  C   UNL     1     -53.593 -29.140   1.332 -0.17 +0.00    +0.038 C  
DOCKED: BRANCH  12  13
DOCKED: ATOM     13  C   UNL     1     -54.526 -28.571   2.399 -0.07 +0.00    +0.038 C  
DOCKED: BRANCH  13  14
DOCKED: ATOM     14  C   UNL     1     -54.363 -29.313   3.724 -0.09 +0.00    +0.251 C  
DOCKED: BRANCH  14  15
DOCKED: ATOM     15  N   UNL     1     -55.607 -29.275   4.484 -0.07 +0.00    +0.141 N  
DOCKED: ATOM     16  C   UNL     1     -55.646 -28.097   5.351 -0.07 +0.00    +0.285 C  
DOCKED: ATOM     17  C   UNL     1     -56.761 -29.280   3.583 -0.10 +0.00    +0.285 C  
DOCKED: ENDBRANCH  14  15
DOCKED: ENDBRANCH  13  14
DOCKED: ENDBRANCH  12  13
DOCKED: ENDBRANCH   2  12
DOCKED: BRANCH   2  18
DOCKED: ATOM     18  C   UNL     1     -53.652 -31.295   0.089 -0.11 +0.00    +0.006 A  
DOCKED: ATOM     19  C   UNL     1     -52.265 -31.368   0.211 -0.04 +0.00    +0.001 A  
DOCKED: ATOM     20  C   UNL     1     -51.609 -32.579  -0.014 -0.03 +0.00    +0.029 A  
DOCKED: ATOM     21  C   UNL     1     -52.341 -33.714  -0.361 -0.11 +0.00    +0.140 A  
DOCKED: ATOM     22  C   UNL     1     -53.728 -33.640  -0.482 -0.15 +0.00    +0.029 A  
DOCKED: ATOM     23  F   UNL     1     -51.712 -34.877  -0.575 -0.04 -0.00    -0.204 F  
DOCKED: ATOM     24  C   UNL     1     -54.385 -32.429  -0.257 -0.17 +0.00    +0.001 A  
DOCKED: ENDBRANCH   2  18
DOCKED: TORSDOF 5
DOCKED: TER
DOCKED: ENDMDL
________________________________________________________________________________


    FINAL DOCKED STATE:
    ________________________


Run:   185 / 512
Time taken for this run:   0.002s

DOCKED: MODEL        185
DOCKED: USER    Run = 185
DOCKED: USER
DOCKED: USER    Estimated Free Energy of Binding    =  -5.23 kcal/mol  [=(1)+(2)+(3)-(4)]
DOCKED: USER
DOCKED: USER    (1) Final Intermolecular Energy     =  -6.72 kcal/mol
DOCKED: USER        vdW + Hbond + desolv Energy     =  -6.72 kcal/mol
DOCKED: USER        Electrostatic Energy            =  +0.00 kcal/mol
DOCKED: USER        Moving Ligand-Fixed Receptor    =  -6.72 kcal/mol
DOCKED: USER        Moving Ligand-Moving Receptor   =  +0.00 kcal/mol
DOCKED: USER    (2) Final Total Internal Energy     =  -1.52 kcal/mol
DOCKED: USER    (3) Torsional Free Energy           =  +1.49 kcal/mol
DOCKED: USER    (4) Unbound System's Energy         =  -1.52 kcal/mol
DOCKED: USER
DOCKED: USER
DOCKED: REMARK  5 active torsions:
DOCKED: REMARK  status: ('A' for Active; 'I' for Inactive)
DOCKED: REMARK    1  A    between atoms: C_2  and  C_19 
DOCKED: REMARK    2  A    between atoms: C_2  and  C_11 
DOCKED: REMARK    3  A    between atoms: C_19  and  C_20 
DOCKED: REMARK    4  A    between atoms: C_20  and  C_21 
DOCKED: REMARK    5  A    between atoms: C_21  and  N_22 
DOCKED: USER                              x       y       z     vdW  Elec       q    Type
DOCKED: USER                           _______ _______ _______ _____ _____    ______ ____
DOCKED: ROOT
DOCKED: ATOM      1  O   UNL     1     -57.982 -37.610   8.188 -0.04 -0.00    -0.346 OA 
DOCKED: ATOM      2  C   UNL     1     -59.440 -37.733   8.130 -0.13 +0.00    +0.130 C  
DOCKED: ATOM      3  C   UNL     1     -59.729 -37.900   6.666 -0.25 +0.00    +0.004 A  
DOCKED: ATOM      4  C   UNL     1     -58.536 -37.978   5.961 -0.37 +0.00    +0.006 A  
DOCKED: ATOM      5  C   UNL     1     -57.392 -37.882   6.895 -0.26 +0.00    +0.169 C  
DOCKED: ATOM      6  C   UNL     1     -60.949 -37.988   6.013 -0.29 -0.00    -0.001 A  
DOCKED: ATOM      7  C   UNL     1     -58.522 -38.141   4.586 -0.34 +0.00    +0.008 A  
DOCKED: ATOM      8  C   UNL     1     -60.951 -38.148   4.626 -0.22 +0.00    +0.010 A  
DOCKED: ATOM      9  C   UNL     1     -59.744 -38.225   3.917 -0.33 +0.00    +0.068 A  
DOCKED: ATOM     10  N   UNL     1     -59.783 -38.527   1.344 -3.15 -0.00    -0.191 NA 
DOCKED: ATOM     11  C   UNL     1     -59.765 -38.391   2.498 -0.28 +0.00    +0.101 C  
DOCKED: ENDROOT
DOCKED: BRANCH   2  12
DOCKED: ATOM     12  C   UNL     1     -59.856 -38.942   8.959 -0.22 +0.00    +0.038 C  
DOCKED: BRANCH  12  13
DOCKED: ATOM     13  C   UNL     1     -58.648 -39.610   9.614 -0.22 +0.00    +0.038 C  
DOCKED: BRANCH  13  14
DOCKED: ATOM     14  C   UNL     1     -58.451 -39.107  11.043 -0.12 +0.00    +0.251 C  
DOCKED: BRANCH  14  15
DOCKED: ATOM     15  N   UNL     1     -57.649 -37.889  11.046 -0.07 +0.00    +0.141 N  
DOCKED: ATOM     16  C   UNL     1     -57.849 -37.143  12.290 -0.01 +0.00    +0.285 C  
DOCKED: ATOM     17  C   UNL     1     -56.231 -38.205  10.866 -0.06 +0.00    +0.285 C  
DOCKED: ENDBRANCH  14  15
DOCKED: ENDBRANCH  13  14
DOCKED: ENDBRANCH  12  13
DOCKED: ENDBRANCH   2  12
DOCKED: BRANCH   2  18
DOCKED: ATOM     18  C   UNL     1     -60.006 -36.473   8.694 -0.08 +0.00    +0.006 A  
DOCKED: ATOM     19  C   UNL     1     -59.677 -35.244   8.123 -0.12 +0.00    +0.001 A  
DOCKED: ATOM     20  C   UNL     1     -60.207 -34.066   8.651 -0.07 +0.00    +0.029 A  
DOCKED: ATOM     21  C   UNL     1     -61.064 -34.119   9.749 -0.01 +0.00    +0.140 A  
DOCKED: ATOM     22  C   UNL     1     -61.393 -35.348  10.320 -0.03 +0.00    +0.029 A  
DOCKED: ATOM     23  F   UNL     1     -61.574 -32.989  10.255 +0.01 -0.00    -0.204 F  
DOCKED: ATOM     24  C   UNL     1     -60.863 -36.527   9.792 -0.05 +0.00    +0.001 A  
DOCKED: ENDBRANCH   2  18
DOCKED: TORSDOF 5
DOCKED: TER
DOCKED: ENDMDL
________________________________________________________________________________


    FINAL DOCKED STATE:
    ________________________


Run:   186 / 512
Time taken for this run:   0.002s

DOCKED: MODEL        186
DOCKED: USER    Run = 186
DOCKED: USER
DOCKED: USER    Estimated Free Energy of Binding    =  -3.76 kcal/mol  [=(1)+(2)+(3)-(4)]
DOCKED: USER
DOCKED: USER    (1) Final Intermolecular Energy     =  -5.25 kcal/mol
DOCKED: USER        vdW + Hbond + desolv Energy     =  -5.25 kcal/mol
DOCKED: USER        Electrostatic Energy            =  +0.00 kcal/mol
DOCKED: USER        Moving Ligand-Fixed Receptor    =  -5.25 kcal/mol
DOCKED: USER        Moving Ligand-Moving Receptor   =  +0.00 kcal/mol
DOCKED: USER    (2) Final Total Internal Energy     =  -1.57 kcal/mol
DOCKED: USER    (3) Torsional Free Energy           =  +1.49 kcal/mol
DOCKED: USER    (4) Unbound System's Energy         =  -1.57 kcal/mol
DOCKED: USER
DOCKED: USER
DOCKED: REMARK  5 active torsions:
DOCKED: REMARK  status: ('A' for Active; 'I' for Inactive)
DOCKED: REMARK    1  A    between atoms: C_2  and  C_19 
DOCKED: REMARK    2  A    between atoms: C_2  and  C_11 
DOCKED: REMARK    3  A    between atoms: C_19  and  C_20 
DOCKED: REMARK    4  A    between atoms: C_20  and  C_21 
DOCKED: REMARK    5  A    between atoms: C_21  and  N_22 
DOCKED: USER                              x       y       z     vdW  Elec       q    Type
DOCKED: USER                           _______ _______ _______ _____ _____    ______ ____
DOCKED: ROOT
DOCKED: ATOM      1  O   UNL     1     -53.665 -29.999   0.509 -0.04 -0.00    -0.346 OA 
DOCKED: ATOM      2  C   UNL     1     -55.074 -30.069   0.117 -0.22 +0.00    +0.130 C  
DOCKED: ATOM      3  C   UNL     1     -55.167 -29.137  -1.056 -0.29 +0.00    +0.004 A  
DOCKED: ATOM      4  C   UNL     1     -53.903 -28.662  -1.377 -0.18 +0.00    +0.006 A  
DOCKED: ATOM      5  C   UNL     1     -52.899 -29.247  -0.461 -0.11 +0.00    +0.169 C  
DOCKED: ATOM      6  C   UNL     1     -56.280 -28.749  -1.788 -0.31 -0.00    -0.001 A  
DOCKED: ATOM      7  C   UNL     1     -53.709 -27.785  -2.431 -0.21 +0.00    +0.008 A  
DOCKED: ATOM      8  C   UNL     1     -56.101 -27.862  -2.851 -0.41 +0.00    +0.010 A  
DOCKED: ATOM      9  C   UNL     1     -54.822 -27.383  -3.171 -0.31 +0.00    +0.068 A  
DOCKED: ATOM     10  N   UNL     1     -54.525 -25.742  -5.153 -0.78 -0.00    -0.191 NA 
DOCKED: ATOM     11  C   UNL     1     -54.658 -26.478  -4.264 -0.38 +0.00    +0.101 C  
DOCKED: ENDROOT
DOCKED: BRANCH   2  12
DOCKED: ATOM     12  C   UNL     1     -55.403 -31.512  -0.244 -0.18 +0.00    +0.038 C  
DOCKED: BRANCH  12  13
DOCKED: ATOM     13  C   UNL     1     -54.246 -32.450   0.096 -0.20 +0.00    +0.038 C  
DOCKED: BRANCH  13  14
DOCKED: ATOM     14  C   UNL     1     -54.448 -33.099   1.464 -0.15 +0.00    +0.251 C  
DOCKED: BRANCH  14  15
DOCKED: ATOM     15  N   UNL     1     -54.127 -32.154   2.526 -0.08 +0.00    +0.141 N  
DOCKED: ATOM     16  C   UNL     1     -54.896 -32.455   3.735 -0.07 +0.00    +0.285 C  
DOCKED: ATOM     17  C   UNL     1     -52.693 -32.174   2.818 -0.02 +0.00    +0.285 C  
DOCKED: ENDBRANCH  14  15
DOCKED: ENDBRANCH  13  14
DOCKED: ENDBRANCH  12  13
DOCKED: ENDBRANCH   2  12
DOCKED: BRANCH   2  18
DOCKED: ATOM     18  C   UNL     1     -55.875 -29.610   1.290 -0.26 +0.00    +0.006 A  
DOCKED: ATOM     19  C   UNL     1     -55.235 -29.056   2.397 -0.21 +0.00    +0.001 A  
DOCKED: ATOM     20  C   UNL     1     -55.986 -28.629   3.493 -0.19 +0.00    +0.029 A  
DOCKED: ATOM     21  C   UNL     1     -57.374 -28.755   3.479 -0.14 +0.00    +0.140 A  
DOCKED: ATOM     22  C   UNL     1     -58.014 -29.309   2.370 -0.26 +0.00    +0.029 A  
DOCKED: ATOM     23  F   UNL     1     -58.095 -28.342   4.530 -0.00 -0.00    -0.204 F  
DOCKED: ATOM     24  C   UNL     1     -57.264 -29.737   1.274 -0.28 +0.00    +0.001 A  
DOCKED: ENDBRANCH   2  18
DOCKED: TORSDOF 5
DOCKED: TER
DOCKED: ENDMDL
________________________________________________________________________________


    FINAL DOCKED STATE:
    ________________________


Run:   187 / 512
Time taken for this run:   0.002s

DOCKED: MODEL        187
DOCKED: USER    Run = 187
DOCKED: USER
DOCKED: USER    Estimated Free Energy of Binding    =  -4.21 kcal/mol  [=(1)+(2)+(3)-(4)]
DOCKED: USER
DOCKED: USER    (1) Final Intermolecular Energy     =  -5.70 kcal/mol
DOCKED: USER        vdW + Hbond + desolv Energy     =  -5.70 kcal/mol
DOCKED: USER        Electrostatic Energy            =  +0.00 kcal/mol
DOCKED: USER        Moving Ligand-Fixed Receptor    =  -5.70 kcal/mol
DOCKED: USER        Moving Ligand-Moving Receptor   =  +0.00 kcal/mol
DOCKED: USER    (2) Final Total Internal Energy     =  -1.26 kcal/mol
DOCKED: USER    (3) Torsional Free Energy           =  +1.49 kcal/mol
DOCKED: USER    (4) Unbound System's Energy         =  -1.26 kcal/mol
DOCKED: USER
DOCKED: USER
DOCKED: REMARK  5 active torsions:
DOCKED: REMARK  status: ('A' for Active; 'I' for Inactive)
DOCKED: REMARK    1  A    between atoms: C_2  and  C_19 
DOCKED: REMARK    2  A    between atoms: C_2  and  C_11 
DOCKED: REMARK    3  A    between atoms: C_19  and  C_20 
DOCKED: REMARK    4  A    between atoms: C_20  and  C_21 
DOCKED: REMARK    5  A    between atoms: C_21  and  N_22 
DOCKED: USER                              x       y       z     vdW  Elec       q    Type
DOCKED: USER                           _______ _______ _______ _____ _____    ______ ____
DOCKED: ROOT
DOCKED: ATOM      1  O   UNL     1     -54.886 -29.939   0.454 -0.08 -0.00    -0.346 OA 
DOCKED: ATOM      2  C   UNL     1     -53.664 -29.443  -0.180 -0.15 +0.00    +0.130 C  
DOCKED: ATOM      3  C   UNL     1     -54.154 -28.772  -1.431 -0.21 +0.00    +0.004 A  
DOCKED: ATOM      4  C   UNL     1     -55.541 -28.786  -1.455 -0.28 +0.00    +0.006 A  
DOCKED: ATOM      5  C   UNL     1     -56.058 -29.445  -0.235 -0.27 +0.00    +0.169 C  
DOCKED: ATOM      6  C   UNL     1     -53.430 -28.187  -2.459 -0.18 -0.00    -0.001 A  
DOCKED: ATOM      7  C   UNL     1     -56.249 -28.223  -2.503 -0.37 +0.00    +0.008 A  
DOCKED: ATOM      8  C   UNL     1     -54.130 -27.618  -3.525 -0.27 +0.00    +0.010 A  
DOCKED: ATOM      9  C   UNL     1     -55.532 -27.636  -3.546 -0.36 +0.00    +0.068 A  
DOCKED: ATOM     10  N   UNL     1     -56.800 -26.568  -5.537 -2.55 -0.00    -0.191 NA 
DOCKED: ATOM     11  C   UNL     1     -56.231 -27.048  -4.645 -0.34 +0.00    +0.101 C  
DOCKED: ENDROOT
DOCKED: BRANCH   2  12
DOCKED: ATOM     12  C   UNL     1     -52.979 -28.479   0.781 -0.08 +0.00    +0.038 C  
DOCKED: BRANCH  12  13
DOCKED: ATOM     13  C   UNL     1     -52.755 -29.120   2.149 -0.13 +0.00    +0.038 C  
DOCKED: BRANCH  13  14
DOCKED: ATOM     14  C   UNL     1     -51.296 -28.993   2.583 -0.06 +0.00    +0.251 C  
DOCKED: BRANCH  14  15
DOCKED: ATOM     15  N   UNL     1     -50.895 -30.160   3.361 -0.01 +0.00    +0.141 N  
DOCKED: ATOM     16  C   UNL     1     -51.028 -29.895   4.794 -0.01 +0.00    +0.285 C  
DOCKED: ATOM     17  C   UNL     1     -51.692 -31.329   2.985 -0.01 +0.00    +0.285 C  
DOCKED: ENDBRANCH  14  15
DOCKED: ENDBRANCH  13  14
DOCKED: ENDBRANCH  12  13
DOCKED: ENDBRANCH   2  12
DOCKED: BRANCH   2  18
DOCKED: ATOM     18  C   UNL     1     -52.803 -30.630  -0.456 -0.07 +0.00    +0.006 A  
DOCKED: ATOM     19  C   UNL     1     -53.296 -31.915  -0.233 -0.11 +0.00    +0.001 A  
DOCKED: ATOM     20  C   UNL     1     -52.489 -33.025  -0.491 -0.10 +0.00    +0.029 A  
DOCKED: ATOM     21  C   UNL     1     -51.193 -32.848  -0.972 -0.02 +0.00    +0.140 A  
DOCKED: ATOM     22  C   UNL     1     -50.700 -31.562  -1.195 -0.01 +0.00    +0.029 A  
DOCKED: ATOM     23  F   UNL     1     -50.420 -33.912  -1.222 -0.00 -0.00    -0.204 F  
DOCKED: ATOM     24  C   UNL     1     -51.506 -30.452  -0.937 -0.03 +0.00    +0.001 A  
DOCKED: ENDBRANCH   2  18
DOCKED: TORSDOF 5
DOCKED: TER
DOCKED: ENDMDL
________________________________________________________________________________


    FINAL DOCKED STATE:
    ________________________


Run:   188 / 512
Time taken for this run:   0.002s

DOCKED: MODEL        188
DOCKED: USER    Run = 188
DOCKED: USER
DOCKED: USER    Estimated Free Energy of Binding    =  -4.88 kcal/mol  [=(1)+(2)+(3)-(4)]
DOCKED: USER
DOCKED: USER    (1) Final Intermolecular Energy     =  -6.37 kcal/mol
DOCKED: USER        vdW + Hbond + desolv Energy     =  -6.37 kcal/mol
DOCKED: USER        Electrostatic Energy            =  +0.00 kcal/mol
DOCKED: USER        Moving Ligand-Fixed Receptor    =  -6.37 kcal/mol
DOCKED: USER        Moving Ligand-Moving Receptor   =  +0.00 kcal/mol
DOCKED: USER    (2) Final Total Internal Energy     =  -1.29 kcal/mol
DOCKED: USER    (3) Torsional Free Energy           =  +1.49 kcal/mol
DOCKED: USER    (4) Unbound System's Energy         =  -1.29 kcal/mol
DOCKED: USER
DOCKED: USER
DOCKED: REMARK  5 active torsions:
DOCKED: REMARK  status: ('A' for Active; 'I' for Inactive)
DOCKED: REMARK    1  A    between atoms: C_2  and  C_19 
DOCKED: REMARK    2  A    between atoms: C_2  and  C_11 
DOCKED: REMARK    3  A    between atoms: C_19  and  C_20 
DOCKED: REMARK    4  A    between atoms: C_20  and  C_21 
DOCKED: REMARK    5  A    between atoms: C_21  and  N_22 
DOCKED: USER                              x       y       z     vdW  Elec       q    Type
DOCKED: USER                           _______ _______ _______ _____ _____    ______ ____
DOCKED: ROOT
DOCKED: ATOM      1  O   UNL     1     -56.037 -30.101   1.613 -0.09 -0.00    -0.346 OA 
DOCKED: ATOM      2  C   UNL     1     -54.807 -30.269   0.838 -0.17 +0.00    +0.130 C  
DOCKED: ATOM      3  C   UNL     1     -55.125 -29.631  -0.483 -0.27 +0.00    +0.004 A  
DOCKED: ATOM      4  C   UNL     1     -56.385 -29.051  -0.431 -0.21 +0.00    +0.006 A  
DOCKED: ATOM      5  C   UNL     1     -56.974 -29.251   0.912 -0.26 +0.00    +0.169 C  
DOCKED: ATOM      6  C   UNL     1     -54.356 -29.559  -1.636 -0.24 -0.00    -0.001 A  
DOCKED: ATOM      7  C   UNL     1     -56.918 -28.388  -1.522 -0.09 +0.00    +0.008 A  
DOCKED: ATOM      8  C   UNL     1     -54.882 -28.898  -2.746 -0.22 +0.00    +0.010 A  
DOCKED: ATOM      9  C   UNL     1     -56.157 -28.314  -2.690 -0.23 +0.00    +0.068 A  
DOCKED: ATOM     10  N   UNL     1     -57.101 -27.089  -4.768 -2.37 -0.00    -0.191 NA 
DOCKED: ATOM     11  C   UNL     1     -56.678 -27.639  -3.836 -0.30 +0.00    +0.101 C  
DOCKED: ENDROOT
DOCKED: BRANCH   2  12
DOCKED: ATOM     12  C   UNL     1     -53.671 -29.571   1.577 -0.16 +0.00    +0.038 C  
DOCKED: BRANCH  12  13
DOCKED: ATOM     13  C   UNL     1     -53.842 -29.679   3.091 -0.12 +0.00    +0.038 C  
DOCKED: BRANCH  13  14
DOCKED: ATOM     14  C   UNL     1     -54.422 -28.391   3.671 -0.11 +0.00    +0.251 C  
DOCKED: BRANCH  14  15
DOCKED: ATOM     15  N   UNL     1     -55.854 -28.540   3.907 -0.14 +0.00    +0.141 N  
DOCKED: ATOM     16  C   UNL     1     -56.099 -29.397   5.068 -0.04 +0.00    +0.285 C  
DOCKED: ATOM     17  C   UNL     1     -56.484 -27.233   4.099 -0.15 +0.00    +0.285 C  
DOCKED: ENDBRANCH  14  15
DOCKED: ENDBRANCH  13  14
DOCKED: ENDBRANCH  12  13
DOCKED: ENDBRANCH   2  12
DOCKED: BRANCH   2  18
DOCKED: ATOM     18  C   UNL     1     -54.557 -31.736   0.730 -0.16 +0.00    +0.006 A  
DOCKED: ATOM     19  C   UNL     1     -55.190 -32.617   1.606 -0.18 +0.00    +0.001 A  
DOCKED: ATOM     20  C   UNL     1     -54.955 -33.989   1.504 -0.27 +0.00    +0.029 A  
DOCKED: ATOM     21  C   UNL     1     -54.088 -34.477   0.527 -0.20 +0.00    +0.140 A  
DOCKED: ATOM     22  C   UNL     1     -53.455 -33.596  -0.349 -0.19 +0.00    +0.029 A  
DOCKED: ATOM     23  F   UNL     1     -53.864 -35.794   0.429 -0.07 -0.00    -0.204 F  
DOCKED: ATOM     24  C   UNL     1     -53.689 -32.223  -0.247 -0.15 +0.00    +0.001 A  
DOCKED: ENDBRANCH   2  18
DOCKED: TORSDOF 5
DOCKED: TER
DOCKED: ENDMDL
________________________________________________________________________________


    FINAL DOCKED STATE:
    ________________________


Run:   189 / 512
Time taken for this run:   0.002s

DOCKED: MODEL        189
DOCKED: USER    Run = 189
DOCKED: USER
DOCKED: USER    Estimated Free Energy of Binding    =  -3.87 kcal/mol  [=(1)+(2)+(3)-(4)]
DOCKED: USER
DOCKED: USER    (1) Final Intermolecular Energy     =  -5.36 kcal/mol
DOCKED: USER        vdW + Hbond + desolv Energy     =  -5.36 kcal/mol
DOCKED: USER        Electrostatic Energy            =  +0.00 kcal/mol
DOCKED: USER        Moving Ligand-Fixed Receptor    =  -5.36 kcal/mol
DOCKED: USER        Moving Ligand-Moving Receptor   =  +0.00 kcal/mol
DOCKED: USER    (2) Final Total Internal Energy     =  -1.24 kcal/mol
DOCKED: USER    (3) Torsional Free Energy           =  +1.49 kcal/mol
DOCKED: USER    (4) Unbound System's Energy         =  -1.24 kcal/mol
DOCKED: USER
DOCKED: USER
DOCKED: REMARK  5 active torsions:
DOCKED: REMARK  status: ('A' for Active; 'I' for Inactive)
DOCKED: REMARK    1  A    between atoms: C_2  and  C_19 
DOCKED: REMARK    2  A    between atoms: C_2  and  C_11 
DOCKED: REMARK    3  A    between atoms: C_19  and  C_20 
DOCKED: REMARK    4  A    between atoms: C_20  and  C_21 
DOCKED: REMARK    5  A    between atoms: C_21  and  N_22 
DOCKED: USER                              x       y       z     vdW  Elec       q    Type
DOCKED: USER                           _______ _______ _______ _____ _____    ______ ____
DOCKED: ROOT
DOCKED: ATOM      1  O   UNL     1     -49.059 -38.426  -1.754 -0.00 -0.00    -0.346 OA 
DOCKED: ATOM      2  C   UNL     1     -49.586 -37.256  -1.050 -0.07 +0.00    +0.130 C  
DOCKED: ATOM      3  C   UNL     1     -50.260 -37.837   0.159 -0.11 +0.00    +0.004 A  
DOCKED: ATOM      4  C   UNL     1     -50.043 -39.207   0.201 -0.13 +0.00    +0.006 A  
DOCKED: ATOM      5  C   UNL     1     -49.212 -39.620  -0.952 -0.06 +0.00    +0.169 C  
DOCKED: ATOM      6  C   UNL     1     -50.997 -37.202   1.148 -0.14 -0.00    -0.001 A  
DOCKED: ATOM      7  C   UNL     1     -50.555 -39.986   1.224 -0.24 +0.00    +0.008 A  
DOCKED: ATOM      8  C   UNL     1     -51.524 -37.975   2.184 -0.26 +0.00    +0.010 A  
DOCKED: ATOM      9  C   UNL     1     -51.304 -39.360   2.222 -0.29 +0.00    +0.068 A  
DOCKED: ATOM     10  N   UNL     1     -52.292 -40.765   4.163 -2.66 -0.00    -0.191 NA 
DOCKED: ATOM     11  C   UNL     1     -51.849 -40.135   3.292 -0.37 +0.00    +0.101 C  
DOCKED: ENDROOT
DOCKED: BRANCH   2  12
DOCKED: ATOM     12  C   UNL     1     -48.420 -36.340  -0.696 -0.01 +0.00    +0.038 C  
DOCKED: BRANCH  12  13
DOCKED: ATOM     13  C   UNL     1     -47.142 -36.762  -1.417 -0.00 +0.00    +0.038 C  
DOCKED: BRANCH  13  14
DOCKED: ATOM     14  C   UNL     1     -47.148 -36.287  -2.869 +0.00 +0.00    +0.251 C  
DOCKED: BRANCH  14  15
DOCKED: ATOM     15  N   UNL     1     -46.734 -34.891  -2.948 -0.00 +0.00    +0.141 N  
DOCKED: ATOM     16  C   UNL     1     -45.375 -34.785  -3.481 +0.00 +0.00    +0.285 C  
DOCKED: ATOM     17  C   UNL     1     -47.665 -34.124  -3.777 +0.00 +0.00    +0.285 C  
DOCKED: ENDBRANCH  14  15
DOCKED: ENDBRANCH  13  14
DOCKED: ENDBRANCH  12  13
DOCKED: ENDBRANCH   2  12
DOCKED: BRANCH   2  18
DOCKED: ATOM     18  C   UNL     1     -50.538 -36.580  -1.979 -0.12 +0.00    +0.006 A  
DOCKED: ATOM     19  C   UNL     1     -50.640 -37.006  -3.303 -0.12 +0.00    +0.001 A  
DOCKED: ATOM     20  C   UNL     1     -51.531 -36.373  -4.171 -0.16 +0.00    +0.029 A  
DOCKED: ATOM     21  C   UNL     1     -52.319 -35.317  -3.714 -0.18 +0.00    +0.140 A  
DOCKED: ATOM     22  C   UNL     1     -52.216 -34.892  -2.389 -0.17 +0.00    +0.029 A  
DOCKED: ATOM     23  F   UNL     1     -53.175 -34.711  -4.546 -0.13 -0.00    -0.204 F  
DOCKED: ATOM     24  C   UNL     1     -51.325 -35.524  -1.521 -0.13 +0.00    +0.001 A  
DOCKED: ENDBRANCH   2  18
DOCKED: TORSDOF 5
DOCKED: TER
DOCKED: ENDMDL
________________________________________________________________________________


    FINAL DOCKED STATE:
    ________________________


Run:   190 / 512
Time taken for this run:   0.002s

DOCKED: MODEL        190
DOCKED: USER    Run = 190
DOCKED: USER
DOCKED: USER    Estimated Free Energy of Binding    =  -4.36 kcal/mol  [=(1)+(2)+(3)-(4)]
DOCKED: USER
DOCKED: USER    (1) Final Intermolecular Energy     =  -5.85 kcal/mol
DOCKED: USER        vdW + Hbond + desolv Energy     =  -5.85 kcal/mol
DOCKED: USER        Electrostatic Energy            =  +0.00 kcal/mol
DOCKED: USER        Moving Ligand-Fixed Receptor    =  -5.85 kcal/mol
DOCKED: USER        Moving Ligand-Moving Receptor   =  +0.00 kcal/mol
DOCKED: USER    (2) Final Total Internal Energy     =  -0.87 kcal/mol
DOCKED: USER    (3) Torsional Free Energy           =  +1.49 kcal/mol
DOCKED: USER    (4) Unbound System's Energy         =  -0.87 kcal/mol
DOCKED: USER
DOCKED: USER
DOCKED: REMARK  5 active torsions:
DOCKED: REMARK  status: ('A' for Active; 'I' for Inactive)
DOCKED: REMARK    1  A    between atoms: C_2  and  C_19 
DOCKED: REMARK    2  A    between atoms: C_2  and  C_11 
DOCKED: REMARK    3  A    between atoms: C_19  and  C_20 
DOCKED: REMARK    4  A    between atoms: C_20  and  C_21 
DOCKED: REMARK    5  A    between atoms: C_21  and  N_22 
DOCKED: USER                              x       y       z     vdW  Elec       q    Type
DOCKED: USER                           _______ _______ _______ _____ _____    ______ ____
DOCKED: ROOT
DOCKED: ATOM      1  O   UNL     1     -54.890 -36.043   8.563 -0.08 -0.00    -0.346 OA 
DOCKED: ATOM      2  C   UNL     1     -55.839 -35.152   7.893 -0.13 +0.00    +0.130 C  
DOCKED: ATOM      3  C   UNL     1     -56.808 -36.090   7.233 -0.22 +0.00    +0.004 A  
DOCKED: ATOM      4  C   UNL     1     -56.505 -37.398   7.585 -0.24 +0.00    +0.006 A  
DOCKED: ATOM      5  C   UNL     1     -55.341 -37.416   8.499 -0.17 +0.00    +0.169 C  
DOCKED: ATOM      6  C   UNL     1     -57.878 -35.808   6.396 -0.28 -0.00    -0.001 A  
DOCKED: ATOM      7  C   UNL     1     -57.254 -38.463   7.113 -0.35 +0.00    +0.008 A  
DOCKED: ATOM      8  C   UNL     1     -58.640 -36.871   5.909 -0.32 +0.00    +0.010 A  
DOCKED: ATOM      9  C   UNL     1     -58.329 -38.192   6.266 -0.31 +0.00    +0.068 A  
DOCKED: ATOM     10  N   UNL     1     -59.767 -40.142   5.347 -2.56 -0.00    -0.191 NA 
DOCKED: ATOM     11  C   UNL     1     -59.122 -39.267   5.759 -0.37 +0.00    +0.101 C  
DOCKED: ENDROOT
DOCKED: BRANCH   2  12
DOCKED: ATOM     12  C   UNL     1     -56.495 -34.266   8.946 -0.06 +0.00    +0.038 C  
DOCKED: BRANCH  12  13
DOCKED: ATOM     13  C   UNL     1     -57.217 -33.082   8.305 -0.06 +0.00    +0.038 C  
DOCKED: BRANCH  13  14
DOCKED: ATOM     14  C   UNL     1     -58.719 -33.342   8.209 -0.05 +0.00    +0.251 C  
DOCKED: BRANCH  14  15
DOCKED: ATOM     15  N   UNL     1     -59.401 -32.816   9.386 -0.02 +0.00    +0.141 N  
DOCKED: ATOM     16  C   UNL     1     -58.588 -31.787  10.037 -0.00 +0.00    +0.285 C  
DOCKED: ATOM     17  C   UNL     1     -60.711 -32.273   9.024 -0.01 +0.00    +0.285 C  
DOCKED: ENDBRANCH  14  15
DOCKED: ENDBRANCH  13  14
DOCKED: ENDBRANCH  12  13
DOCKED: ENDBRANCH   2  12
DOCKED: BRANCH   2  18
DOCKED: ATOM     18  C   UNL     1     -55.058 -34.339   6.915 -0.13 +0.00    +0.006 A  
DOCKED: ATOM     19  C   UNL     1     -53.753 -33.952   7.216 -0.10 +0.00    +0.001 A  
DOCKED: ATOM     20  C   UNL     1     -53.025 -33.191   6.301 -0.07 +0.00    +0.029 A  
DOCKED: ATOM     21  C   UNL     1     -53.601 -32.820   5.088 -0.08 +0.00    +0.140 A  
DOCKED: ATOM     22  C   UNL     1     -54.906 -33.208   4.787 -0.14 +0.00    +0.029 A  
DOCKED: ATOM     23  F   UNL     1     -52.901 -32.091   4.209 -0.00 -0.00    -0.204 F  
DOCKED: ATOM     24  C   UNL     1     -55.636 -33.968   5.702 -0.11 +0.00    +0.001 A  
DOCKED: ENDBRANCH   2  18
DOCKED: TORSDOF 5
DOCKED: TER
DOCKED: ENDMDL
________________________________________________________________________________


    FINAL DOCKED STATE:
    ________________________


Run:   191 / 512
Time taken for this run:   0.002s

DOCKED: MODEL        191
DOCKED: USER    Run = 191
DOCKED: USER
DOCKED: USER    Estimated Free Energy of Binding    =  -4.82 kcal/mol  [=(1)+(2)+(3)-(4)]
DOCKED: USER
DOCKED: USER    (1) Final Intermolecular Energy     =  -6.31 kcal/mol
DOCKED: USER        vdW + Hbond + desolv Energy     =  -6.31 kcal/mol
DOCKED: USER        Electrostatic Energy            =  +0.00 kcal/mol
DOCKED: USER        Moving Ligand-Fixed Receptor    =  -6.31 kcal/mol
DOCKED: USER        Moving Ligand-Moving Receptor   =  +0.00 kcal/mol
DOCKED: USER    (2) Final Total Internal Energy     =  -1.03 kcal/mol
DOCKED: USER    (3) Torsional Free Energy           =  +1.49 kcal/mol
DOCKED: USER    (4) Unbound System's Energy         =  -1.03 kcal/mol
DOCKED: USER
DOCKED: USER
DOCKED: REMARK  5 active torsions:
DOCKED: REMARK  status: ('A' for Active; 'I' for Inactive)
DOCKED: REMARK    1  A    between atoms: C_2  and  C_19 
DOCKED: REMARK    2  A    between atoms: C_2  and  C_11 
DOCKED: REMARK    3  A    between atoms: C_19  and  C_20 
DOCKED: REMARK    4  A    between atoms: C_20  and  C_21 
DOCKED: REMARK    5  A    between atoms: C_21  and  N_22 
DOCKED: USER                              x       y       z     vdW  Elec       q    Type
DOCKED: USER                           _______ _______ _______ _____ _____    ______ ____
DOCKED: ROOT
DOCKED: ATOM      1  O   UNL     1     -59.010 -38.844   8.936 -0.08 -0.00    -0.346 OA 
DOCKED: ATOM      2  C   UNL     1     -58.542 -37.559   8.415 -0.13 +0.00    +0.130 C  
DOCKED: ATOM      3  C   UNL     1     -58.721 -37.687   6.930 -0.26 +0.00    +0.004 A  
DOCKED: ATOM      4  C   UNL     1     -59.340 -38.894   6.636 -0.29 +0.00    +0.006 A  
DOCKED: ATOM      5  C   UNL     1     -59.621 -39.632   7.888 -0.12 +0.00    +0.169 C  
DOCKED: ATOM      6  C   UNL     1     -58.375 -36.801   5.920 -0.33 -0.00    -0.001 A  
DOCKED: ATOM      7  C   UNL     1     -59.628 -39.258   5.332 -0.41 +0.00    +0.008 A  
DOCKED: ATOM      8  C   UNL     1     -58.655 -37.155   4.599 -0.14 +0.00    +0.010 A  
DOCKED: ATOM      9  C   UNL     1     -59.279 -38.377   4.307 -0.40 +0.00    +0.068 A  
DOCKED: ATOM     10  N   UNL     1     -59.789 -39.002   1.845 -2.62 -0.00    -0.191 NA 
DOCKED: ATOM     11  C   UNL     1     -59.560 -38.722   2.949 -0.41 +0.00    +0.101 C  
DOCKED: ENDROOT
DOCKED: BRANCH   2  12
DOCKED: ATOM     12  C   UNL     1     -59.396 -36.452   9.022 -0.08 +0.00    +0.038 C  
DOCKED: BRANCH  12  13
DOCKED: ATOM     13  C   UNL     1     -59.424 -35.215   8.126 -0.13 +0.00    +0.038 C  
DOCKED: BRANCH  13  14
DOCKED: ATOM     14  C   UNL     1     -58.112 -34.439   8.219 -0.06 +0.00    +0.251 C  
DOCKED: BRANCH  14  15
DOCKED: ATOM     15  N   UNL     1     -58.049 -33.698   9.473 -0.02 +0.00    +0.141 N  
DOCKED: ATOM     16  C   UNL     1     -56.658 -33.495   9.884 -0.01 +0.00    +0.285 C  
DOCKED: ATOM     17  C   UNL     1     -58.733 -32.410   9.346 -0.01 +0.00    +0.285 C  
DOCKED: ENDBRANCH  14  15
DOCKED: ENDBRANCH  13  14
DOCKED: ENDBRANCH  12  13
DOCKED: ENDBRANCH   2  12
DOCKED: BRANCH   2  18
DOCKED: ATOM     18  C   UNL     1     -57.112 -37.419   8.818 -0.17 +0.00    +0.006 A  
DOCKED: ATOM     19  C   UNL     1     -56.790 -36.994  10.106 -0.09 +0.00    +0.001 A  
DOCKED: ATOM     20  C   UNL     1     -55.453 -36.863  10.482 -0.08 +0.00    +0.029 A  
DOCKED: ATOM     21  C   UNL     1     -54.440 -37.158   9.570 -0.10 +0.00    +0.140 A  
DOCKED: ATOM     22  C   UNL     1     -54.763 -37.583   8.282 -0.10 +0.00    +0.029 A  
DOCKED: ATOM     23  F   UNL     1     -53.157 -37.034   9.932 -0.02 -0.00    -0.204 F  
DOCKED: ATOM     24  C   UNL     1     -56.101 -37.714   7.905 -0.24 +0.00    +0.001 A  
DOCKED: ENDBRANCH   2  18
DOCKED: TORSDOF 5
DOCKED: TER
DOCKED: ENDMDL
________________________________________________________________________________


    FINAL DOCKED STATE:
    ________________________


Run:   192 / 512
Time taken for this run:   0.002s

DOCKED: MODEL        192
DOCKED: USER    Run = 192
DOCKED: USER
DOCKED: USER    Estimated Free Energy of Binding    =  -4.72 kcal/mol  [=(1)+(2)+(3)-(4)]
DOCKED: USER
DOCKED: USER    (1) Final Intermolecular Energy     =  -6.21 kcal/mol
DOCKED: USER        vdW + Hbond + desolv Energy     =  -6.21 kcal/mol
DOCKED: USER        Electrostatic Energy            =  +0.00 kcal/mol
DOCKED: USER        Moving Ligand-Fixed Receptor    =  -6.21 kcal/mol
DOCKED: USER        Moving Ligand-Moving Receptor   =  +0.00 kcal/mol
DOCKED: USER    (2) Final Total Internal Energy     =  -1.20 kcal/mol
DOCKED: USER    (3) Torsional Free Energy           =  +1.49 kcal/mol
DOCKED: USER    (4) Unbound System's Energy         =  -1.20 kcal/mol
DOCKED: USER
DOCKED: USER
DOCKED: REMARK  5 active torsions:
DOCKED: REMARK  status: ('A' for Active; 'I' for Inactive)
DOCKED: REMARK    1  A    between atoms: C_2  and  C_19 
DOCKED: REMARK    2  A    between atoms: C_2  and  C_11 
DOCKED: REMARK    3  A    between atoms: C_19  and  C_20 
DOCKED: REMARK    4  A    between atoms: C_20  and  C_21 
DOCKED: REMARK    5  A    between atoms: C_21  and  N_22 
DOCKED: USER                              x       y       z     vdW  Elec       q    Type
DOCKED: USER                           _______ _______ _______ _____ _____    ______ ____
DOCKED: ROOT
DOCKED: ATOM      1  O   UNL     1     -59.695 -36.381   8.615 -0.00 -0.00    -0.346 OA 
DOCKED: ATOM      2  C   UNL     1     -58.446 -37.130   8.469 -0.11 +0.00    +0.130 C  
DOCKED: ATOM      3  C   UNL     1     -58.563 -37.762   7.112 -0.25 +0.00    +0.004 A  
DOCKED: ATOM      4  C   UNL     1     -59.724 -37.325   6.491 -0.26 +0.00    +0.006 A  
DOCKED: ATOM      5  C   UNL     1     -60.440 -36.377   7.374 -0.15 +0.00    +0.169 C  
DOCKED: ATOM      6  C   UNL     1     -57.704 -38.645   6.474 -0.38 -0.00    -0.001 A  
DOCKED: ATOM      7  C   UNL     1     -60.068 -37.755   5.221 -0.25 +0.00    +0.008 A  
DOCKED: ATOM      8  C   UNL     1     -58.038 -39.091   5.194 -0.36 +0.00    +0.010 A  
DOCKED: ATOM      9  C   UNL     1     -59.214 -38.648   4.571 -0.41 +0.00    +0.068 A  
DOCKED: ATOM     10  N   UNL     1     -59.803 -39.492   2.193 -1.92 -0.00    -0.191 NA 
DOCKED: ATOM     11  C   UNL     1     -59.540 -39.114   3.260 -0.48 +0.00    +0.101 C  
DOCKED: ENDROOT
DOCKED: BRANCH   2  12
DOCKED: ATOM     12  C   UNL     1     -57.282 -36.151   8.569 -0.14 +0.00    +0.038 C  
DOCKED: BRANCH  12  13
DOCKED: ATOM     13  C   UNL     1     -57.769 -34.703   8.549 -0.08 +0.00    +0.038 C  
DOCKED: BRANCH  13  14
DOCKED: ATOM     14  C   UNL     1     -57.924 -34.196   7.116 -0.14 +0.00    +0.251 C  
DOCKED: BRANCH  14  15
DOCKED: ATOM     15  N   UNL     1     -58.654 -32.934   7.102 -0.13 +0.00    +0.141 N  
DOCKED: ATOM     16  C   UNL     1     -57.887 -31.903   6.399 -0.10 +0.00    +0.285 C  
DOCKED: ATOM     17  C   UNL     1     -59.967 -33.104   6.478 -0.15 +0.00    +0.285 C  
DOCKED: ENDBRANCH  14  15
DOCKED: ENDBRANCH  13  14
DOCKED: ENDBRANCH  12  13
DOCKED: ENDBRANCH   2  12
DOCKED: BRANCH   2  18
DOCKED: ATOM     18  C   UNL     1     -58.406 -38.130   9.575 -0.15 +0.00    +0.006 A  
DOCKED: ATOM     19  C   UNL     1     -57.196 -38.724   9.934 -0.16 +0.00    +0.001 A  
DOCKED: ATOM     20  C   UNL     1     -57.160 -39.659  10.969 -0.20 +0.00    +0.029 A  
DOCKED: ATOM     21  C   UNL     1     -58.332 -40.000  11.643 -0.08 +0.00    +0.140 A  
DOCKED: ATOM     22  C   UNL     1     -59.541 -39.406  11.283 -0.12 +0.00    +0.029 A  
DOCKED: ATOM     23  F   UNL     1     -58.296 -40.896  12.637 -0.06 -0.00    -0.204 F  
DOCKED: ATOM     24  C   UNL     1     -59.579 -38.470  10.248 -0.13 +0.00    +0.001 A  
DOCKED: ENDBRANCH   2  18
DOCKED: TORSDOF 5
DOCKED: TER
DOCKED: ENDMDL
________________________________________________________________________________


    FINAL DOCKED STATE:
    ________________________


Run:   193 / 512
Time taken for this run:   0.002s

DOCKED: MODEL        193
DOCKED: USER    Run = 193
DOCKED: USER
DOCKED: USER    Estimated Free Energy of Binding    =  -3.93 kcal/mol  [=(1)+(2)+(3)-(4)]
DOCKED: USER
DOCKED: USER    (1) Final Intermolecular Energy     =  -5.42 kcal/mol
DOCKED: USER        vdW + Hbond + desolv Energy     =  -5.42 kcal/mol
DOCKED: USER        Electrostatic Energy            =  +0.00 kcal/mol
DOCKED: USER        Moving Ligand-Fixed Receptor    =  -5.42 kcal/mol
DOCKED: USER        Moving Ligand-Moving Receptor   =  +0.00 kcal/mol
DOCKED: USER    (2) Final Total Internal Energy     =  -1.34 kcal/mol
DOCKED: USER    (3) Torsional Free Energy           =  +1.49 kcal/mol
DOCKED: USER    (4) Unbound System's Energy         =  -1.34 kcal/mol
DOCKED: USER
DOCKED: USER
DOCKED: REMARK  5 active torsions:
DOCKED: REMARK  status: ('A' for Active; 'I' for Inactive)
DOCKED: REMARK    1  A    between atoms: C_2  and  C_19 
DOCKED: REMARK    2  A    between atoms: C_2  and  C_11 
DOCKED: REMARK    3  A    between atoms: C_19  and  C_20 
DOCKED: REMARK    4  A    between atoms: C_20  and  C_21 
DOCKED: REMARK    5  A    between atoms: C_21  and  N_22 
DOCKED: USER                              x       y       z     vdW  Elec       q    Type
DOCKED: USER                           _______ _______ _______ _____ _____    ______ ____
DOCKED: ROOT
DOCKED: ATOM      1  O   UNL     1     -53.523 -30.212   0.319 -0.03 -0.00    -0.346 OA 
DOCKED: ATOM      2  C   UNL     1     -52.649 -30.141  -0.853 -0.07 +0.00    +0.130 C  
DOCKED: ATOM      3  C   UNL     1     -53.493 -29.455  -1.889 -0.17 +0.00    +0.004 A  
DOCKED: ATOM      4  C   UNL     1     -54.701 -29.069  -1.326 -0.25 +0.00    +0.006 A  
DOCKED: ATOM      5  C   UNL     1     -54.736 -29.455   0.103 -0.18 +0.00    +0.169 C  
DOCKED: ATOM      6  C   UNL     1     -53.209 -29.184  -3.219 -0.15 -0.00    -0.001 A  
DOCKED: ATOM      7  C   UNL     1     -55.664 -28.407  -2.069 -0.32 +0.00    +0.008 A  
DOCKED: ATOM      8  C   UNL     1     -54.171 -28.521  -3.983 -0.22 +0.00    +0.010 A  
DOCKED: ATOM      9  C   UNL     1     -55.392 -28.134  -3.410 -0.16 +0.00    +0.068 A  
DOCKED: ATOM     10  N   UNL     1     -57.154 -26.901  -4.855 -2.37 -0.00    -0.191 NA 
DOCKED: ATOM     11  C   UNL     1     -56.364 -27.454  -4.207 -0.30 +0.00    +0.101 C  
DOCKED: ENDROOT
DOCKED: BRANCH   2  12
DOCKED: ATOM     12  C   UNL     1     -51.404 -29.345  -0.480 -0.06 +0.00    +0.038 C  
DOCKED: BRANCH  12  13
DOCKED: ATOM     13  C   UNL     1     -51.747 -28.173   0.438 -0.13 +0.00    +0.038 C  
DOCKED: BRANCH  13  14
DOCKED: ATOM     14  C   UNL     1     -51.083 -26.885  -0.045 -0.09 +0.00    +0.251 C  
DOCKED: BRANCH  14  15
DOCKED: ATOM     15  N   UNL     1     -51.593 -26.512  -1.359 -0.11 +0.00    +0.141 N  
DOCKED: ATOM     16  C   UNL     1     -51.996 -25.105  -1.377 -0.13 +0.00    +0.285 C  
DOCKED: ATOM     17  C   UNL     1     -50.587 -26.765  -2.393 -0.01 +0.00    +0.285 C  
DOCKED: ENDBRANCH  14  15
DOCKED: ENDBRANCH  13  14
DOCKED: ENDBRANCH  12  13
DOCKED: ENDBRANCH   2  12
DOCKED: BRANCH   2  18
DOCKED: ATOM     18  C   UNL     1     -52.300 -31.543  -1.224 -0.06 +0.00    +0.006 A  
DOCKED: ATOM     19  C   UNL     1     -51.070 -32.078  -0.845 -0.02 +0.00    +0.001 A  
DOCKED: ATOM     20  C   UNL     1     -50.745 -33.390  -1.192 -0.03 +0.00    +0.029 A  
DOCKED: ATOM     21  C   UNL     1     -51.650 -34.165  -1.916 -0.11 +0.00    +0.140 A  
DOCKED: ATOM     22  C   UNL     1     -52.881 -33.629  -2.294 -0.21 +0.00    +0.029 A  
DOCKED: ATOM     23  F   UNL     1     -51.338 -35.424  -2.248 -0.06 -0.00    -0.204 F  
DOCKED: ATOM     24  C   UNL     1     -53.207 -32.317  -1.948 -0.19 +0.00    +0.001 A  
DOCKED: ENDBRANCH   2  18
DOCKED: TORSDOF 5
DOCKED: TER
DOCKED: ENDMDL
________________________________________________________________________________


    FINAL DOCKED STATE:
    ________________________


Run:   194 / 512
Time taken for this run:   0.002s

DOCKED: MODEL        194
DOCKED: USER    Run = 194
DOCKED: USER
DOCKED: USER    Estimated Free Energy of Binding    =  -3.86 kcal/mol  [=(1)+(2)+(3)-(4)]
DOCKED: USER
DOCKED: USER    (1) Final Intermolecular Energy     =  -5.35 kcal/mol
DOCKED: USER        vdW + Hbond + desolv Energy     =  -5.35 kcal/mol
DOCKED: USER        Electrostatic Energy            =  +0.00 kcal/mol
DOCKED: USER        Moving Ligand-Fixed Receptor    =  -5.35 kcal/mol
DOCKED: USER        Moving Ligand-Moving Receptor   =  +0.00 kcal/mol
DOCKED: USER    (2) Final Total Internal Energy     =  -1.01 kcal/mol
DOCKED: USER    (3) Torsional Free Energy           =  +1.49 kcal/mol
DOCKED: USER    (4) Unbound System's Energy         =  -1.01 kcal/mol
DOCKED: USER
DOCKED: USER
DOCKED: REMARK  5 active torsions:
DOCKED: REMARK  status: ('A' for Active; 'I' for Inactive)
DOCKED: REMARK    1  A    between atoms: C_2  and  C_19 
DOCKED: REMARK    2  A    between atoms: C_2  and  C_11 
DOCKED: REMARK    3  A    between atoms: C_19  and  C_20 
DOCKED: REMARK    4  A    between atoms: C_20  and  C_21 
DOCKED: REMARK    5  A    between atoms: C_21  and  N_22 
DOCKED: USER                              x       y       z     vdW  Elec       q    Type
DOCKED: USER                           _______ _______ _______ _____ _____    ______ ____
DOCKED: ROOT
DOCKED: ATOM      1  O   UNL     1     -60.620 -33.555   7.509 -0.07 -0.00    -0.346 OA 
DOCKED: ATOM      2  C   UNL     1     -59.232 -33.889   7.832 -0.12 +0.00    +0.130 C  
DOCKED: ATOM      3  C   UNL     1     -59.085 -35.309   7.365 -0.19 +0.00    +0.004 A  
DOCKED: ATOM      4  C   UNL     1     -60.251 -35.714   6.731 -0.20 +0.00    +0.006 A  
DOCKED: ATOM      5  C   UNL     1     -61.231 -34.605   6.723 -0.15 +0.00    +0.169 C  
DOCKED: ATOM      6  C   UNL     1     -58.003 -36.168   7.482 -0.20 -0.00    -0.001 A  
DOCKED: ATOM      7  C   UNL     1     -60.377 -36.986   6.200 -0.21 +0.00    +0.008 A  
DOCKED: ATOM      8  C   UNL     1     -58.116 -37.456   6.955 -0.28 +0.00    +0.010 A  
DOCKED: ATOM      9  C   UNL     1     -59.297 -37.862   6.317 -0.25 +0.00    +0.068 A  
DOCKED: ATOM     10  N   UNL     1     -59.472 -40.258   5.345 -2.55 -0.00    -0.191 NA 
DOCKED: ATOM     11  C   UNL     1     -59.394 -39.184   5.781 -0.36 +0.00    +0.101 C  
DOCKED: ENDROOT
DOCKED: BRANCH   2  12
DOCKED: ATOM     12  C   UNL     1     -58.317 -32.923   7.088 -0.16 +0.00    +0.038 C  
DOCKED: BRANCH  12  13
DOCKED: ATOM     13  C   UNL     1     -59.120 -31.868   6.329 -0.18 +0.00    +0.038 C  
DOCKED: BRANCH  13  14
DOCKED: ATOM     14  C   UNL     1     -58.363 -31.384   5.094 +0.02 +0.00    +0.251 C  
DOCKED: BRANCH  14  15
DOCKED: ATOM     15  N   UNL     1     -58.875 -30.089   4.661 -0.13 +0.00    +0.141 N  
DOCKED: ATOM     16  C   UNL     1     -58.674 -29.911   3.222 -0.15 +0.00    +0.285 C  
DOCKED: ATOM     17  C   UNL     1     -60.294 -29.958   4.996 -0.09 +0.00    +0.285 C  
DOCKED: ENDBRANCH  14  15
DOCKED: ENDBRANCH  13  14
DOCKED: ENDBRANCH  12  13
DOCKED: ENDBRANCH   2  12
DOCKED: BRANCH   2  18
DOCKED: ATOM     18  C   UNL     1     -59.081 -33.744   9.309 -0.03 +0.00    +0.006 A  
DOCKED: ATOM     19  C   UNL     1     -60.211 -33.646  10.119 -0.02 +0.00    +0.001 A  
DOCKED: ATOM     20  C   UNL     1     -60.069 -33.510  11.500 -0.00 +0.00    +0.029 A  
DOCKED: ATOM     21  C   UNL     1     -58.797 -33.473  12.070 +0.00 +0.00    +0.140 A  
DOCKED: ATOM     22  C   UNL     1     -57.666 -33.571  11.259 -0.00 +0.00    +0.029 A  
DOCKED: ATOM     23  F   UNL     1     -58.660 -33.344  13.396 +0.00 -0.00    -0.204 F  
DOCKED: ATOM     24  C   UNL     1     -57.808 -33.706   9.877 -0.02 +0.00    +0.001 A  
DOCKED: ENDBRANCH   2  18
DOCKED: TORSDOF 5
DOCKED: TER
DOCKED: ENDMDL
________________________________________________________________________________


    FINAL DOCKED STATE:
    ________________________


Run:   195 / 512
Time taken for this run:   0.002s

DOCKED: MODEL        195
DOCKED: USER    Run = 195
DOCKED: USER
DOCKED: USER    Estimated Free Energy of Binding    =  -4.86 kcal/mol  [=(1)+(2)+(3)-(4)]
DOCKED: USER
DOCKED: USER    (1) Final Intermolecular Energy     =  -6.35 kcal/mol
DOCKED: USER        vdW + Hbond + desolv Energy     =  -6.35 kcal/mol
DOCKED: USER        Electrostatic Energy            =  +0.00 kcal/mol
DOCKED: USER        Moving Ligand-Fixed Receptor    =  -6.35 kcal/mol
DOCKED: USER        Moving Ligand-Moving Receptor   =  +0.00 kcal/mol
DOCKED: USER    (2) Final Total Internal Energy     =  -1.07 kcal/mol
DOCKED: USER    (3) Torsional Free Energy           =  +1.49 kcal/mol
DOCKED: USER    (4) Unbound System's Energy         =  -1.07 kcal/mol
DOCKED: USER
DOCKED: USER
DOCKED: REMARK  5 active torsions:
DOCKED: REMARK  status: ('A' for Active; 'I' for Inactive)
DOCKED: REMARK    1  A    between atoms: C_2  and  C_19 
DOCKED: REMARK    2  A    between atoms: C_2  and  C_11 
DOCKED: REMARK    3  A    between atoms: C_19  and  C_20 
DOCKED: REMARK    4  A    between atoms: C_20  and  C_21 
DOCKED: REMARK    5  A    between atoms: C_21  and  N_22 
DOCKED: USER                              x       y       z     vdW  Elec       q    Type
DOCKED: USER                           _______ _______ _______ _____ _____    ______ ____
DOCKED: ROOT
DOCKED: ATOM      1  O   UNL     1     -57.971 -36.034   8.732 -0.01 -0.00    -0.346 OA 
DOCKED: ATOM      2  C   UNL     1     -57.401 -37.381   8.708 -0.15 +0.00    +0.130 C  
DOCKED: ATOM      3  C   UNL     1     -57.778 -37.907   7.353 -0.29 +0.00    +0.004 A  
DOCKED: ATOM      4  C   UNL     1     -58.411 -36.910   6.625 -0.29 +0.00    +0.006 A  
DOCKED: ATOM      5  C   UNL     1     -58.484 -35.670   7.429 -0.16 +0.00    +0.169 C  
DOCKED: ATOM      6  C   UNL     1     -57.568 -39.164   6.805 -0.40 -0.00    -0.001 A  
DOCKED: ATOM      7  C   UNL     1     -58.857 -37.134   5.333 -0.30 +0.00    +0.008 A  
DOCKED: ATOM      8  C   UNL     1     -58.015 -39.407   5.506 -0.42 +0.00    +0.010 A  
DOCKED: ATOM      9  C   UNL     1     -58.656 -38.396   4.773 -0.39 +0.00    +0.068 A  
DOCKED: ATOM     10  N   UNL     1     -59.470 -38.878   2.361 -2.00 -0.00    -0.191 NA 
DOCKED: ATOM     11  C   UNL     1     -59.106 -38.662   3.443 -0.52 +0.00    +0.101 C  
DOCKED: ENDROOT
DOCKED: BRANCH   2  12
DOCKED: ATOM     12  C   UNL     1     -55.893 -37.271   8.903 -0.20 +0.00    +0.038 C  
DOCKED: BRANCH  12  13
DOCKED: ATOM     13  C   UNL     1     -55.286 -36.224   7.972 -0.14 +0.00    +0.038 C  
DOCKED: BRANCH  13  14
DOCKED: ATOM     14  C   UNL     1     -55.566 -34.810   8.478 -0.07 +0.00    +0.251 C  
DOCKED: BRANCH  14  15
DOCKED: ATOM     15  N   UNL     1     -55.423 -33.846   7.393 -0.09 +0.00    +0.141 N  
DOCKED: ATOM     16  C   UNL     1     -55.309 -32.487   7.924 -0.02 +0.00    +0.285 C  
DOCKED: ATOM     17  C   UNL     1     -54.258 -34.168   6.568 -0.06 +0.00    +0.285 C  
DOCKED: ENDBRANCH  14  15
DOCKED: ENDBRANCH  13  14
DOCKED: ENDBRANCH  12  13
DOCKED: ENDBRANCH   2  12
DOCKED: BRANCH   2  18
DOCKED: ATOM     18  C   UNL     1     -58.034 -38.143   9.824 -0.15 +0.00    +0.006 A  
DOCKED: ATOM     19  C   UNL     1     -59.247 -37.712  10.361 -0.09 +0.00    +0.001 A  
DOCKED: ATOM     20  C   UNL     1     -59.838 -38.425  11.405 -0.09 +0.00    +0.029 A  
DOCKED: ATOM     21  C   UNL     1     -59.216 -39.566  11.910 -0.11 +0.00    +0.140 A  
DOCKED: ATOM     22  C   UNL     1     -58.003 -39.995  11.373 -0.17 +0.00    +0.029 A  
DOCKED: ATOM     23  F   UNL     1     -59.785 -40.250  12.911 -0.04 -0.00    -0.204 F  
DOCKED: ATOM     24  C   UNL     1     -57.411 -39.283  10.329 -0.19 +0.00    +0.001 A  
DOCKED: ENDBRANCH   2  18
DOCKED: TORSDOF 5
DOCKED: TER
DOCKED: ENDMDL
________________________________________________________________________________


    FINAL DOCKED STATE:
    ________________________


Run:   196 / 512
Time taken for this run:   0.002s

DOCKED: MODEL        196
DOCKED: USER    Run = 196
DOCKED: USER
DOCKED: USER    Estimated Free Energy of Binding    =  -5.13 kcal/mol  [=(1)+(2)+(3)-(4)]
DOCKED: USER
DOCKED: USER    (1) Final Intermolecular Energy     =  -6.62 kcal/mol
DOCKED: USER        vdW + Hbond + desolv Energy     =  -6.62 kcal/mol
DOCKED: USER        Electrostatic Energy            =  +0.00 kcal/mol
DOCKED: USER        Moving Ligand-Fixed Receptor    =  -6.62 kcal/mol
DOCKED: USER        Moving Ligand-Moving Receptor   =  +0.00 kcal/mol
DOCKED: USER    (2) Final Total Internal Energy     =  -1.36 kcal/mol
DOCKED: USER    (3) Torsional Free Energy           =  +1.49 kcal/mol
DOCKED: USER    (4) Unbound System's Energy         =  -1.36 kcal/mol
DOCKED: USER
DOCKED: USER
DOCKED: REMARK  5 active torsions:
DOCKED: REMARK  status: ('A' for Active; 'I' for Inactive)
DOCKED: REMARK    1  A    between atoms: C_2  and  C_19 
DOCKED: REMARK    2  A    between atoms: C_2  and  C_11 
DOCKED: REMARK    3  A    between atoms: C_19  and  C_20 
DOCKED: REMARK    4  A    between atoms: C_20  and  C_21 
DOCKED: REMARK    5  A    between atoms: C_21  and  N_22 
DOCKED: USER                              x       y       z     vdW  Elec       q    Type
DOCKED: USER                           _______ _______ _______ _____ _____    ______ ____
DOCKED: ROOT
DOCKED: ATOM      1  O   UNL     1     -57.024 -38.645   8.704 -0.09 -0.00    -0.346 OA 
DOCKED: ATOM      2  C   UNL     1     -57.194 -37.293   8.170 -0.19 +0.00    +0.130 C  
DOCKED: ATOM      3  C   UNL     1     -57.756 -37.517   6.795 -0.31 +0.00    +0.004 A  
DOCKED: ATOM      4  C   UNL     1     -57.991 -38.871   6.602 -0.38 +0.00    +0.006 A  
DOCKED: ATOM      5  C   UNL     1     -57.619 -39.624   7.821 -0.24 +0.00    +0.169 C  
DOCKED: ATOM      6  C   UNL     1     -58.046 -36.595   5.800 -0.30 -0.00    -0.001 A  
DOCKED: ATOM      7  C   UNL     1     -58.517 -39.349   5.414 -0.44 +0.00    +0.008 A  
DOCKED: ATOM      8  C   UNL     1     -58.573 -37.062   4.595 -0.04 +0.00    +0.010 A  
DOCKED: ATOM      9  C   UNL     1     -58.808 -38.431   4.403 -0.40 +0.00    +0.068 A  
DOCKED: ATOM     10  N   UNL     1     -59.792 -39.263   2.155 -2.18 -0.00    -0.191 NA 
DOCKED: ATOM     11  C   UNL     1     -59.350 -38.890   3.163 -0.51 +0.00    +0.101 C  
DOCKED: ENDROOT
DOCKED: BRANCH   2  12
DOCKED: ATOM     12  C   UNL     1     -58.146 -36.529   9.083 -0.10 +0.00    +0.038 C  
DOCKED: BRANCH  12  13
DOCKED: ATOM     13  C   UNL     1     -59.584 -37.015   8.919 -0.10 +0.00    +0.038 C  
DOCKED: BRANCH  13  14
DOCKED: ATOM     14  C   UNL     1     -60.530 -35.849   8.640 -0.04 +0.00    +0.251 C  
DOCKED: BRANCH  14  15
DOCKED: ATOM     15  N   UNL     1     -60.644 -35.620   7.205 -0.16 +0.00    +0.141 N  
DOCKED: ATOM     16  C   UNL     1     -61.936 -36.093   6.707 -0.10 +0.00    +0.285 C  
DOCKED: ATOM     17  C   UNL     1     -60.469 -34.200   6.893 -0.16 +0.00    +0.285 C  
DOCKED: ENDBRANCH  14  15
DOCKED: ENDBRANCH  13  14
DOCKED: ENDBRANCH  12  13
DOCKED: ENDBRANCH   2  12
DOCKED: BRANCH   2  18
DOCKED: ATOM     18  C   UNL     1     -55.843 -36.659   8.149 -0.19 +0.00    +0.006 A  
DOCKED: ATOM     19  C   UNL     1     -54.724 -37.391   8.545 -0.19 +0.00    +0.001 A  
DOCKED: ATOM     20  C   UNL     1     -53.461 -36.798   8.526 -0.15 +0.00    +0.029 A  
DOCKED: ATOM     21  C   UNL     1     -53.319 -35.474   8.111 -0.09 +0.00    +0.140 A  
DOCKED: ATOM     22  C   UNL     1     -54.439 -34.743   7.714 -0.11 +0.00    +0.029 A  
DOCKED: ATOM     23  F   UNL     1     -52.107 -34.905   8.091 -0.01 -0.00    -0.204 F  
DOCKED: ATOM     24  C   UNL     1     -55.702 -35.336   7.734 -0.14 +0.00    +0.001 A  
DOCKED: ENDBRANCH   2  18
DOCKED: TORSDOF 5
DOCKED: TER
DOCKED: ENDMDL
________________________________________________________________________________


    FINAL DOCKED STATE:
    ________________________


Run:   197 / 512
Time taken for this run:   0.002s

DOCKED: MODEL        197
DOCKED: USER    Run = 197
DOCKED: USER
DOCKED: USER    Estimated Free Energy of Binding    =  -3.94 kcal/mol  [=(1)+(2)+(3)-(4)]
DOCKED: USER
DOCKED: USER    (1) Final Intermolecular Energy     =  -5.43 kcal/mol
DOCKED: USER        vdW + Hbond + desolv Energy     =  -5.43 kcal/mol
DOCKED: USER        Electrostatic Energy            =  +0.00 kcal/mol
DOCKED: USER        Moving Ligand-Fixed Receptor    =  -5.43 kcal/mol
DOCKED: USER        Moving Ligand-Moving Receptor   =  +0.00 kcal/mol
DOCKED: USER    (2) Final Total Internal Energy     =  -1.22 kcal/mol
DOCKED: USER    (3) Torsional Free Energy           =  +1.49 kcal/mol
DOCKED: USER    (4) Unbound System's Energy         =  -1.22 kcal/mol
DOCKED: USER
DOCKED: USER
DOCKED: REMARK  5 active torsions:
DOCKED: REMARK  status: ('A' for Active; 'I' for Inactive)
DOCKED: REMARK    1  A    between atoms: C_2  and  C_19 
DOCKED: REMARK    2  A    between atoms: C_2  and  C_11 
DOCKED: REMARK    3  A    between atoms: C_19  and  C_20 
DOCKED: REMARK    4  A    between atoms: C_20  and  C_21 
DOCKED: REMARK    5  A    between atoms: C_21  and  N_22 
DOCKED: USER                              x       y       z     vdW  Elec       q    Type
DOCKED: USER                           _______ _______ _______ _____ _____    ______ ____
DOCKED: ROOT
DOCKED: ATOM      1  O   UNL     1     -54.775 -36.199   8.616 -0.08 -0.00    -0.346 OA 
DOCKED: ATOM      2  C   UNL     1     -55.957 -35.351   8.457 -0.11 +0.00    +0.130 C  
DOCKED: ATOM      3  C   UNL     1     -56.942 -36.236   7.749 -0.20 +0.00    +0.004 A  
DOCKED: ATOM      4  C   UNL     1     -56.412 -37.511   7.614 -0.25 +0.00    +0.006 A  
DOCKED: ATOM      5  C   UNL     1     -55.065 -37.562   8.226 -0.08 +0.00    +0.169 C  
DOCKED: ATOM      6  C   UNL     1     -58.211 -35.939   7.272 -0.22 -0.00    -0.001 A  
DOCKED: ATOM      7  C   UNL     1     -57.124 -38.527   6.999 -0.35 +0.00    +0.008 A  
DOCKED: ATOM      8  C   UNL     1     -58.940 -36.951   6.646 -0.27 +0.00    +0.010 A  
DOCKED: ATOM      9  C   UNL     1     -58.399 -38.238   6.510 -0.29 +0.00    +0.068 A  
DOCKED: ATOM     10  N   UNL     1     -59.781 -40.095   5.346 -2.56 -0.00    -0.191 NA 
DOCKED: ATOM     11  C   UNL     1     -59.161 -39.262   5.868 -0.34 +0.00    +0.101 C  
DOCKED: ENDROOT
DOCKED: BRANCH   2  12
DOCKED: ATOM     12  C   UNL     1     -56.433 -34.921   9.839 -0.04 +0.00    +0.038 C  
DOCKED: BRANCH  12  13
DOCKED: ATOM     13  C   UNL     1     -57.775 -35.559  10.190 -0.04 +0.00    +0.038 C  
DOCKED: BRANCH  13  14
DOCKED: ATOM     14  C   UNL     1     -57.578 -36.865  10.959 -0.03 +0.00    +0.251 C  
DOCKED: BRANCH  14  15
DOCKED: ATOM     15  N   UNL     1     -56.306 -36.847  11.671 -0.03 +0.00    +0.141 N  
DOCKED: ATOM     16  C   UNL     1     -56.507 -36.490  13.077 -0.01 +0.00    +0.285 C  
DOCKED: ATOM     17  C   UNL     1     -55.639 -38.146  11.568 -0.07 +0.00    +0.285 C  
DOCKED: ENDBRANCH  14  15
DOCKED: ENDBRANCH  13  14
DOCKED: ENDBRANCH  12  13
DOCKED: ENDBRANCH   2  12
DOCKED: BRANCH   2  18
DOCKED: ATOM     18  C   UNL     1     -55.542 -34.173   7.640 -0.12 +0.00    +0.006 A  
DOCKED: ATOM     19  C   UNL     1     -55.978 -32.896   7.987 -0.05 +0.00    +0.001 A  
DOCKED: ATOM     20  C   UNL     1     -55.589 -31.795   7.222 -0.04 +0.00    +0.029 A  
DOCKED: ATOM     21  C   UNL     1     -54.764 -31.974   6.112 -0.05 +0.00    +0.140 A  
DOCKED: ATOM     22  C   UNL     1     -54.328 -33.253   5.766 -0.12 +0.00    +0.029 A  
DOCKED: ATOM     23  F   UNL     1     -54.389 -30.918   5.379 -0.00 -0.00    -0.204 F  
DOCKED: ATOM     24  C   UNL     1     -54.717 -34.354   6.530 -0.08 +0.00    +0.001 A  
DOCKED: ENDBRANCH   2  18
DOCKED: TORSDOF 5
DOCKED: TER
DOCKED: ENDMDL
________________________________________________________________________________


    FINAL DOCKED STATE:
    ________________________


Run:   198 / 512
Time taken for this run:   0.002s

DOCKED: MODEL        198
DOCKED: USER    Run = 198
DOCKED: USER
DOCKED: USER    Estimated Free Energy of Binding    =  -3.64 kcal/mol  [=(1)+(2)+(3)-(4)]
DOCKED: USER
DOCKED: USER    (1) Final Intermolecular Energy     =  -5.13 kcal/mol
DOCKED: USER        vdW + Hbond + desolv Energy     =  -5.13 kcal/mol
DOCKED: USER        Electrostatic Energy            =  +0.00 kcal/mol
DOCKED: USER        Moving Ligand-Fixed Receptor    =  -5.13 kcal/mol
DOCKED: USER        Moving Ligand-Moving Receptor   =  +0.00 kcal/mol
DOCKED: USER    (2) Final Total Internal Energy     =  -1.30 kcal/mol
DOCKED: USER    (3) Torsional Free Energy           =  +1.49 kcal/mol
DOCKED: USER    (4) Unbound System's Energy         =  -1.30 kcal/mol
DOCKED: USER
DOCKED: USER
DOCKED: REMARK  5 active torsions:
DOCKED: REMARK  status: ('A' for Active; 'I' for Inactive)
DOCKED: REMARK    1  A    between atoms: C_2  and  C_19 
DOCKED: REMARK    2  A    between atoms: C_2  and  C_11 
DOCKED: REMARK    3  A    between atoms: C_19  and  C_20 
DOCKED: REMARK    4  A    between atoms: C_20  and  C_21 
DOCKED: REMARK    5  A    between atoms: C_21  and  N_22 
DOCKED: USER                              x       y       z     vdW  Elec       q    Type
DOCKED: USER                           _______ _______ _______ _____ _____    ______ ____
DOCKED: ROOT
DOCKED: ATOM      1  O   UNL     1     -51.570 -24.871  -1.654 -0.06 -0.00    -0.346 OA 
DOCKED: ATOM      2  C   UNL     1     -51.267 -25.299  -3.020 -0.10 +0.00    +0.130 C  
DOCKED: ATOM      3  C   UNL     1     -52.561 -25.881  -3.510 -0.13 +0.00    +0.004 A  
DOCKED: ATOM      4  C   UNL     1     -53.547 -25.700  -2.551 -0.23 +0.00    +0.006 A  
DOCKED: ATOM      5  C   UNL     1     -52.986 -24.986  -1.382 -0.18 +0.00    +0.169 C  
DOCKED: ATOM      6  C   UNL     1     -52.846 -26.509  -4.714 -0.20 -0.00    -0.001 A  
DOCKED: ATOM      7  C   UNL     1     -54.843 -26.142  -2.757 -0.12 +0.00    +0.008 A  
DOCKED: ATOM      8  C   UNL     1     -54.147 -26.964  -4.935 -0.32 +0.00    +0.010 A  
DOCKED: ATOM      9  C   UNL     1     -55.140 -26.781  -3.962 -0.38 +0.00    +0.068 A  
DOCKED: ATOM     10  N   UNL     1     -57.546 -27.633  -4.407 -2.35 -0.00    -0.191 NA 
DOCKED: ATOM     11  C   UNL     1     -56.467 -27.252  -4.207 -0.36 +0.00    +0.101 C  
DOCKED: ENDROOT
DOCKED: BRANCH   2  12
DOCKED: ATOM     12  C   UNL     1     -50.822 -24.081  -3.820 -0.14 +0.00    +0.038 C  
DOCKED: BRANCH  12  13
DOCKED: ATOM     13  C   UNL     1     -51.647 -22.847  -3.461 -0.16 +0.00    +0.038 C  
DOCKED: BRANCH  13  14
DOCKED: ATOM     14  C   UNL     1     -50.932 -21.994  -2.414 -0.06 +0.00    +0.251 C  
DOCKED: BRANCH  14  15
DOCKED: ATOM     15  N   UNL     1     -51.899 -21.384  -1.510 -0.08 +0.00    +0.141 N  
DOCKED: ATOM     16  C   UNL     1     -53.257 -21.823  -1.834 -0.12 +0.00    +0.285 C  
DOCKED: ATOM     17  C   UNL     1     -51.580 -21.709  -0.118 -0.04 +0.00    +0.285 C  
DOCKED: ENDBRANCH  14  15
DOCKED: ENDBRANCH  13  14
DOCKED: ENDBRANCH  12  13
DOCKED: ENDBRANCH   2  12
DOCKED: BRANCH   2  18
DOCKED: ATOM     18  C   UNL     1     -50.173 -26.311  -2.927 -0.04 +0.00    +0.006 A  
DOCKED: ATOM     19  C   UNL     1     -48.946 -26.069  -3.543 -0.02 +0.00    +0.001 A  
DOCKED: ATOM     20  C   UNL     1     -47.925 -27.015  -3.455 -0.00 +0.00    +0.029 A  
DOCKED: ATOM     21  C   UNL     1     -48.131 -28.201  -2.752 -0.00 +0.00    +0.140 A  
DOCKED: ATOM     22  C   UNL     1     -49.359 -28.442  -2.136 -0.01 +0.00    +0.029 A  
DOCKED: ATOM     23  F   UNL     1     -47.150 -29.109  -2.667 -0.00 -0.00    -0.204 F  
DOCKED: ATOM     24  C   UNL     1     -50.382 -27.496  -2.223 -0.03 +0.00    +0.001 A  
DOCKED: ENDBRANCH   2  18
DOCKED: TORSDOF 5
DOCKED: TER
DOCKED: ENDMDL
________________________________________________________________________________


    FINAL DOCKED STATE:
    ________________________


Run:   199 / 512
Time taken for this run:   0.002s

DOCKED: MODEL        199
DOCKED: USER    Run = 199
DOCKED: USER
DOCKED: USER    Estimated Free Energy of Binding    =  -3.77 kcal/mol  [=(1)+(2)+(3)-(4)]
DOCKED: USER
DOCKED: USER    (1) Final Intermolecular Energy     =  -5.26 kcal/mol
DOCKED: USER        vdW + Hbond + desolv Energy     =  -5.26 kcal/mol
DOCKED: USER        Electrostatic Energy            =  +0.00 kcal/mol
DOCKED: USER        Moving Ligand-Fixed Receptor    =  -5.26 kcal/mol
DOCKED: USER        Moving Ligand-Moving Receptor   =  +0.00 kcal/mol
DOCKED: USER    (2) Final Total Internal Energy     =  -0.86 kcal/mol
DOCKED: USER    (3) Torsional Free Energy           =  +1.49 kcal/mol
DOCKED: USER    (4) Unbound System's Energy         =  -0.86 kcal/mol
DOCKED: USER
DOCKED: USER
DOCKED: REMARK  5 active torsions:
DOCKED: REMARK  status: ('A' for Active; 'I' for Inactive)
DOCKED: REMARK    1  A    between atoms: C_2  and  C_19 
DOCKED: REMARK    2  A    between atoms: C_2  and  C_11 
DOCKED: REMARK    3  A    between atoms: C_19  and  C_20 
DOCKED: REMARK    4  A    between atoms: C_20  and  C_21 
DOCKED: REMARK    5  A    between atoms: C_21  and  N_22 
DOCKED: USER                              x       y       z     vdW  Elec       q    Type
DOCKED: USER                           _______ _______ _______ _____ _____    ______ ____
DOCKED: ROOT
DOCKED: ATOM      1  O   UNL     1     -53.006 -34.465   0.585 -0.02 -0.00    -0.346 OA 
DOCKED: ATOM      2  C   UNL     1     -51.708 -35.015   0.193 -0.12 +0.00    +0.130 C  
DOCKED: ATOM      3  C   UNL     1     -51.631 -36.318   0.934 -0.16 +0.00    +0.004 A  
DOCKED: ATOM      4  C   UNL     1     -52.826 -36.546   1.603 -0.31 +0.00    +0.006 A  
DOCKED: ATOM      5  C   UNL     1     -53.766 -35.433   1.345 -0.28 +0.00    +0.169 C  
DOCKED: ATOM      6  C   UNL     1     -50.592 -37.234   1.002 -0.11 -0.00    -0.001 A  
DOCKED: ATOM      7  C   UNL     1     -53.020 -37.688   2.362 -0.22 +0.00    +0.008 A  
DOCKED: ATOM      8  C   UNL     1     -50.771 -38.389   1.767 -0.18 +0.00    +0.010 A  
DOCKED: ATOM      9  C   UNL     1     -51.980 -38.614   2.442 -0.31 +0.00    +0.068 A  
DOCKED: ATOM     10  N   UNL     1     -52.281 -40.769   3.848 -2.55 -0.00    -0.191 NA 
DOCKED: ATOM     11  C   UNL     1     -52.146 -39.802   3.218 -0.36 +0.00    +0.101 C  
DOCKED: ENDROOT
DOCKED: BRANCH   2  12
DOCKED: ATOM     12  C   UNL     1     -51.695 -35.192  -1.321 -0.15 +0.00    +0.038 C  
DOCKED: BRANCH  12  13
DOCKED: ATOM     13  C   UNL     1     -50.613 -36.176  -1.758 -0.13 +0.00    +0.038 C  
DOCKED: BRANCH  13  14
DOCKED: ATOM     14  C   UNL     1     -50.843 -36.645  -3.193 -0.11 +0.00    +0.251 C  
DOCKED: BRANCH  14  15
DOCKED: ATOM     15  N   UNL     1     -49.929 -37.732  -3.525 -0.10 +0.00    +0.141 N  
DOCKED: ATOM     16  C   UNL     1     -48.821 -37.242  -4.346 -0.02 +0.00    +0.285 C  
DOCKED: ATOM     17  C   UNL     1     -49.418 -38.365  -2.308 -0.06 +0.00    +0.285 C  
DOCKED: ENDBRANCH  14  15
DOCKED: ENDBRANCH  13  14
DOCKED: ENDBRANCH  12  13
DOCKED: ENDBRANCH   2  12
DOCKED: BRANCH   2  18
DOCKED: ATOM     18  C   UNL     1     -50.669 -34.036   0.629 -0.03 +0.00    +0.006 A  
DOCKED: ATOM     19  C   UNL     1     -49.444 -33.979  -0.033 -0.01 +0.00    +0.001 A  
DOCKED: ATOM     20  C   UNL     1     -48.473 -33.063   0.376 -0.00 +0.00    +0.029 A  
DOCKED: ATOM     21  C   UNL     1     -48.730 -32.206   1.445 +0.00 +0.00    +0.140 A  
DOCKED: ATOM     22  C   UNL     1     -49.957 -32.263   2.107 -0.00 +0.00    +0.029 A  
DOCKED: ATOM     23  F   UNL     1     -47.800 -31.326   1.836 +0.00 -0.00    -0.204 F  
DOCKED: ATOM     24  C   UNL     1     -50.928 -33.180   1.699 -0.02 +0.00    +0.001 A  
DOCKED: ENDBRANCH   2  18
DOCKED: TORSDOF 5
DOCKED: TER
DOCKED: ENDMDL
________________________________________________________________________________


    FINAL DOCKED STATE:
    ________________________


Run:   200 / 512
Time taken for this run:   0.002s

DOCKED: MODEL        200
DOCKED: USER    Run = 200
DOCKED: USER
DOCKED: USER    Estimated Free Energy of Binding    =  -4.89 kcal/mol  [=(1)+(2)+(3)-(4)]
DOCKED: USER
DOCKED: USER    (1) Final Intermolecular Energy     =  -6.38 kcal/mol
DOCKED: USER        vdW + Hbond + desolv Energy     =  -6.38 kcal/mol
DOCKED: USER        Electrostatic Energy            =  +0.00 kcal/mol
DOCKED: USER        Moving Ligand-Fixed Receptor    =  -6.38 kcal/mol
DOCKED: USER        Moving Ligand-Moving Receptor   =  +0.00 kcal/mol
DOCKED: USER    (2) Final Total Internal Energy     =  -1.38 kcal/mol
DOCKED: USER    (3) Torsional Free Energy           =  +1.49 kcal/mol
DOCKED: USER    (4) Unbound System's Energy         =  -1.38 kcal/mol
DOCKED: USER
DOCKED: USER
DOCKED: REMARK  5 active torsions:
DOCKED: REMARK  status: ('A' for Active; 'I' for Inactive)
DOCKED: REMARK    1  A    between atoms: C_2  and  C_19 
DOCKED: REMARK    2  A    between atoms: C_2  and  C_11 
DOCKED: REMARK    3  A    between atoms: C_19  and  C_20 
DOCKED: REMARK    4  A    between atoms: C_20  and  C_21 
DOCKED: REMARK    5  A    between atoms: C_21  and  N_22 
DOCKED: USER                              x       y       z     vdW  Elec       q    Type
DOCKED: USER                           _______ _______ _______ _____ _____    ______ ____
DOCKED: ROOT
DOCKED: ATOM      1  O   UNL     1     -57.346 -38.782   8.916 -0.09 -0.00    -0.346 OA 
DOCKED: ATOM      2  C   UNL     1     -57.467 -37.407   8.429 -0.16 +0.00    +0.130 C  
DOCKED: ATOM      3  C   UNL     1     -57.962 -37.567   7.020 -0.29 +0.00    +0.004 A  
DOCKED: ATOM      4  C   UNL     1     -58.207 -38.908   6.761 -0.35 +0.00    +0.006 A  
DOCKED: ATOM      5  C   UNL     1     -57.910 -39.715   7.966 -0.16 +0.00    +0.169 C  
DOCKED: ATOM      6  C   UNL     1     -58.187 -36.602   6.050 -0.32 -0.00    -0.001 A  
DOCKED: ATOM      7  C   UNL     1     -58.680 -39.329   5.530 -0.41 +0.00    +0.008 A  
DOCKED: ATOM      8  C   UNL     1     -58.658 -37.011   4.801 -0.14 +0.00    +0.010 A  
DOCKED: ATOM      9  C   UNL     1     -58.904 -38.368   4.543 -0.40 +0.00    +0.068 A  
DOCKED: ATOM     10  N   UNL     1     -59.785 -39.093   2.217 -2.19 -0.00    -0.191 NA 
DOCKED: ATOM     11  C   UNL     1     -59.389 -38.768   3.260 -0.51 +0.00    +0.101 C  
DOCKED: ENDROOT
DOCKED: BRANCH   2  12
DOCKED: ATOM     12  C   UNL     1     -58.452 -36.663   9.323 -0.09 +0.00    +0.038 C  
DOCKED: BRANCH  12  13
DOCKED: ATOM     13  C   UNL     1     -59.893 -37.074   9.026 -0.10 +0.00    +0.038 C  
DOCKED: BRANCH  13  14
DOCKED: ATOM     14  C   UNL     1     -60.777 -35.849   8.795 -0.03 +0.00    +0.251 C  
DOCKED: BRANCH  14  15
DOCKED: ATOM     15  N   UNL     1     -60.903 -35.577   7.368 -0.15 +0.00    +0.141 N  
DOCKED: ATOM     16  C   UNL     1     -61.801 -36.545   6.736 -0.12 +0.00    +0.285 C  
DOCKED: ATOM     17  C   UNL     1     -61.388 -34.214   7.144 -0.14 +0.00    +0.285 C  
DOCKED: ENDBRANCH  14  15
DOCKED: ENDBRANCH  13  14
DOCKED: ENDBRANCH  12  13
DOCKED: ENDBRANCH   2  12
DOCKED: BRANCH   2  18
DOCKED: ATOM     18  C   UNL     1     -56.107 -36.797   8.502 -0.18 +0.00    +0.006 A  
DOCKED: ATOM     19  C   UNL     1     -55.966 -35.443   8.805 -0.10 +0.00    +0.001 A  
DOCKED: ATOM     20  C   UNL     1     -54.694 -34.874   8.873 -0.07 +0.00    +0.029 A  
DOCKED: ATOM     21  C   UNL     1     -53.566 -35.658   8.638 -0.08 +0.00    +0.140 A  
DOCKED: ATOM     22  C   UNL     1     -53.708 -37.012   8.335 -0.16 +0.00    +0.029 A  
DOCKED: ATOM     23  F   UNL     1     -52.345 -35.112   8.705 -0.01 -0.00    -0.204 F  
DOCKED: ATOM     24  C   UNL     1     -54.980 -37.582   8.267 -0.12 +0.00    +0.001 A  
DOCKED: ENDBRANCH   2  18
DOCKED: TORSDOF 5
DOCKED: TER
DOCKED: ENDMDL
________________________________________________________________________________


    FINAL DOCKED STATE:
    ________________________


Run:   201 / 512
Time taken for this run:   0.002s

DOCKED: MODEL        201
DOCKED: USER    Run = 201
DOCKED: USER
DOCKED: USER    Estimated Free Energy of Binding    =  -4.62 kcal/mol  [=(1)+(2)+(3)-(4)]
DOCKED: USER
DOCKED: USER    (1) Final Intermolecular Energy     =  -6.11 kcal/mol
DOCKED: USER        vdW + Hbond + desolv Energy     =  -6.11 kcal/mol
DOCKED: USER        Electrostatic Energy            =  +0.00 kcal/mol
DOCKED: USER        Moving Ligand-Fixed Receptor    =  -6.11 kcal/mol
DOCKED: USER        Moving Ligand-Moving Receptor   =  +0.00 kcal/mol
DOCKED: USER    (2) Final Total Internal Energy     =  -1.26 kcal/mol
DOCKED: USER    (3) Torsional Free Energy           =  +1.49 kcal/mol
DOCKED: USER    (4) Unbound System's Energy         =  -1.26 kcal/mol
DOCKED: USER
DOCKED: USER
DOCKED: REMARK  5 active torsions:
DOCKED: REMARK  status: ('A' for Active; 'I' for Inactive)
DOCKED: REMARK    1  A    between atoms: C_2  and  C_19 
DOCKED: REMARK    2  A    between atoms: C_2  and  C_11 
DOCKED: REMARK    3  A    between atoms: C_19  and  C_20 
DOCKED: REMARK    4  A    between atoms: C_20  and  C_21 
DOCKED: REMARK    5  A    between atoms: C_21  and  N_22 
DOCKED: USER                              x       y       z     vdW  Elec       q    Type
DOCKED: USER                           _______ _______ _______ _____ _____    ______ ____
DOCKED: ROOT
DOCKED: ATOM      1  O   UNL     1     -56.229 -29.819   1.281 -0.12 -0.00    -0.346 OA 
DOCKED: ATOM      2  C   UNL     1     -54.900 -29.850   0.670 -0.20 +0.00    +0.130 C  
DOCKED: ATOM      3  C   UNL     1     -55.113 -29.235  -0.684 -0.26 +0.00    +0.004 A  
DOCKED: ATOM      4  C   UNL     1     -56.423 -28.792  -0.794 -0.11 +0.00    +0.006 A  
DOCKED: ATOM      5  C   UNL     1     -57.154 -29.065   0.463 -0.11 +0.00    +0.169 C  
DOCKED: ATOM      6  C   UNL     1     -54.215 -29.072  -1.729 -0.23 -0.00    -0.001 A  
DOCKED: ATOM      7  C   UNL     1     -56.881 -28.177  -1.947 -0.19 +0.00    +0.008 A  
DOCKED: ATOM      8  C   UNL     1     -54.663 -28.458  -2.900 -0.28 +0.00    +0.010 A  
DOCKED: ATOM      9  C   UNL     1     -55.989 -28.012  -3.008 -0.32 +0.00    +0.068 A  
DOCKED: ATOM     10  N   UNL     1     -56.786 -26.872  -5.194 -2.54 -0.00    -0.191 NA 
DOCKED: ATOM     11  C   UNL     1     -56.428 -27.384  -4.214 -0.32 +0.00    +0.101 C  
DOCKED: ENDROOT
DOCKED: BRANCH   2  12
DOCKED: ATOM     12  C   UNL     1     -53.948 -29.043   1.544 -0.15 +0.00    +0.038 C  
DOCKED: BRANCH  12  13
DOCKED: ATOM     13  C   UNL     1     -52.489 -29.345   1.206 -0.12 +0.00    +0.038 C  
DOCKED: BRANCH  13  14
DOCKED: ATOM     14  C   UNL     1     -51.739 -29.872   2.428 -0.04 +0.00    +0.251 C  
DOCKED: BRANCH  14  15
DOCKED: ATOM     15  N   UNL     1     -51.367 -31.268   2.232 -0.01 +0.00    +0.141 N  
DOCKED: ATOM     16  C   UNL     1     -50.784 -31.465   0.904 -0.00 +0.00    +0.285 C  
DOCKED: ATOM     17  C   UNL     1     -50.429 -31.702   3.268 -0.00 +0.00    +0.285 C  
DOCKED: ENDBRANCH  14  15
DOCKED: ENDBRANCH  13  14
DOCKED: ENDBRANCH  12  13
DOCKED: ENDBRANCH   2  12
DOCKED: BRANCH   2  18
DOCKED: ATOM     18  C   UNL     1     -54.484 -31.281   0.599 -0.15 +0.00    +0.006 A  
DOCKED: ATOM     19  C   UNL     1     -54.611 -32.099   1.721 -0.14 +0.00    +0.001 A  
DOCKED: ATOM     20  C   UNL     1     -54.222 -33.437   1.655 -0.19 +0.00    +0.029 A  
DOCKED: ATOM     21  C   UNL     1     -53.708 -33.956   0.467 -0.18 +0.00    +0.140 A  
DOCKED: ATOM     22  C   UNL     1     -53.582 -33.137  -0.655 -0.17 +0.00    +0.029 A  
DOCKED: ATOM     23  F   UNL     1     -53.336 -35.241   0.403 -0.10 -0.00    -0.204 F  
DOCKED: ATOM     24  C   UNL     1     -53.970 -31.798  -0.589 -0.17 +0.00    +0.001 A  
DOCKED: ENDBRANCH   2  18
DOCKED: TORSDOF 5
DOCKED: TER
DOCKED: ENDMDL
________________________________________________________________________________


    FINAL DOCKED STATE:
    ________________________


Run:   202 / 512
Time taken for this run:   0.002s

DOCKED: MODEL        202
DOCKED: USER    Run = 202
DOCKED: USER
DOCKED: USER    Estimated Free Energy of Binding    =  -4.83 kcal/mol  [=(1)+(2)+(3)-(4)]
DOCKED: USER
DOCKED: USER    (1) Final Intermolecular Energy     =  -6.32 kcal/mol
DOCKED: USER        vdW + Hbond + desolv Energy     =  -6.32 kcal/mol
DOCKED: USER        Electrostatic Energy            =  +0.00 kcal/mol
DOCKED: USER        Moving Ligand-Fixed Receptor    =  -6.32 kcal/mol
DOCKED: USER        Moving Ligand-Moving Receptor   =  +0.00 kcal/mol
DOCKED: USER    (2) Final Total Internal Energy     =  -1.12 kcal/mol
DOCKED: USER    (3) Torsional Free Energy           =  +1.49 kcal/mol
DOCKED: USER    (4) Unbound System's Energy         =  -1.12 kcal/mol
DOCKED: USER
DOCKED: USER
DOCKED: REMARK  5 active torsions:
DOCKED: REMARK  status: ('A' for Active; 'I' for Inactive)
DOCKED: REMARK    1  A    between atoms: C_2  and  C_19 
DOCKED: REMARK    2  A    between atoms: C_2  and  C_11 
DOCKED: REMARK    3  A    between atoms: C_19  and  C_20 
DOCKED: REMARK    4  A    between atoms: C_20  and  C_21 
DOCKED: REMARK    5  A    between atoms: C_21  and  N_22 
DOCKED: USER                              x       y       z     vdW  Elec       q    Type
DOCKED: USER                           _______ _______ _______ _____ _____    ______ ____
DOCKED: ROOT
DOCKED: ATOM      1  O   UNL     1     -60.852 -37.891   8.216 -0.01 -0.00    -0.346 OA 
DOCKED: ATOM      2  C   UNL     1     -59.749 -37.037   7.775 -0.13 +0.00    +0.130 C  
DOCKED: ATOM      3  C   UNL     1     -59.590 -37.377   6.321 -0.28 +0.00    +0.004 A  
DOCKED: ATOM      4  C   UNL     1     -60.586 -38.264   5.938 -0.30 +0.00    +0.006 A  
DOCKED: ATOM      5  C   UNL     1     -61.467 -38.559   7.090 -0.17 +0.00    +0.169 C  
DOCKED: ATOM      6  C   UNL     1     -58.648 -36.928   5.408 -0.31 -0.00    -0.001 A  
DOCKED: ATOM      7  C   UNL     1     -60.671 -38.734   4.639 -0.34 +0.00    +0.008 A  
DOCKED: ATOM      8  C   UNL     1     -58.717 -37.396   4.095 -0.18 +0.00    +0.010 A  
DOCKED: ATOM      9  C   UNL     1     -59.725 -38.294   3.712 -0.34 +0.00    +0.068 A  
DOCKED: ATOM     10  N   UNL     1     -59.829 -39.140   1.265 -2.82 -0.00    -0.191 NA 
DOCKED: ATOM     11  C   UNL     1     -59.782 -38.761   2.363 -0.28 +0.00    +0.101 C  
DOCKED: ENDROOT
DOCKED: BRANCH   2  12
DOCKED: ATOM     12  C   UNL     1     -60.142 -35.583   8.005 -0.14 +0.00    +0.038 C  
DOCKED: BRANCH  12  13
DOCKED: ATOM     13  C   UNL     1     -59.008 -34.632   7.627 -0.17 +0.00    +0.038 C  
DOCKED: BRANCH  13  14
DOCKED: ATOM     14  C   UNL     1     -58.376 -34.009   8.870 -0.03 +0.00    +0.251 C  
DOCKED: BRANCH  14  15
DOCKED: ATOM     15  N   UNL     1     -57.125 -33.344   8.524 -0.03 +0.00    +0.141 N  
DOCKED: ATOM     16  C   UNL     1     -56.785 -32.331   9.524 -0.00 +0.00    +0.285 C  
DOCKED: ATOM     17  C   UNL     1     -56.040 -34.319   8.399 -0.05 +0.00    +0.285 C  
DOCKED: ENDBRANCH  14  15
DOCKED: ENDBRANCH  13  14
DOCKED: ENDBRANCH  12  13
DOCKED: ENDBRANCH   2  12
DOCKED: BRANCH   2  18
DOCKED: ATOM     18  C   UNL     1     -58.556 -37.408   8.592 -0.13 +0.00    +0.006 A  
DOCKED: ATOM     19  C   UNL     1     -57.325 -37.618   7.972 -0.24 +0.00    +0.001 A  
DOCKED: ATOM     20  C   UNL     1     -56.211 -37.965   8.737 -0.12 +0.00    +0.029 A  
DOCKED: ATOM     21  C   UNL     1     -56.329 -38.100  10.120 -0.05 +0.00    +0.140 A  
DOCKED: ATOM     22  C   UNL     1     -57.561 -37.890  10.739 -0.11 +0.00    +0.029 A  
DOCKED: ATOM     23  F   UNL     1     -55.259 -38.431  10.854 +0.00 -0.00    -0.204 F  
DOCKED: ATOM     24  C   UNL     1     -58.676 -37.543   9.974 -0.09 +0.00    +0.001 A  
DOCKED: ENDBRANCH   2  18
DOCKED: TORSDOF 5
DOCKED: TER
DOCKED: ENDMDL
________________________________________________________________________________


    FINAL DOCKED STATE:
    ________________________


Run:   203 / 512
Time taken for this run:   0.002s

DOCKED: MODEL        203
DOCKED: USER    Run = 203
DOCKED: USER
DOCKED: USER    Estimated Free Energy of Binding    =  -5.12 kcal/mol  [=(1)+(2)+(3)-(4)]
DOCKED: USER
DOCKED: USER    (1) Final Intermolecular Energy     =  -6.61 kcal/mol
DOCKED: USER        vdW + Hbond + desolv Energy     =  -6.61 kcal/mol
DOCKED: USER        Electrostatic Energy            =  +0.00 kcal/mol
DOCKED: USER        Moving Ligand-Fixed Receptor    =  -6.61 kcal/mol
DOCKED: USER        Moving Ligand-Moving Receptor   =  +0.00 kcal/mol
DOCKED: USER    (2) Final Total Internal Energy     =  -0.99 kcal/mol
DOCKED: USER    (3) Torsional Free Energy           =  +1.49 kcal/mol
DOCKED: USER    (4) Unbound System's Energy         =  -0.99 kcal/mol
DOCKED: USER
DOCKED: USER
DOCKED: REMARK  5 active torsions:
DOCKED: REMARK  status: ('A' for Active; 'I' for Inactive)
DOCKED: REMARK    1  A    between atoms: C_2  and  C_19 
DOCKED: REMARK    2  A    between atoms: C_2  and  C_11 
DOCKED: REMARK    3  A    between atoms: C_19  and  C_20 
DOCKED: REMARK    4  A    between atoms: C_20  and  C_21 
DOCKED: REMARK    5  A    between atoms: C_21  and  N_22 
DOCKED: USER                              x       y       z     vdW  Elec       q    Type
DOCKED: USER                           _______ _______ _______ _____ _____    ______ ____
DOCKED: ROOT
DOCKED: ATOM      1  O   UNL     1     -53.357 -29.558   0.428 -0.05 -0.00    -0.346 OA 
DOCKED: ATOM      2  C   UNL     1     -54.788 -29.790   0.626 -0.19 +0.00    +0.130 C  
DOCKED: ATOM      3  C   UNL     1     -55.424 -29.153  -0.576 -0.26 +0.00    +0.004 A  
DOCKED: ATOM      4  C   UNL     1     -54.439 -28.696  -1.439 -0.21 +0.00    +0.006 A  
DOCKED: ATOM      5  C   UNL     1     -53.102 -29.005  -0.884 -0.12 +0.00    +0.169 C  
DOCKED: ATOM      6  C   UNL     1     -56.768 -29.001  -0.886 +0.04 -0.00    -0.001 A  
DOCKED: ATOM      7  C   UNL     1     -54.759 -28.072  -2.632 -0.30 +0.00    +0.008 A  
DOCKED: ATOM      8  C   UNL     1     -57.107 -28.369  -2.083 -0.30 +0.00    +0.010 A  
DOCKED: ATOM      9  C   UNL     1     -56.107 -27.907  -2.952 -0.35 +0.00    +0.068 A  
DOCKED: ATOM     10  N   UNL     1     -56.771 -26.743  -5.170 -2.46 -0.00    -0.191 NA 
DOCKED: ATOM     11  C   UNL     1     -56.473 -27.265  -4.175 -0.37 +0.00    +0.101 C  
DOCKED: ENDROOT
DOCKED: BRANCH   2  12
DOCKED: ATOM     12  C   UNL     1     -55.029 -31.293   0.699 -0.21 +0.00    +0.038 C  
DOCKED: BRANCH  12  13
DOCKED: ATOM     13  C   UNL     1     -54.371 -32.019  -0.473 -0.20 +0.00    +0.038 C  
DOCKED: BRANCH  13  14
DOCKED: ATOM     14  C   UNL     1     -52.952 -32.460  -0.120 -0.07 +0.00    +0.251 C  
DOCKED: BRANCH  14  15
DOCKED: ATOM     15  N   UNL     1     -52.863 -33.915  -0.101 -0.15 +0.00    +0.141 N  
DOCKED: ATOM     16  C   UNL     1     -54.070 -34.499   0.486 -0.17 +0.00    +0.285 C  
DOCKED: ATOM     17  C   UNL     1     -52.653 -34.437  -1.452 -0.14 +0.00    +0.285 C  
DOCKED: ENDBRANCH  14  15
DOCKED: ENDBRANCH  13  14
DOCKED: ENDBRANCH  12  13
DOCKED: ENDBRANCH   2  12
DOCKED: BRANCH   2  18
DOCKED: ATOM     18  C   UNL     1     -55.165 -29.121   1.906 -0.21 +0.00    +0.006 A  
DOCKED: ATOM     19  C   UNL     1     -56.509 -28.906   2.210 -0.27 +0.00    +0.001 A  
DOCKED: ATOM     20  C   UNL     1     -56.860 -28.281   3.407 -0.22 +0.00    +0.029 A  
DOCKED: ATOM     21  C   UNL     1     -55.869 -27.873   4.298 -0.15 +0.00    +0.140 A  
DOCKED: ATOM     22  C   UNL     1     -54.525 -28.089   3.993 -0.11 +0.00    +0.029 A  
DOCKED: ATOM     23  F   UNL     1     -56.206 -27.275   5.447 -0.03 -0.00    -0.204 F  
DOCKED: ATOM     24  C   UNL     1     -54.172 -28.714   2.796 -0.13 +0.00    +0.001 A  
DOCKED: ENDBRANCH   2  18
DOCKED: TORSDOF 5
DOCKED: TER
DOCKED: ENDMDL
________________________________________________________________________________


    FINAL DOCKED STATE:
    ________________________


Run:   204 / 512
Time taken for this run:   0.002s

DOCKED: MODEL        204
DOCKED: USER    Run = 204
DOCKED: USER
DOCKED: USER    Estimated Free Energy of Binding    =  -4.06 kcal/mol  [=(1)+(2)+(3)-(4)]
DOCKED: USER
DOCKED: USER    (1) Final Intermolecular Energy     =  -5.55 kcal/mol
DOCKED: USER        vdW + Hbond + desolv Energy     =  -5.55 kcal/mol
DOCKED: USER        Electrostatic Energy            =  +0.00 kcal/mol
DOCKED: USER        Moving Ligand-Fixed Receptor    =  -5.55 kcal/mol
DOCKED: USER        Moving Ligand-Moving Receptor   =  +0.00 kcal/mol
DOCKED: USER    (2) Final Total Internal Energy     =  -1.09 kcal/mol
DOCKED: USER    (3) Torsional Free Energy           =  +1.49 kcal/mol
DOCKED: USER    (4) Unbound System's Energy         =  -1.09 kcal/mol
DOCKED: USER
DOCKED: USER
DOCKED: REMARK  5 active torsions:
DOCKED: REMARK  status: ('A' for Active; 'I' for Inactive)
DOCKED: REMARK    1  A    between atoms: C_2  and  C_19 
DOCKED: REMARK    2  A    between atoms: C_2  and  C_11 
DOCKED: REMARK    3  A    between atoms: C_19  and  C_20 
DOCKED: REMARK    4  A    between atoms: C_20  and  C_21 
DOCKED: REMARK    5  A    between atoms: C_21  and  N_22 
DOCKED: USER                              x       y       z     vdW  Elec       q    Type
DOCKED: USER                           _______ _______ _______ _____ _____    ______ ____
DOCKED: ROOT
DOCKED: ATOM      1  O   UNL     1     -49.141 -35.675   0.322 +0.01 -0.00    -0.346 OA 
DOCKED: ATOM      2  C   UNL     1     -50.580 -35.408   0.313 -0.06 +0.00    +0.130 C  
DOCKED: ATOM      3  C   UNL     1     -51.158 -36.526   1.131 -0.13 +0.00    +0.004 A  
DOCKED: ATOM      4  C   UNL     1     -50.133 -37.301   1.654 -0.08 +0.00    +0.006 A  
DOCKED: ATOM      5  C   UNL     1     -48.824 -36.750   1.236 -0.02 +0.00    +0.169 C  
DOCKED: ATOM      6  C   UNL     1     -52.485 -36.827   1.399 -0.28 -0.00    -0.001 A  
DOCKED: ATOM      7  C   UNL     1     -50.396 -38.398   2.456 -0.16 +0.00    +0.008 A  
DOCKED: ATOM      8  C   UNL     1     -52.767 -37.934   2.202 -0.30 +0.00    +0.010 A  
DOCKED: ATOM      9  C   UNL     1     -51.727 -38.715   2.728 -0.30 +0.00    +0.068 A  
DOCKED: ATOM     10  N   UNL     1     -52.285 -40.759   4.219 -2.68 -0.00    -0.191 NA 
DOCKED: ATOM     11  C   UNL     1     -52.035 -39.843   3.550 -0.32 +0.00    +0.101 C  
DOCKED: ENDROOT
DOCKED: BRANCH   2  12
DOCKED: ATOM     12  C   UNL     1     -50.821 -34.035   0.930 -0.04 +0.00    +0.038 C  
DOCKED: BRANCH  12  13
DOCKED: ATOM     13  C   UNL     1     -50.924 -34.119   2.451 -0.05 +0.00    +0.038 C  
DOCKED: BRANCH  13  14
DOCKED: ATOM     14  C   UNL     1     -50.784 -32.738   3.088 -0.01 +0.00    +0.251 C  
DOCKED: BRANCH  14  15
DOCKED: ATOM     15  N   UNL     1     -51.981 -32.409   3.854 -0.02 +0.00    +0.141 N  
DOCKED: ATOM     16  C   UNL     1     -52.724 -31.326   3.208 -0.02 +0.00    +0.285 C  
DOCKED: ATOM     17  C   UNL     1     -52.835 -33.588   4.008 -0.07 +0.00    +0.285 C  
DOCKED: ENDBRANCH  14  15
DOCKED: ENDBRANCH  13  14
DOCKED: ENDBRANCH  12  13
DOCKED: ENDBRANCH   2  12
DOCKED: BRANCH   2  18
DOCKED: ATOM     18  C   UNL     1     -51.020 -35.442  -1.113 -0.12 +0.00    +0.006 A  
DOCKED: ATOM     19  C   UNL     1     -51.976 -34.535  -1.569 -0.16 +0.00    +0.001 A  
DOCKED: ATOM     20  C   UNL     1     -52.387 -34.568  -2.902 -0.21 +0.00    +0.029 A  
DOCKED: ATOM     21  C   UNL     1     -51.843 -35.507  -3.776 -0.18 +0.00    +0.140 A  
DOCKED: ATOM     22  C   UNL     1     -50.887 -36.414  -3.320 -0.14 +0.00    +0.029 A  
DOCKED: ATOM     23  F   UNL     1     -52.236 -35.538  -5.056 -0.09 -0.00    -0.204 F  
DOCKED: ATOM     24  C   UNL     1     -50.475 -36.382  -1.986 -0.12 +0.00    +0.001 A  
DOCKED: ENDBRANCH   2  18
DOCKED: TORSDOF 5
DOCKED: TER
DOCKED: ENDMDL
________________________________________________________________________________


    FINAL DOCKED STATE:
    ________________________


Run:   205 / 512
Time taken for this run:   0.002s

DOCKED: MODEL        205
DOCKED: USER    Run = 205
DOCKED: USER
DOCKED: USER    Estimated Free Energy of Binding    =  -4.04 kcal/mol  [=(1)+(2)+(3)-(4)]
DOCKED: USER
DOCKED: USER    (1) Final Intermolecular Energy     =  -5.54 kcal/mol
DOCKED: USER        vdW + Hbond + desolv Energy     =  -5.54 kcal/mol
DOCKED: USER        Electrostatic Energy            =  +0.00 kcal/mol
DOCKED: USER        Moving Ligand-Fixed Receptor    =  -5.54 kcal/mol
DOCKED: USER        Moving Ligand-Moving Receptor   =  +0.00 kcal/mol
DOCKED: USER    (2) Final Total Internal Energy     =  -1.36 kcal/mol
DOCKED: USER    (3) Torsional Free Energy           =  +1.49 kcal/mol
DOCKED: USER    (4) Unbound System's Energy         =  -1.36 kcal/mol
DOCKED: USER
DOCKED: USER
DOCKED: REMARK  5 active torsions:
DOCKED: REMARK  status: ('A' for Active; 'I' for Inactive)
DOCKED: REMARK    1  A    between atoms: C_2  and  C_19 
DOCKED: REMARK    2  A    between atoms: C_2  and  C_11 
DOCKED: REMARK    3  A    between atoms: C_19  and  C_20 
DOCKED: REMARK    4  A    between atoms: C_20  and  C_21 
DOCKED: REMARK    5  A    between atoms: C_21  and  N_22 
DOCKED: USER                              x       y       z     vdW  Elec       q    Type
DOCKED: USER                           _______ _______ _______ _____ _____    ______ ____
DOCKED: ROOT
DOCKED: ATOM      1  O   UNL     1     -62.482 -36.667   8.309 -0.01 -0.00    -0.346 OA 
DOCKED: ATOM      2  C   UNL     1     -61.131 -37.121   8.643 -0.08 +0.00    +0.130 C  
DOCKED: ATOM      3  C   UNL     1     -60.602 -37.658   7.344 -0.19 +0.00    +0.004 A  
DOCKED: ATOM      4  C   UNL     1     -61.525 -37.431   6.334 -0.26 +0.00    +0.006 A  
DOCKED: ATOM      5  C   UNL     1     -62.706 -36.726   6.882 -0.22 +0.00    +0.169 C  
DOCKED: ATOM      6  C   UNL     1     -59.395 -38.288   7.077 -0.24 -0.00    -0.001 A  
DOCKED: ATOM      7  C   UNL     1     -61.278 -37.825   5.030 -0.18 +0.00    +0.008 A  
DOCKED: ATOM      8  C   UNL     1     -59.133 -38.696   5.767 -0.38 +0.00    +0.010 A  
DOCKED: ATOM      9  C   UNL     1     -60.070 -38.465   4.749 -0.33 +0.00    +0.068 A  
DOCKED: ATOM     10  N   UNL     1     -59.551 -39.230   2.329 -1.95 -0.00    -0.191 NA 
DOCKED: ATOM     11  C   UNL     1     -59.784 -38.887   3.415 -0.41 +0.00    +0.101 C  
DOCKED: ENDROOT
DOCKED: BRANCH   2  12
DOCKED: ATOM     12  C   UNL     1     -60.335 -35.929   9.160 -0.07 +0.00    +0.038 C  
DOCKED: BRANCH  12  13
DOCKED: ATOM     13  C   UNL     1     -61.171 -34.651   9.143 -0.06 +0.00    +0.038 C  
DOCKED: BRANCH  13  14
DOCKED: ATOM     14  C   UNL     1     -60.429 -33.518   8.437 -0.05 +0.00    +0.251 C  
DOCKED: BRANCH  14  15
DOCKED: ATOM     15  N   UNL     1     -60.173 -33.869   7.045 -0.19 +0.00    +0.141 N  
DOCKED: ATOM     16  C   UNL     1     -60.845 -32.931   6.145 -0.00 +0.00    +0.285 C  
DOCKED: ATOM     17  C   UNL     1     -58.735 -33.890   6.775 -0.14 +0.00    +0.285 C  
DOCKED: ENDBRANCH  14  15
DOCKED: ENDBRANCH  13  14
DOCKED: ENDBRANCH  12  13
DOCKED: ENDBRANCH   2  12
DOCKED: BRANCH   2  18
DOCKED: ATOM     18  C   UNL     1     -61.271 -38.172   9.693 -0.10 +0.00    +0.006 A  
DOCKED: ATOM     19  C   UNL     1     -60.838 -37.919  10.994 -0.07 +0.00    +0.001 A  
DOCKED: ATOM     20  C   UNL     1     -60.969 -38.903  11.975 -0.11 +0.00    +0.029 A  
DOCKED: ATOM     21  C   UNL     1     -61.532 -40.137  11.654 -0.12 +0.00    +0.140 A  
DOCKED: ATOM     22  C   UNL     1     -61.965 -40.390  10.352 -0.12 +0.00    +0.029 A  
DOCKED: ATOM     23  F   UNL     1     -61.659 -41.080  12.596 -0.07 -0.00    -0.204 F  
DOCKED: ATOM     24  C   UNL     1     -61.834 -39.406   9.370 -0.18 +0.00    +0.001 A  
DOCKED: ENDBRANCH   2  18
DOCKED: TORSDOF 5
DOCKED: TER
DOCKED: ENDMDL
________________________________________________________________________________


    FINAL DOCKED STATE:
    ________________________


Run:   206 / 512
Time taken for this run:   0.002s

DOCKED: MODEL        206
DOCKED: USER    Run = 206
DOCKED: USER
DOCKED: USER    Estimated Free Energy of Binding    =  -4.02 kcal/mol  [=(1)+(2)+(3)-(4)]
DOCKED: USER
DOCKED: USER    (1) Final Intermolecular Energy     =  -5.51 kcal/mol
DOCKED: USER        vdW + Hbond + desolv Energy     =  -5.51 kcal/mol
DOCKED: USER        Electrostatic Energy            =  +0.00 kcal/mol
DOCKED: USER        Moving Ligand-Fixed Receptor    =  -5.51 kcal/mol
DOCKED: USER        Moving Ligand-Moving Receptor   =  +0.00 kcal/mol
DOCKED: USER    (2) Final Total Internal Energy     =  -1.21 kcal/mol
DOCKED: USER    (3) Torsional Free Energy           =  +1.49 kcal/mol
DOCKED: USER    (4) Unbound System's Energy         =  -1.21 kcal/mol
DOCKED: USER
DOCKED: USER
DOCKED: REMARK  5 active torsions:
DOCKED: REMARK  status: ('A' for Active; 'I' for Inactive)
DOCKED: REMARK    1  A    between atoms: C_2  and  C_19 
DOCKED: REMARK    2  A    between atoms: C_2  and  C_11 
DOCKED: REMARK    3  A    between atoms: C_19  and  C_20 
DOCKED: REMARK    4  A    between atoms: C_20  and  C_21 
DOCKED: REMARK    5  A    between atoms: C_21  and  N_22 
DOCKED: USER                              x       y       z     vdW  Elec       q    Type
DOCKED: USER                           _______ _______ _______ _____ _____    ______ ____
DOCKED: ROOT
DOCKED: ATOM      1  O   UNL     1     -51.683 -28.279  -0.331 -0.05 -0.00    -0.346 OA 
DOCKED: ATOM      2  C   UNL     1     -52.681 -29.287   0.028 -0.11 +0.00    +0.130 C  
DOCKED: ATOM      3  C   UNL     1     -53.837 -28.988  -0.883 -0.17 +0.00    +0.004 A  
DOCKED: ATOM      4  C   UNL     1     -53.489 -27.972  -1.761 -0.17 +0.00    +0.006 A  
DOCKED: ATOM      5  C   UNL     1     -52.096 -27.542  -1.506 -0.11 +0.00    +0.169 C  
DOCKED: ATOM      6  C   UNL     1     -55.092 -29.577  -0.937 -0.28 -0.00    -0.001 A  
DOCKED: ATOM      7  C   UNL     1     -54.378 -27.508  -2.715 -0.28 +0.00    +0.008 A  
DOCKED: ATOM      8  C   UNL     1     -56.002 -29.117  -1.891 -0.12 +0.00    +0.010 A  
DOCKED: ATOM      9  C   UNL     1     -55.646 -28.088  -2.776 -0.32 +0.00    +0.068 A  
DOCKED: ATOM     10  N   UNL     1     -57.357 -27.262  -4.537 -2.27 -0.00    -0.191 NA 
DOCKED: ATOM     11  C   UNL     1     -56.590 -27.632  -3.747 -0.35 +0.00    +0.101 C  
DOCKED: ENDROOT
DOCKED: BRANCH   2  12
DOCKED: ATOM     12  C   UNL     1     -52.081 -30.667  -0.209 -0.04 +0.00    +0.038 C  
DOCKED: BRANCH  12  13
DOCKED: ATOM     13  C   UNL     1     -52.441 -31.632   0.919 -0.04 +0.00    +0.038 C  
DOCKED: BRANCH  13  14
DOCKED: ATOM     14  C   UNL     1     -53.709 -32.417   0.587 -0.09 +0.00    +0.251 C  
DOCKED: BRANCH  14  15
DOCKED: ATOM     15  N   UNL     1     -54.697 -32.255   1.647 -0.12 +0.00    +0.141 N  
DOCKED: ATOM     16  C   UNL     1     -56.029 -32.036   1.080 -0.15 +0.00    +0.285 C  
DOCKED: ATOM     17  C   UNL     1     -54.706 -33.425   2.527 -0.10 +0.00    +0.285 C  
DOCKED: ENDBRANCH  14  15
DOCKED: ENDBRANCH  13  14
DOCKED: ENDBRANCH  12  13
DOCKED: ENDBRANCH   2  12
DOCKED: BRANCH   2  18
DOCKED: ATOM     18  C   UNL     1     -53.009 -29.082   1.469 -0.14 +0.00    +0.006 A  
DOCKED: ATOM     19  C   UNL     1     -51.984 -28.905   2.398 -0.10 +0.00    +0.001 A  
DOCKED: ATOM     20  C   UNL     1     -52.291 -28.714   3.746 -0.08 +0.00    +0.029 A  
DOCKED: ATOM     21  C   UNL     1     -53.622 -28.699   4.162 -0.09 +0.00    +0.140 A  
DOCKED: ATOM     22  C   UNL     1     -54.646 -28.876   3.233 -0.16 +0.00    +0.029 A  
DOCKED: ATOM     23  F   UNL     1     -53.917 -28.514   5.455 -0.02 -0.00    -0.204 F  
DOCKED: ATOM     24  C   UNL     1     -54.340 -29.068   1.884 -0.16 +0.00    +0.001 A  
DOCKED: ENDBRANCH   2  18
DOCKED: TORSDOF 5
DOCKED: TER
DOCKED: ENDMDL
________________________________________________________________________________


    FINAL DOCKED STATE:
    ________________________


Run:   207 / 512
Time taken for this run:   0.002s

DOCKED: MODEL        207
DOCKED: USER    Run = 207
DOCKED: USER
DOCKED: USER    Estimated Free Energy of Binding    =  -4.55 kcal/mol  [=(1)+(2)+(3)-(4)]
DOCKED: USER
DOCKED: USER    (1) Final Intermolecular Energy     =  -6.04 kcal/mol
DOCKED: USER        vdW + Hbond + desolv Energy     =  -6.04 kcal/mol
DOCKED: USER        Electrostatic Energy            =  +0.00 kcal/mol
DOCKED: USER        Moving Ligand-Fixed Receptor    =  -6.04 kcal/mol
DOCKED: USER        Moving Ligand-Moving Receptor   =  +0.00 kcal/mol
DOCKED: USER    (2) Final Total Internal Energy     =  -1.06 kcal/mol
DOCKED: USER    (3) Torsional Free Energy           =  +1.49 kcal/mol
DOCKED: USER    (4) Unbound System's Energy         =  -1.06 kcal/mol
DOCKED: USER
DOCKED: USER
DOCKED: REMARK  5 active torsions:
DOCKED: REMARK  status: ('A' for Active; 'I' for Inactive)
DOCKED: REMARK    1  A    between atoms: C_2  and  C_19 
DOCKED: REMARK    2  A    between atoms: C_2  and  C_11 
DOCKED: REMARK    3  A    between atoms: C_19  and  C_20 
DOCKED: REMARK    4  A    between atoms: C_20  and  C_21 
DOCKED: REMARK    5  A    between atoms: C_21  and  N_22 
DOCKED: USER                              x       y       z     vdW  Elec       q    Type
DOCKED: USER                           _______ _______ _______ _____ _____    ______ ____
DOCKED: ROOT
DOCKED: ATOM      1  O   UNL     1     -57.482 -33.706   6.992 -0.07 -0.00    -0.346 OA 
DOCKED: ATOM      2  C   UNL     1     -58.821 -33.925   7.541 -0.14 +0.00    +0.130 C  
DOCKED: ATOM      3  C   UNL     1     -59.152 -35.331   7.133 -0.21 +0.00    +0.004 A  
DOCKED: ATOM      4  C   UNL     1     -58.057 -35.904   6.502 -0.28 +0.00    +0.006 A  
DOCKED: ATOM      5  C   UNL     1     -56.938 -34.937   6.461 -0.19 +0.00    +0.169 C  
DOCKED: ATOM      6  C   UNL     1     -60.325 -36.049   7.315 -0.19 -0.00    -0.001 A  
DOCKED: ATOM      7  C   UNL     1     -58.097 -37.206   6.031 -0.34 +0.00    +0.008 A  
DOCKED: ATOM      8  C   UNL     1     -60.382 -37.361   6.842 -0.22 +0.00    +0.010 A  
DOCKED: ATOM      9  C   UNL     1     -59.273 -37.936   6.204 -0.26 +0.00    +0.068 A  
DOCKED: ATOM     10  N   UNL     1     -59.411 -40.375   5.341 -2.61 -0.00    -0.191 NA 
DOCKED: ATOM     11  C   UNL     1     -59.350 -39.281   5.727 -0.36 +0.00    +0.101 C  
DOCKED: ENDROOT
DOCKED: BRANCH   2  12
DOCKED: ATOM     12  C   UNL     1     -58.757 -33.745   9.053 -0.05 +0.00    +0.038 C  
DOCKED: BRANCH  12  13
DOCKED: ATOM     13  C   UNL     1     -57.888 -34.819   9.706 -0.04 +0.00    +0.038 C  
DOCKED: BRANCH  13  14
DOCKED: ATOM     14  C   UNL     1     -58.737 -35.787  10.527 -0.01 +0.00    +0.251 C  
DOCKED: BRANCH  14  15
DOCKED: ATOM     15  N   UNL     1     -58.885 -35.298  11.893 -0.00 +0.00    +0.141 N  
DOCKED: ATOM     16  C   UNL     1     -57.736 -34.474  12.274 -0.00 +0.00    +0.285 C  
DOCKED: ATOM     17  C   UNL     1     -60.126 -34.536  12.036 -0.00 +0.00    +0.285 C  
DOCKED: ENDBRANCH  14  15
DOCKED: ENDBRANCH  13  14
DOCKED: ENDBRANCH  12  13
DOCKED: ENDBRANCH   2  12
DOCKED: BRANCH   2  18
DOCKED: ATOM     18  C   UNL     1     -59.720 -32.911   6.916 -0.20 +0.00    +0.006 A  
DOCKED: ATOM     19  C   UNL     1     -61.101 -33.011   7.075 -0.21 +0.00    +0.001 A  
DOCKED: ATOM     20  C   UNL     1     -61.940 -32.063   6.490 -0.19 +0.00    +0.029 A  
DOCKED: ATOM     21  C   UNL     1     -61.398 -31.015   5.747 -0.11 +0.00    +0.140 A  
DOCKED: ATOM     22  C   UNL     1     -60.016 -30.915   5.588 -0.15 +0.00    +0.029 A  
DOCKED: ATOM     23  F   UNL     1     -62.204 -30.104   5.187 -0.03 -0.00    -0.204 F  
DOCKED: ATOM     24  C   UNL     1     -59.175 -31.864   6.173 -0.18 +0.00    +0.001 A  
DOCKED: ENDBRANCH   2  18
DOCKED: TORSDOF 5
DOCKED: TER
DOCKED: ENDMDL
________________________________________________________________________________


    FINAL DOCKED STATE:
    ________________________


Run:   208 / 512
Time taken for this run:   0.002s

DOCKED: MODEL        208
DOCKED: USER    Run = 208
DOCKED: USER
DOCKED: USER    Estimated Free Energy of Binding    =  -5.30 kcal/mol  [=(1)+(2)+(3)-(4)]
DOCKED: USER
DOCKED: USER    (1) Final Intermolecular Energy     =  -6.79 kcal/mol
DOCKED: USER        vdW + Hbond + desolv Energy     =  -6.79 kcal/mol
DOCKED: USER        Electrostatic Energy            =  +0.00 kcal/mol
DOCKED: USER        Moving Ligand-Fixed Receptor    =  -6.79 kcal/mol
DOCKED: USER        Moving Ligand-Moving Receptor   =  +0.00 kcal/mol
DOCKED: USER    (2) Final Total Internal Energy     =  -1.30 kcal/mol
DOCKED: USER    (3) Torsional Free Energy           =  +1.49 kcal/mol
DOCKED: USER    (4) Unbound System's Energy         =  -1.30 kcal/mol
DOCKED: USER
DOCKED: USER
DOCKED: REMARK  5 active torsions:
DOCKED: REMARK  status: ('A' for Active; 'I' for Inactive)
DOCKED: REMARK    1  A    between atoms: C_2  and  C_19 
DOCKED: REMARK    2  A    between atoms: C_2  and  C_11 
DOCKED: REMARK    3  A    between atoms: C_19  and  C_20 
DOCKED: REMARK    4  A    between atoms: C_20  and  C_21 
DOCKED: REMARK    5  A    between atoms: C_21  and  N_22 
DOCKED: USER                              x       y       z     vdW  Elec       q    Type
DOCKED: USER                           _______ _______ _______ _____ _____    ______ ____
DOCKED: ROOT
DOCKED: ATOM      1  O   UNL     1     -57.491 -36.401   7.515 -0.08 -0.00    -0.346 OA 
DOCKED: ATOM      2  C   UNL     1     -58.144 -37.681   7.789 -0.19 +0.00    +0.130 C  
DOCKED: ATOM      3  C   UNL     1     -58.674 -38.108   6.450 -0.33 +0.00    +0.004 A  
DOCKED: ATOM      4  C   UNL     1     -58.265 -37.208   5.477 -0.34 +0.00    +0.006 A  
DOCKED: ATOM      5  C   UNL     1     -57.438 -36.145   6.092 -0.10 +0.00    +0.169 C  
DOCKED: ATOM      6  C   UNL     1     -59.446 -39.212   6.119 -0.32 -0.00    -0.001 A  
DOCKED: ATOM      7  C   UNL     1     -58.615 -37.375   4.148 -0.12 +0.00    +0.008 A  
DOCKED: ATOM      8  C   UNL     1     -59.811 -39.392   4.784 -0.44 +0.00    +0.010 A  
DOCKED: ATOM      9  C   UNL     1     -59.397 -38.478   3.803 -0.43 +0.00    +0.068 A  
DOCKED: ATOM     10  N   UNL     1     -60.087 -38.845   1.333 -3.21 -0.00    -0.191 NA 
DOCKED: ATOM     11  C   UNL     1     -59.778 -38.680   2.441 -0.28 +0.00    +0.101 C  
DOCKED: ENDROOT
DOCKED: BRANCH   2  12
DOCKED: ATOM     12  C   UNL     1     -57.104 -38.643   8.349 -0.26 +0.00    +0.038 C  
DOCKED: BRANCH  12  13
DOCKED: ATOM     13  C   UNL     1     -55.971 -37.893   9.048 -0.08 +0.00    +0.038 C  
DOCKED: BRANCH  13  14
DOCKED: ATOM     14  C   UNL     1     -56.467 -37.210  10.321 -0.06 +0.00    +0.251 C  
DOCKED: BRANCH  14  15
DOCKED: ATOM     15  N   UNL     1     -55.846 -35.899  10.468 -0.03 +0.00    +0.141 N  
DOCKED: ATOM     16  C   UNL     1     -54.812 -35.931  11.503 -0.01 +0.00    +0.285 C  
DOCKED: ATOM     17  C   UNL     1     -55.276 -35.453   9.195 -0.05 +0.00    +0.285 C  
DOCKED: ENDBRANCH  14  15
DOCKED: ENDBRANCH  13  14
DOCKED: ENDBRANCH  12  13
DOCKED: ENDBRANCH   2  12
DOCKED: BRANCH   2  18
DOCKED: ATOM     18  C   UNL     1     -59.224 -37.416   8.784 -0.11 +0.00    +0.006 A  
DOCKED: ATOM     19  C   UNL     1     -60.024 -36.281   8.659 -0.08 +0.00    +0.001 A  
DOCKED: ATOM     20  C   UNL     1     -61.033 -36.034   9.590 -0.04 +0.00    +0.029 A  
DOCKED: ATOM     21  C   UNL     1     -61.241 -36.922  10.644 -0.01 +0.00    +0.140 A  
DOCKED: ATOM     22  C   UNL     1     -60.441 -38.058  10.769 -0.08 +0.00    +0.029 A  
DOCKED: ATOM     23  F   UNL     1     -62.211 -36.686  11.537 +0.01 -0.00    -0.204 F  
DOCKED: ATOM     24  C   UNL     1     -59.431 -38.305   9.838 -0.13 +0.00    +0.001 A  
DOCKED: ENDBRANCH   2  18
DOCKED: TORSDOF 5
DOCKED: TER
DOCKED: ENDMDL
________________________________________________________________________________


    FINAL DOCKED STATE:
    ________________________


Run:   209 / 512
Time taken for this run:   0.002s

DOCKED: MODEL        209
DOCKED: USER    Run = 209
DOCKED: USER
DOCKED: USER    Estimated Free Energy of Binding    =  -4.51 kcal/mol  [=(1)+(2)+(3)-(4)]
DOCKED: USER
DOCKED: USER    (1) Final Intermolecular Energy     =  -6.00 kcal/mol
DOCKED: USER        vdW + Hbond + desolv Energy     =  -6.00 kcal/mol
DOCKED: USER        Electrostatic Energy            =  +0.00 kcal/mol
DOCKED: USER        Moving Ligand-Fixed Receptor    =  -6.00 kcal/mol
DOCKED: USER        Moving Ligand-Moving Receptor   =  +0.00 kcal/mol
DOCKED: USER    (2) Final Total Internal Energy     =  -1.49 kcal/mol
DOCKED: USER    (3) Torsional Free Energy           =  +1.49 kcal/mol
DOCKED: USER    (4) Unbound System's Energy         =  -1.49 kcal/mol
DOCKED: USER
DOCKED: USER
DOCKED: REMARK  5 active torsions:
DOCKED: REMARK  status: ('A' for Active; 'I' for Inactive)
DOCKED: REMARK    1  A    between atoms: C_2  and  C_19 
DOCKED: REMARK    2  A    between atoms: C_2  and  C_11 
DOCKED: REMARK    3  A    between atoms: C_19  and  C_20 
DOCKED: REMARK    4  A    between atoms: C_20  and  C_21 
DOCKED: REMARK    5  A    between atoms: C_21  and  N_22 
DOCKED: USER                              x       y       z     vdW  Elec       q    Type
DOCKED: USER                           _______ _______ _______ _____ _____    ______ ____
DOCKED: ROOT
DOCKED: ATOM      1  O   UNL     1     -55.027 -30.299   0.735 -0.07 -0.00    -0.346 OA 
DOCKED: ATOM      2  C   UNL     1     -53.790 -30.031   0.001 -0.13 +0.00    +0.130 C  
DOCKED: ATOM      3  C   UNL     1     -54.252 -29.294  -1.224 -0.22 +0.00    +0.004 A  
DOCKED: ATOM      4  C   UNL     1     -55.618 -29.064  -1.143 -0.29 +0.00    +0.006 A  
DOCKED: ATOM      5  C   UNL     1     -56.146 -29.613   0.126 -0.27 +0.00    +0.169 C  
DOCKED: ATOM      6  C   UNL     1     -53.519 -28.853  -2.316 -0.18 -0.00    -0.001 A  
DOCKED: ATOM      7  C   UNL     1     -56.296 -28.393  -2.147 -0.37 +0.00    +0.008 A  
DOCKED: ATOM      8  C   UNL     1     -54.189 -28.179  -3.338 -0.25 +0.00    +0.010 A  
DOCKED: ATOM      9  C   UNL     1     -55.571 -27.950  -3.253 -0.30 +0.00    +0.068 A  
DOCKED: ATOM     10  N   UNL     1     -56.783 -26.691  -5.166 -2.45 -0.00    -0.191 NA 
DOCKED: ATOM     11  C   UNL     1     -56.239 -27.256  -4.308 -0.41 +0.00    +0.101 C  
DOCKED: ENDROOT
DOCKED: BRANCH   2  12
DOCKED: ATOM     12  C   UNL     1     -52.875 -29.194   0.887 -0.15 +0.00    +0.038 C  
DOCKED: BRANCH  12  13
DOCKED: ATOM     13  C   UNL     1     -53.177 -29.418   2.367 -0.13 +0.00    +0.038 C  
DOCKED: BRANCH  13  14
DOCKED: ATOM     14  C   UNL     1     -52.152 -30.357   3.001 -0.03 +0.00    +0.251 C  
DOCKED: BRANCH  14  15
DOCKED: ATOM     15  N   UNL     1     -52.817 -31.521   3.574 -0.02 +0.00    +0.141 N  
DOCKED: ATOM     16  C   UNL     1     -54.203 -31.604   3.111 -0.05 +0.00    +0.285 C  
DOCKED: ATOM     17  C   UNL     1     -52.094 -32.748   3.233 -0.02 +0.00    +0.285 C  
DOCKED: ENDBRANCH  14  15
DOCKED: ENDBRANCH  13  14
DOCKED: ENDBRANCH  12  13
DOCKED: ENDBRANCH   2  12
DOCKED: BRANCH   2  18
DOCKED: ATOM     18  C   UNL     1     -53.174 -31.353  -0.314 -0.09 +0.00    +0.006 A  
DOCKED: ATOM     19  C   UNL     1     -51.817 -31.432  -0.626 -0.03 +0.00    +0.001 A  
DOCKED: ATOM     20  C   UNL     1     -51.242 -32.669  -0.920 -0.03 +0.00    +0.029 A  
DOCKED: ATOM     21  C   UNL     1     -52.023 -33.824  -0.902 -0.10 +0.00    +0.140 A  
DOCKED: ATOM     22  C   UNL     1     -53.380 -33.743  -0.589 -0.19 +0.00    +0.029 A  
DOCKED: ATOM     23  F   UNL     1     -51.471 -35.011  -1.182 -0.05 -0.00    -0.204 F  
DOCKED: ATOM     24  C   UNL     1     -53.957 -32.506  -0.295 -0.18 +0.00    +0.001 A  
DOCKED: ENDBRANCH   2  18
DOCKED: TORSDOF 5
DOCKED: TER
DOCKED: ENDMDL
________________________________________________________________________________


    FINAL DOCKED STATE:
    ________________________


Run:   210 / 512
Time taken for this run:   0.002s

DOCKED: MODEL        210
DOCKED: USER    Run = 210
DOCKED: USER
DOCKED: USER    Estimated Free Energy of Binding    =  -4.40 kcal/mol  [=(1)+(2)+(3)-(4)]
DOCKED: USER
DOCKED: USER    (1) Final Intermolecular Energy     =  -5.89 kcal/mol
DOCKED: USER        vdW + Hbond + desolv Energy     =  -5.89 kcal/mol
DOCKED: USER        Electrostatic Energy            =  +0.00 kcal/mol
DOCKED: USER        Moving Ligand-Fixed Receptor    =  -5.89 kcal/mol
DOCKED: USER        Moving Ligand-Moving Receptor   =  +0.00 kcal/mol
DOCKED: USER    (2) Final Total Internal Energy     =  -1.37 kcal/mol
DOCKED: USER    (3) Torsional Free Energy           =  +1.49 kcal/mol
DOCKED: USER    (4) Unbound System's Energy         =  -1.37 kcal/mol
DOCKED: USER
DOCKED: USER
DOCKED: REMARK  5 active torsions:
DOCKED: REMARK  status: ('A' for Active; 'I' for Inactive)
DOCKED: REMARK    1  A    between atoms: C_2  and  C_19 
DOCKED: REMARK    2  A    between atoms: C_2  and  C_11 
DOCKED: REMARK    3  A    between atoms: C_19  and  C_20 
DOCKED: REMARK    4  A    between atoms: C_20  and  C_21 
DOCKED: REMARK    5  A    between atoms: C_21  and  N_22 
DOCKED: USER                              x       y       z     vdW  Elec       q    Type
DOCKED: USER                           _______ _______ _______ _____ _____    ______ ____
DOCKED: ROOT
DOCKED: ATOM      1  O   UNL     1     -56.840 -33.718   6.943 -0.06 -0.00    -0.346 OA 
DOCKED: ATOM      2  C   UNL     1     -58.241 -33.666   7.363 -0.14 +0.00    +0.130 C  
DOCKED: ATOM      3  C   UNL     1     -58.783 -35.010   6.973 -0.22 +0.00    +0.004 A  
DOCKED: ATOM      4  C   UNL     1     -57.757 -35.802   6.476 -0.28 +0.00    +0.006 A  
DOCKED: ATOM      5  C   UNL     1     -56.482 -35.052   6.514 -0.10 +0.00    +0.169 C  
DOCKED: ATOM      6  C   UNL     1     -60.079 -35.499   7.062 -0.22 -0.00    -0.001 A  
DOCKED: ATOM      7  C   UNL     1     -57.989 -37.098   6.049 -0.33 +0.00    +0.008 A  
DOCKED: ATOM      8  C   UNL     1     -60.330 -36.802   6.632 -0.22 +0.00    +0.010 A  
DOCKED: ATOM      9  C   UNL     1     -59.290 -37.598   6.128 -0.26 +0.00    +0.068 A  
DOCKED: ATOM     10  N   UNL     1     -59.788 -40.016   5.342 -2.56 -0.00    -0.191 NA 
DOCKED: ATOM     11  C   UNL     1     -59.565 -38.931   5.694 -0.36 +0.00    +0.101 C  
DOCKED: ENDROOT
DOCKED: BRANCH   2  12
DOCKED: ATOM     12  C   UNL     1     -58.286 -33.421   8.867 -0.05 +0.00    +0.038 C  
DOCKED: BRANCH  12  13
DOCKED: ATOM     13  C   UNL     1     -57.060 -34.009   9.563 -0.03 +0.00    +0.038 C  
DOCKED: BRANCH  13  14
DOCKED: ATOM     14  C   UNL     1     -57.452 -34.716  10.860 -0.00 +0.00    +0.251 C  
DOCKED: BRANCH  14  15
DOCKED: ATOM     15  N   UNL     1     -57.451 -36.161  10.671 -0.02 +0.00    +0.141 N  
DOCKED: ATOM     16  C   UNL     1     -58.803 -36.646  10.389 -0.01 +0.00    +0.285 C  
DOCKED: ATOM     17  C   UNL     1     -56.541 -36.539   9.588 -0.05 +0.00    +0.285 C  
DOCKED: ENDBRANCH  14  15
DOCKED: ENDBRANCH  13  14
DOCKED: ENDBRANCH  12  13
DOCKED: ENDBRANCH   2  12
DOCKED: BRANCH   2  18
DOCKED: ATOM     18  C   UNL     1     -58.879 -32.543   6.616 -0.18 +0.00    +0.006 A  
DOCKED: ATOM     19  C   UNL     1     -58.114 -31.754   5.757 -0.12 +0.00    +0.001 A  
DOCKED: ATOM     20  C   UNL     1     -58.712 -30.704   5.059 -0.16 +0.00    +0.029 A  
DOCKED: ATOM     21  C   UNL     1     -60.072 -30.444   5.220 -0.12 +0.00    +0.140 A  
DOCKED: ATOM     22  C   UNL     1     -60.837 -31.234   6.079 -0.17 +0.00    +0.029 A  
DOCKED: ATOM     23  F   UNL     1     -60.646 -29.437   4.549 -0.02 -0.00    -0.204 F  
DOCKED: ATOM     24  C   UNL     1     -60.240 -32.284   6.778 -0.20 +0.00    +0.001 A  
DOCKED: ENDBRANCH   2  18
DOCKED: TORSDOF 5
DOCKED: TER
DOCKED: ENDMDL
________________________________________________________________________________


    FINAL DOCKED STATE:
    ________________________


Run:   211 / 512
Time taken for this run:   0.002s

DOCKED: MODEL        211
DOCKED: USER    Run = 211
DOCKED: USER
DOCKED: USER    Estimated Free Energy of Binding    =  -6.05 kcal/mol  [=(1)+(2)+(3)-(4)]
DOCKED: USER
DOCKED: USER    (1) Final Intermolecular Energy     =  -7.54 kcal/mol
DOCKED: USER        vdW + Hbond + desolv Energy     =  -7.54 kcal/mol
DOCKED: USER        Electrostatic Energy            =  +0.00 kcal/mol
DOCKED: USER        Moving Ligand-Fixed Receptor    =  -7.54 kcal/mol
DOCKED: USER        Moving Ligand-Moving Receptor   =  +0.00 kcal/mol
DOCKED: USER    (2) Final Total Internal Energy     =  -0.99 kcal/mol
DOCKED: USER    (3) Torsional Free Energy           =  +1.49 kcal/mol
DOCKED: USER    (4) Unbound System's Energy         =  -0.99 kcal/mol
DOCKED: USER
DOCKED: USER
DOCKED: REMARK  5 active torsions:
DOCKED: REMARK  status: ('A' for Active; 'I' for Inactive)
DOCKED: REMARK    1  A    between atoms: C_2  and  C_19 
DOCKED: REMARK    2  A    between atoms: C_2  and  C_11 
DOCKED: REMARK    3  A    between atoms: C_19  and  C_20 
DOCKED: REMARK    4  A    between atoms: C_20  and  C_21 
DOCKED: REMARK    5  A    between atoms: C_21  and  N_22 
DOCKED: USER                              x       y       z     vdW  Elec       q    Type
DOCKED: USER                           _______ _______ _______ _____ _____    ______ ____
DOCKED: ROOT
DOCKED: ATOM      1  O   UNL     1     -56.490 -39.930   7.609 -0.27 -0.00    -0.346 OA 
DOCKED: ATOM      2  C   UNL     1     -57.345 -38.767   7.850 -0.28 +0.00    +0.130 C  
DOCKED: ATOM      3  C   UNL     1     -58.050 -38.561   6.540 -0.37 +0.00    +0.004 A  
DOCKED: ATOM      4  C   UNL     1     -57.713 -39.582   5.663 -0.37 +0.00    +0.006 A  
DOCKED: ATOM      5  C   UNL     1     -56.785 -40.527   6.325 -0.21 +0.00    +0.169 C  
DOCKED: ATOM      6  C   UNL     1     -58.929 -37.558   6.160 -0.33 -0.00    -0.001 A  
DOCKED: ATOM      7  C   UNL     1     -58.235 -39.634   4.382 -0.32 +0.00    +0.008 A  
DOCKED: ATOM      8  C   UNL     1     -59.460 -37.593   4.869 -0.18 +0.00    +0.010 A  
DOCKED: ATOM      9  C   UNL     1     -59.115 -38.626   3.985 -0.45 +0.00    +0.068 A  
DOCKED: ATOM     10  N   UNL     1     -60.123 -38.664   1.599 -3.09 -0.00    -0.191 NA 
DOCKED: ATOM     11  C   UNL     1     -59.670 -38.646   2.669 -0.31 +0.00    +0.101 C  
DOCKED: ENDROOT
DOCKED: BRANCH   2  12
DOCKED: ATOM     12  C   UNL     1     -58.299 -39.097   8.992 -0.28 +0.00    +0.038 C  
DOCKED: BRANCH  12  13
DOCKED: ATOM     13  C   UNL     1     -58.925 -37.833   9.577 -0.13 +0.00    +0.038 C  
DOCKED: BRANCH  13  14
DOCKED: ATOM     14  C   UNL     1     -60.008 -38.178  10.598 -0.05 +0.00    +0.251 C  
DOCKED: BRANCH  14  15
DOCKED: ATOM     15  N   UNL     1     -59.686 -37.596  11.895 -0.03 +0.00    +0.141 N  
DOCKED: ATOM     16  C   UNL     1     -58.494 -38.229  12.463 -0.03 +0.00    +0.285 C  
DOCKED: ATOM     17  C   UNL     1     -59.487 -36.151  11.778 -0.00 +0.00    +0.285 C  
DOCKED: ENDBRANCH  14  15
DOCKED: ENDBRANCH  13  14
DOCKED: ENDBRANCH  12  13
DOCKED: ENDBRANCH   2  12
DOCKED: BRANCH   2  18
DOCKED: ATOM     18  C   UNL     1     -56.446 -37.632   8.210 -0.24 +0.00    +0.006 A  
DOCKED: ATOM     19  C   UNL     1     -55.563 -37.756   9.282 -0.08 +0.00    +0.001 A  
DOCKED: ATOM     20  C   UNL     1     -54.723 -36.694   9.619 -0.12 +0.00    +0.029 A  
DOCKED: ATOM     21  C   UNL     1     -54.766 -35.511   8.883 -0.08 +0.00    +0.140 A  
DOCKED: ATOM     22  C   UNL     1     -55.649 -35.387   7.811 -0.14 +0.00    +0.029 A  
DOCKED: ATOM     23  F   UNL     1     -53.958 -34.492   9.205 -0.00 -0.00    -0.204 F  
DOCKED: ATOM     24  C   UNL     1     -56.490 -36.449   7.474 -0.19 +0.00    +0.001 A  
DOCKED: ENDBRANCH   2  18
DOCKED: TORSDOF 5
DOCKED: TER
DOCKED: ENDMDL
________________________________________________________________________________


    FINAL DOCKED STATE:
    ________________________


Run:   212 / 512
Time taken for this run:   0.002s

DOCKED: MODEL        212
DOCKED: USER    Run = 212
DOCKED: USER
DOCKED: USER    Estimated Free Energy of Binding    =  -4.04 kcal/mol  [=(1)+(2)+(3)-(4)]
DOCKED: USER
DOCKED: USER    (1) Final Intermolecular Energy     =  -5.53 kcal/mol
DOCKED: USER        vdW + Hbond + desolv Energy     =  -5.53 kcal/mol
DOCKED: USER        Electrostatic Energy            =  +0.00 kcal/mol
DOCKED: USER        Moving Ligand-Fixed Receptor    =  -5.53 kcal/mol
DOCKED: USER        Moving Ligand-Moving Receptor   =  +0.00 kcal/mol
DOCKED: USER    (2) Final Total Internal Energy     =  -1.19 kcal/mol
DOCKED: USER    (3) Torsional Free Energy           =  +1.49 kcal/mol
DOCKED: USER    (4) Unbound System's Energy         =  -1.19 kcal/mol
DOCKED: USER
DOCKED: USER
DOCKED: REMARK  5 active torsions:
DOCKED: REMARK  status: ('A' for Active; 'I' for Inactive)
DOCKED: REMARK    1  A    between atoms: C_2  and  C_19 
DOCKED: REMARK    2  A    between atoms: C_2  and  C_11 
DOCKED: REMARK    3  A    between atoms: C_19  and  C_20 
DOCKED: REMARK    4  A    between atoms: C_20  and  C_21 
DOCKED: REMARK    5  A    between atoms: C_21  and  N_22 
DOCKED: USER                              x       y       z     vdW  Elec       q    Type
DOCKED: USER                           _______ _______ _______ _____ _____    ______ ____
DOCKED: ROOT
DOCKED: ATOM      1  O   UNL     1     -57.037 -33.809   7.424 -0.04 -0.00    -0.346 OA 
DOCKED: ATOM      2  C   UNL     1     -56.237 -34.845   8.079 -0.11 +0.00    +0.130 C  
DOCKED: ATOM      3  C   UNL     1     -56.856 -36.128   7.606 -0.20 +0.00    +0.004 A  
DOCKED: ATOM      4  C   UNL     1     -57.850 -35.854   6.678 -0.27 +0.00    +0.006 A  
DOCKED: ATOM      5  C   UNL     1     -57.948 -34.393   6.464 -0.16 +0.00    +0.169 C  
DOCKED: ATOM      6  C   UNL     1     -56.555 -37.435   7.961 -0.25 -0.00    -0.001 A  
DOCKED: ATOM      7  C   UNL     1     -58.576 -36.869   6.078 -0.32 +0.00    +0.008 A  
DOCKED: ATOM      8  C   UNL     1     -57.282 -38.470   7.369 -0.33 +0.00    +0.010 A  
DOCKED: ATOM      9  C   UNL     1     -58.287 -38.187   6.432 -0.30 +0.00    +0.068 A  
DOCKED: ATOM     10  N   UNL     1     -59.613 -40.131   5.347 -2.52 -0.00    -0.191 NA 
DOCKED: ATOM     11  C   UNL     1     -59.019 -39.259   5.834 -0.36 +0.00    +0.101 C  
DOCKED: ENDROOT
DOCKED: BRANCH   2  12
DOCKED: ATOM     12  C   UNL     1     -54.787 -34.686   7.637 -0.13 +0.00    +0.038 C  
DOCKED: BRANCH  12  13
DOCKED: ATOM     13  C   UNL     1     -54.570 -33.365   6.903 -0.11 +0.00    +0.038 C  
DOCKED: BRANCH  13  14
DOCKED: ATOM     14  C   UNL     1     -53.647 -33.549   5.700 -0.09 +0.00    +0.251 C  
DOCKED: BRANCH  14  15
DOCKED: ATOM     15  N   UNL     1     -54.116 -32.752   4.573 -0.09 +0.00    +0.141 N  
DOCKED: ATOM     16  C   UNL     1     -54.574 -33.616   3.484 -0.08 +0.00    +0.285 C  
DOCKED: ATOM     17  C   UNL     1     -55.191 -31.850   4.992 -0.06 +0.00    +0.285 C  
DOCKED: ENDBRANCH  14  15
DOCKED: ENDBRANCH  13  14
DOCKED: ENDBRANCH  12  13
DOCKED: ENDBRANCH   2  12
DOCKED: BRANCH   2  18
DOCKED: ATOM     18  C   UNL     1     -56.377 -34.639   9.550 -0.04 +0.00    +0.006 A  
DOCKED: ATOM     19  C   UNL     1     -55.424 -35.166  10.421 -0.03 +0.00    +0.001 A  
DOCKED: ATOM     20  C   UNL     1     -55.556 -34.973  11.797 -0.01 +0.00    +0.029 A  
DOCKED: ATOM     21  C   UNL     1     -56.639 -34.254  12.299 -0.00 +0.00    +0.140 A  
DOCKED: ATOM     22  C   UNL     1     -57.592 -33.727  11.428 -0.00 +0.00    +0.029 A  
DOCKED: ATOM     23  F   UNL     1     -56.764 -34.068  13.620 +0.00 -0.00    -0.204 F  
DOCKED: ATOM     24  C   UNL     1     -57.461 -33.920  10.052 -0.02 +0.00    +0.001 A  
DOCKED: ENDBRANCH   2  18
DOCKED: TORSDOF 5
DOCKED: TER
DOCKED: ENDMDL
________________________________________________________________________________


    FINAL DOCKED STATE:
    ________________________


Run:   213 / 512
Time taken for this run:   0.002s

DOCKED: MODEL        213
DOCKED: USER    Run = 213
DOCKED: USER
DOCKED: USER    Estimated Free Energy of Binding    =  -3.79 kcal/mol  [=(1)+(2)+(3)-(4)]
DOCKED: USER
DOCKED: USER    (1) Final Intermolecular Energy     =  -5.28 kcal/mol
DOCKED: USER        vdW + Hbond + desolv Energy     =  -5.28 kcal/mol
DOCKED: USER        Electrostatic Energy            =  +0.00 kcal/mol
DOCKED: USER        Moving Ligand-Fixed Receptor    =  -5.28 kcal/mol
DOCKED: USER        Moving Ligand-Moving Receptor   =  +0.00 kcal/mol
DOCKED: USER    (2) Final Total Internal Energy     =  -1.26 kcal/mol
DOCKED: USER    (3) Torsional Free Energy           =  +1.49 kcal/mol
DOCKED: USER    (4) Unbound System's Energy         =  -1.26 kcal/mol
DOCKED: USER
DOCKED: USER
DOCKED: REMARK  5 active torsions:
DOCKED: REMARK  status: ('A' for Active; 'I' for Inactive)
DOCKED: REMARK    1  A    between atoms: C_2  and  C_19 
DOCKED: REMARK    2  A    between atoms: C_2  and  C_11 
DOCKED: REMARK    3  A    between atoms: C_19  and  C_20 
DOCKED: REMARK    4  A    between atoms: C_20  and  C_21 
DOCKED: REMARK    5  A    between atoms: C_21  and  N_22 
DOCKED: USER                              x       y       z     vdW  Elec       q    Type
DOCKED: USER                           _______ _______ _______ _____ _____    ______ ____
DOCKED: ROOT
DOCKED: ATOM      1  O   UNL     1     -56.481 -34.057   7.397 -0.05 -0.00    -0.346 OA 
DOCKED: ATOM      2  C   UNL     1     -55.912 -35.158   8.175 -0.12 +0.00    +0.130 C  
DOCKED: ATOM      3  C   UNL     1     -56.672 -36.363   7.702 -0.20 +0.00    +0.004 A  
DOCKED: ATOM      4  C   UNL     1     -57.521 -36.002   6.666 -0.27 +0.00    +0.006 A  
DOCKED: ATOM      5  C   UNL     1     -57.376 -34.558   6.377 -0.15 +0.00    +0.169 C  
DOCKED: ATOM      6  C   UNL     1     -56.608 -37.676   8.145 -0.25 -0.00    -0.001 A  
DOCKED: ATOM      7  C   UNL     1     -58.334 -36.933   6.043 -0.33 +0.00    +0.008 A  
DOCKED: ATOM      8  C   UNL     1     -57.425 -38.626   7.530 -0.33 +0.00    +0.010 A  
DOCKED: ATOM      9  C   UNL     1     -58.283 -38.256   6.484 -0.30 +0.00    +0.068 A  
DOCKED: ATOM     10  N   UNL     1     -59.783 -40.046   5.361 -2.56 -0.00    -0.191 NA 
DOCKED: ATOM     11  C   UNL     1     -59.111 -39.243   5.865 -0.35 +0.00    +0.101 C  
DOCKED: ENDROOT
DOCKED: BRANCH   2  12
DOCKED: ATOM     12  C   UNL     1     -54.420 -35.241   7.876 -0.12 +0.00    +0.038 C  
DOCKED: BRANCH  12  13
DOCKED: ATOM     13  C   UNL     1     -54.047 -34.386   6.666 -0.09 +0.00    +0.038 C  
DOCKED: BRANCH  13  14
DOCKED: ATOM     14  C   UNL     1     -52.903 -33.431   7.001 -0.05 +0.00    +0.251 C  
DOCKED: BRANCH  14  15
DOCKED: ATOM     15  N   UNL     1     -53.425 -32.109   7.327 -0.02 +0.00    +0.141 N  
DOCKED: ATOM     16  C   UNL     1     -53.610 -31.969   8.772 -0.00 +0.00    +0.285 C  
DOCKED: ATOM     17  C   UNL     1     -52.531 -31.064   6.826 -0.00 +0.00    +0.285 C  
DOCKED: ENDBRANCH  14  15
DOCKED: ENDBRANCH  13  14
DOCKED: ENDBRANCH  12  13
DOCKED: ENDBRANCH   2  12
DOCKED: BRANCH   2  18
DOCKED: ATOM     18  C   UNL     1     -56.155 -34.846   9.614 -0.04 +0.00    +0.006 A  
DOCKED: ATOM     19  C   UNL     1     -55.083 -34.543  10.452 -0.02 +0.00    +0.001 A  
DOCKED: ATOM     20  C   UNL     1     -55.312 -34.251  11.798 -0.00 +0.00    +0.029 A  
DOCKED: ATOM     21  C   UNL     1     -56.611 -34.262  12.302 -0.00 +0.00    +0.140 A  
DOCKED: ATOM     22  C   UNL     1     -57.683 -34.565  11.463 -0.00 +0.00    +0.029 A  
DOCKED: ATOM     23  F   UNL     1     -56.831 -33.981  13.593 +0.00 -0.00    -0.204 F  
DOCKED: ATOM     24  C   UNL     1     -57.455 -34.857  10.118 -0.02 +0.00    +0.001 A  
DOCKED: ENDBRANCH   2  18
DOCKED: TORSDOF 5
DOCKED: TER
DOCKED: ENDMDL
________________________________________________________________________________


    FINAL DOCKED STATE:
    ________________________


Run:   214 / 512
Time taken for this run:   0.002s

DOCKED: MODEL        214
DOCKED: USER    Run = 214
DOCKED: USER
DOCKED: USER    Estimated Free Energy of Binding    =  -4.41 kcal/mol  [=(1)+(2)+(3)-(4)]
DOCKED: USER
DOCKED: USER    (1) Final Intermolecular Energy     =  -5.90 kcal/mol
DOCKED: USER        vdW + Hbond + desolv Energy     =  -5.90 kcal/mol
DOCKED: USER        Electrostatic Energy            =  +0.00 kcal/mol
DOCKED: USER        Moving Ligand-Fixed Receptor    =  -5.90 kcal/mol
DOCKED: USER        Moving Ligand-Moving Receptor   =  +0.00 kcal/mol
DOCKED: USER    (2) Final Total Internal Energy     =  -1.37 kcal/mol
DOCKED: USER    (3) Torsional Free Energy           =  +1.49 kcal/mol
DOCKED: USER    (4) Unbound System's Energy         =  -1.37 kcal/mol
DOCKED: USER
DOCKED: USER
DOCKED: REMARK  5 active torsions:
DOCKED: REMARK  status: ('A' for Active; 'I' for Inactive)
DOCKED: REMARK    1  A    between atoms: C_2  and  C_19 
DOCKED: REMARK    2  A    between atoms: C_2  and  C_11 
DOCKED: REMARK    3  A    between atoms: C_19  and  C_20 
DOCKED: REMARK    4  A    between atoms: C_20  and  C_21 
DOCKED: REMARK    5  A    between atoms: C_21  and  N_22 
DOCKED: USER                              x       y       z     vdW  Elec       q    Type
DOCKED: USER                           _______ _______ _______ _____ _____    ______ ____
DOCKED: ROOT
DOCKED: ATOM      1  O   UNL     1     -57.108 -33.748   6.933 -0.07 -0.00    -0.346 OA 
DOCKED: ATOM      2  C   UNL     1     -58.485 -33.784   7.428 -0.14 +0.00    +0.130 C  
DOCKED: ATOM      3  C   UNL     1     -58.972 -35.149   7.037 -0.22 +0.00    +0.004 A  
DOCKED: ATOM      4  C   UNL     1     -57.932 -35.871   6.467 -0.28 +0.00    +0.006 A  
DOCKED: ATOM      5  C   UNL     1     -56.700 -35.051   6.454 -0.14 +0.00    +0.169 C  
DOCKED: ATOM      6  C   UNL     1     -60.232 -35.712   7.184 -0.21 -0.00    -0.001 A  
DOCKED: ATOM      7  C   UNL     1     -58.115 -37.169   6.024 -0.34 +0.00    +0.008 A  
DOCKED: ATOM      8  C   UNL     1     -60.433 -37.019   6.737 -0.22 +0.00    +0.010 A  
DOCKED: ATOM      9  C   UNL     1     -59.379 -37.744   6.160 -0.26 +0.00    +0.068 A  
DOCKED: ATOM     10  N   UNL     1     -59.786 -40.170   5.346 -2.56 -0.00    -0.191 NA 
DOCKED: ATOM     11  C   UNL     1     -59.604 -39.081   5.710 -0.36 +0.00    +0.101 C  
DOCKED: ENDROOT
DOCKED: BRANCH   2  12
DOCKED: ATOM     12  C   UNL     1     -58.460 -33.573   8.938 -0.05 +0.00    +0.038 C  
DOCKED: BRANCH  12  13
DOCKED: ATOM     13  C   UNL     1     -58.045 -32.147   9.294 -0.02 +0.00    +0.038 C  
DOCKED: BRANCH  13  14
DOCKED: ATOM     14  C   UNL     1     -56.527 -31.984   9.227 -0.01 +0.00    +0.251 C  
DOCKED: BRANCH  14  15
DOCKED: ATOM     15  N   UNL     1     -56.173 -30.900   8.319 -0.01 +0.00    +0.141 N  
DOCKED: ATOM     16  C   UNL     1     -56.415 -29.600   8.948 +0.00 +0.00    +0.285 C  
DOCKED: ATOM     17  C   UNL     1     -54.773 -31.010   7.905 -0.00 +0.00    +0.285 C  
DOCKED: ENDBRANCH  14  15
DOCKED: ENDBRANCH  13  14
DOCKED: ENDBRANCH  12  13
DOCKED: ENDBRANCH   2  12
DOCKED: BRANCH   2  18
DOCKED: ATOM     18  C   UNL     1     -59.224 -32.684   6.742 -0.19 +0.00    +0.006 A  
DOCKED: ATOM     19  C   UNL     1     -58.527 -31.746   5.982 -0.15 +0.00    +0.001 A  
DOCKED: ATOM     20  C   UNL     1     -59.220 -30.717   5.341 -0.16 +0.00    +0.029 A  
DOCKED: ATOM     21  C   UNL     1     -60.606 -30.629   5.462 -0.12 +0.00    +0.140 A  
DOCKED: ATOM     22  C   UNL     1     -61.302 -31.568   6.222 -0.17 +0.00    +0.029 A  
DOCKED: ATOM     23  F   UNL     1     -61.270 -29.643   4.845 -0.02 -0.00    -0.204 F  
DOCKED: ATOM     24  C   UNL     1     -60.610 -32.597   6.864 -0.21 +0.00    +0.001 A  
DOCKED: ENDBRANCH   2  18
DOCKED: TORSDOF 5
DOCKED: TER
DOCKED: ENDMDL
________________________________________________________________________________


    FINAL DOCKED STATE:
    ________________________


Run:   215 / 512
Time taken for this run:   0.002s

DOCKED: MODEL        215
DOCKED: USER    Run = 215
DOCKED: USER
DOCKED: USER    Estimated Free Energy of Binding    =  -4.63 kcal/mol  [=(1)+(2)+(3)-(4)]
DOCKED: USER
DOCKED: USER    (1) Final Intermolecular Energy     =  -6.12 kcal/mol
DOCKED: USER        vdW + Hbond + desolv Energy     =  -6.12 kcal/mol
DOCKED: USER        Electrostatic Energy            =  +0.00 kcal/mol
DOCKED: USER        Moving Ligand-Fixed Receptor    =  -6.12 kcal/mol
DOCKED: USER        Moving Ligand-Moving Receptor   =  +0.00 kcal/mol
DOCKED: USER    (2) Final Total Internal Energy     =  -1.27 kcal/mol
DOCKED: USER    (3) Torsional Free Energy           =  +1.49 kcal/mol
DOCKED: USER    (4) Unbound System's Energy         =  -1.27 kcal/mol
DOCKED: USER
DOCKED: USER
DOCKED: REMARK  5 active torsions:
DOCKED: REMARK  status: ('A' for Active; 'I' for Inactive)
DOCKED: REMARK    1  A    between atoms: C_2  and  C_19 
DOCKED: REMARK    2  A    between atoms: C_2  and  C_11 
DOCKED: REMARK    3  A    between atoms: C_19  and  C_20 
DOCKED: REMARK    4  A    between atoms: C_20  and  C_21 
DOCKED: REMARK    5  A    between atoms: C_21  and  N_22 
DOCKED: USER                              x       y       z     vdW  Elec       q    Type
DOCKED: USER                           _______ _______ _______ _____ _____    ______ ____
DOCKED: ROOT
DOCKED: ATOM      1  O   UNL     1     -60.961 -37.037   8.121 -0.01 -0.00    -0.346 OA 
DOCKED: ATOM      2  C   UNL     1     -59.604 -36.638   7.744 -0.13 +0.00    +0.130 C  
DOCKED: ATOM      3  C   UNL     1     -59.455 -37.155   6.342 -0.28 +0.00    +0.004 A  
DOCKED: ATOM      4  C   UNL     1     -60.656 -37.702   5.916 -0.27 +0.00    +0.006 A  
DOCKED: ATOM      5  C   UNL     1     -61.673 -37.576   6.984 -0.17 +0.00    +0.169 C  
DOCKED: ATOM      6  C   UNL     1     -58.347 -37.132   5.508 -0.35 -0.00    -0.001 A  
DOCKED: ATOM      7  C   UNL     1     -60.791 -38.246   4.650 -0.27 +0.00    +0.008 A  
DOCKED: ATOM      8  C   UNL     1     -58.465 -37.681   4.230 -0.04 +0.00    +0.010 A  
DOCKED: ATOM      9  C   UNL     1     -59.682 -38.234   3.803 -0.34 +0.00    +0.068 A  
DOCKED: ATOM     10  N   UNL     1     -59.869 -39.240   1.422 -2.72 -0.00    -0.191 NA 
DOCKED: ATOM     11  C   UNL     1     -59.785 -38.789   2.490 -0.28 +0.00    +0.101 C  
DOCKED: ENDROOT
DOCKED: BRANCH   2  12
DOCKED: ATOM     12  C   UNL     1     -59.505 -35.120   7.831 -0.16 +0.00    +0.038 C  
DOCKED: BRANCH  12  13
DOCKED: ATOM     13  C   UNL     1     -60.860 -34.459   7.585 -0.20 +0.00    +0.038 C  
DOCKED: BRANCH  13  14
DOCKED: ATOM     14  C   UNL     1     -61.275 -33.597   8.775 -0.03 +0.00    +0.251 C  
DOCKED: BRANCH  14  15
DOCKED: ATOM     15  N   UNL     1     -61.658 -34.439   9.902 -0.02 +0.00    +0.141 N  
DOCKED: ATOM     16  C   UNL     1     -60.522 -34.644  10.802 -0.00 +0.00    +0.285 C  
DOCKED: ATOM     17  C   UNL     1     -62.781 -33.847  10.631 +0.00 +0.00    +0.285 C  
DOCKED: ENDBRANCH  14  15
DOCKED: ENDBRANCH  13  14
DOCKED: ENDBRANCH  12  13
DOCKED: ENDBRANCH   2  12
DOCKED: BRANCH   2  18
DOCKED: ATOM     18  C   UNL     1     -58.673 -37.294   8.708 -0.12 +0.00    +0.006 A  
DOCKED: ATOM     19  C   UNL     1     -57.447 -36.701   9.006 -0.11 +0.00    +0.001 A  
DOCKED: ATOM     20  C   UNL     1     -56.577 -37.316   9.907 -0.11 +0.00    +0.029 A  
DOCKED: ATOM     21  C   UNL     1     -56.934 -38.521  10.510 -0.10 +0.00    +0.140 A  
DOCKED: ATOM     22  C   UNL     1     -58.161 -39.113  10.212 -0.21 +0.00    +0.029 A  
DOCKED: ATOM     23  F   UNL     1     -56.100 -39.110  11.376 -0.05 -0.00    -0.204 F  
DOCKED: ATOM     24  C   UNL     1     -59.032 -38.500   9.310 -0.17 +0.00    +0.001 A  
DOCKED: ENDBRANCH   2  18
DOCKED: TORSDOF 5
DOCKED: TER
DOCKED: ENDMDL
________________________________________________________________________________


    FINAL DOCKED STATE:
    ________________________


Run:   216 / 512
Time taken for this run:   0.002s

DOCKED: MODEL        216
DOCKED: USER    Run = 216
DOCKED: USER
DOCKED: USER    Estimated Free Energy of Binding    =  -5.69 kcal/mol  [=(1)+(2)+(3)-(4)]
DOCKED: USER
DOCKED: USER    (1) Final Intermolecular Energy     =  -7.18 kcal/mol
DOCKED: USER        vdW + Hbond + desolv Energy     =  -7.18 kcal/mol
DOCKED: USER        Electrostatic Energy            =  +0.00 kcal/mol
DOCKED: USER        Moving Ligand-Fixed Receptor    =  -7.18 kcal/mol
DOCKED: USER        Moving Ligand-Moving Receptor   =  +0.00 kcal/mol
DOCKED: USER    (2) Final Total Internal Energy     =  -1.08 kcal/mol
DOCKED: USER    (3) Torsional Free Energy           =  +1.49 kcal/mol
DOCKED: USER    (4) Unbound System's Energy         =  -1.08 kcal/mol
DOCKED: USER
DOCKED: USER
DOCKED: REMARK  5 active torsions:
DOCKED: REMARK  status: ('A' for Active; 'I' for Inactive)
DOCKED: REMARK    1  A    between atoms: C_2  and  C_19 
DOCKED: REMARK    2  A    between atoms: C_2  and  C_11 
DOCKED: REMARK    3  A    between atoms: C_19  and  C_20 
DOCKED: REMARK    4  A    between atoms: C_20  and  C_21 
DOCKED: REMARK    5  A    between atoms: C_21  and  N_22 
DOCKED: USER                              x       y       z     vdW  Elec       q    Type
DOCKED: USER                           _______ _______ _______ _____ _____    ______ ____
DOCKED: ROOT
DOCKED: ATOM      1  O   UNL     1     -57.971 -36.176   7.995 -0.03 -0.00    -0.346 OA 
DOCKED: ATOM      2  C   UNL     1     -57.471 -37.551   7.958 -0.21 +0.00    +0.130 C  
DOCKED: ATOM      3  C   UNL     1     -57.918 -38.061   6.619 -0.34 +0.00    +0.004 A  
DOCKED: ATOM      4  C   UNL     1     -58.524 -37.035   5.907 -0.34 +0.00    +0.006 A  
DOCKED: ATOM      5  C   UNL     1     -58.508 -35.790   6.708 -0.22 +0.00    +0.169 C  
DOCKED: ATOM      6  C   UNL     1     -57.790 -39.328   6.070 -0.40 -0.00    -0.001 A  
DOCKED: ATOM      7  C   UNL     1     -59.022 -37.239   4.632 +0.00 +0.00    +0.008 A  
DOCKED: ATOM      8  C   UNL     1     -58.292 -39.552   4.786 -0.44 +0.00    +0.010 A  
DOCKED: ATOM      9  C   UNL     1     -58.904 -38.512   4.071 -0.43 +0.00    +0.068 A  
DOCKED: ATOM     10  N   UNL     1     -59.821 -38.959   1.689 -2.81 -0.00    -0.191 NA 
DOCKED: ATOM     11  C   UNL     1     -59.410 -38.758   2.758 -0.44 +0.00    +0.101 C  
DOCKED: ENDROOT
DOCKED: BRANCH   2  12
DOCKED: ATOM     12  C   UNL     1     -55.954 -37.517   8.103 -0.25 +0.00    +0.038 C  
DOCKED: BRANCH  12  13
DOCKED: ATOM     13  C   UNL     1     -55.495 -36.270   8.857 -0.15 +0.00    +0.038 C  
DOCKED: BRANCH  13  14
DOCKED: ATOM     14  C   UNL     1     -54.914 -35.232   7.899 -0.08 +0.00    +0.251 C  
DOCKED: BRANCH  14  15
DOCKED: ATOM     15  N   UNL     1     -53.505 -35.002   8.193 -0.07 +0.00    +0.141 N  
DOCKED: ATOM     16  C   UNL     1     -53.319 -34.670   9.606 -0.02 +0.00    +0.285 C  
DOCKED: ATOM     17  C   UNL     1     -52.706 -36.177   7.839 -0.07 +0.00    +0.285 C  
DOCKED: ENDBRANCH  14  15
DOCKED: ENDBRANCH  13  14
DOCKED: ENDBRANCH  12  13
DOCKED: ENDBRANCH   2  12
DOCKED: BRANCH   2  18
DOCKED: ATOM     18  C   UNL     1     -58.105 -38.276   9.098 -0.18 +0.00    +0.006 A  
DOCKED: ATOM     19  C   UNL     1     -59.477 -38.167   9.316 -0.14 +0.00    +0.001 A  
DOCKED: ATOM     20  C   UNL     1     -60.069 -38.845  10.383 -0.13 +0.00    +0.029 A  
DOCKED: ATOM     21  C   UNL     1     -59.287 -39.632  11.228 -0.03 +0.00    +0.140 A  
DOCKED: ATOM     22  C   UNL     1     -57.915 -39.741  11.009 -0.21 +0.00    +0.029 A  
DOCKED: ATOM     23  F   UNL     1     -59.856 -40.284  12.250 -0.03 -0.00    -0.204 F  
DOCKED: ATOM     24  C   UNL     1     -57.322 -39.062   9.942 -0.15 +0.00    +0.001 A  
DOCKED: ENDBRANCH   2  18
DOCKED: TORSDOF 5
DOCKED: TER
DOCKED: ENDMDL
________________________________________________________________________________


    FINAL DOCKED STATE:
    ________________________


Run:   217 / 512
Time taken for this run:   0.002s

DOCKED: MODEL        217
DOCKED: USER    Run = 217
DOCKED: USER
DOCKED: USER    Estimated Free Energy of Binding    =  -3.70 kcal/mol  [=(1)+(2)+(3)-(4)]
DOCKED: USER
DOCKED: USER    (1) Final Intermolecular Energy     =  -5.20 kcal/mol
DOCKED: USER        vdW + Hbond + desolv Energy     =  -5.20 kcal/mol
DOCKED: USER        Electrostatic Energy            =  +0.00 kcal/mol
DOCKED: USER        Moving Ligand-Fixed Receptor    =  -5.20 kcal/mol
DOCKED: USER        Moving Ligand-Moving Receptor   =  +0.00 kcal/mol
DOCKED: USER    (2) Final Total Internal Energy     =  -1.34 kcal/mol
DOCKED: USER    (3) Torsional Free Energy           =  +1.49 kcal/mol
DOCKED: USER    (4) Unbound System's Energy         =  -1.34 kcal/mol
DOCKED: USER
DOCKED: USER
DOCKED: REMARK  5 active torsions:
DOCKED: REMARK  status: ('A' for Active; 'I' for Inactive)
DOCKED: REMARK    1  A    between atoms: C_2  and  C_19 
DOCKED: REMARK    2  A    between atoms: C_2  and  C_11 
DOCKED: REMARK    3  A    between atoms: C_19  and  C_20 
DOCKED: REMARK    4  A    between atoms: C_20  and  C_21 
DOCKED: REMARK    5  A    between atoms: C_21  and  N_22 
DOCKED: USER                              x       y       z     vdW  Elec       q    Type
DOCKED: USER                           _______ _______ _______ _____ _____    ______ ____
DOCKED: ROOT
DOCKED: ATOM      1  O   UNL     1     -50.200 -37.612  -1.464 -0.02 -0.00    -0.346 OA 
DOCKED: ATOM      2  C   UNL     1     -50.022 -36.645  -0.380 -0.07 +0.00    +0.130 C  
DOCKED: ATOM      3  C   UNL     1     -50.504 -37.379   0.838 -0.11 +0.00    +0.004 A  
DOCKED: ATOM      4  C   UNL     1     -50.824 -38.686   0.500 -0.17 +0.00    +0.006 A  
DOCKED: ATOM      5  C   UNL     1     -50.569 -38.909  -0.941 -0.08 +0.00    +0.169 C  
DOCKED: ATOM      6  C   UNL     1     -50.637 -36.929   2.144 -0.11 -0.00    -0.001 A  
DOCKED: ATOM      7  C   UNL     1     -51.290 -39.582   1.447 -0.30 +0.00    +0.008 A  
DOCKED: ATOM      8  C   UNL     1     -51.109 -37.819   3.110 -0.22 +0.00    +0.010 A  
DOCKED: ATOM      9  C   UNL     1     -51.434 -39.139   2.763 -0.30 +0.00    +0.068 A  
DOCKED: ATOM     10  N   UNL     1     -52.303 -40.767   4.581 -2.66 -0.00    -0.191 NA 
DOCKED: ATOM     11  C   UNL     1     -51.914 -40.037   3.766 -0.34 +0.00    +0.101 C  
DOCKED: ENDROOT
DOCKED: BRANCH   2  12
DOCKED: ATOM     12  C   UNL     1     -48.547 -36.272  -0.303 -0.01 +0.00    +0.038 C  
DOCKED: BRANCH  12  13
DOCKED: ATOM     13  C   UNL     1     -47.665 -37.512  -0.170 -0.01 +0.00    +0.038 C  
DOCKED: BRANCH  13  14
DOCKED: ATOM     14  C   UNL     1     -47.466 -37.891   1.296 -0.01 +0.00    +0.251 C  
DOCKED: BRANCH  14  15
DOCKED: ATOM     15  N   UNL     1     -47.504 -39.339   1.456 -0.05 +0.00    +0.141 N  
DOCKED: ATOM     16  C   UNL     1     -47.380 -40.005   0.158 -0.03 +0.00    +0.285 C  
DOCKED: ATOM     17  C   UNL     1     -46.442 -39.786   2.359 -0.05 +0.00    +0.285 C  
DOCKED: ENDBRANCH  14  15
DOCKED: ENDBRANCH  13  14
DOCKED: ENDBRANCH  12  13
DOCKED: ENDBRANCH   2  12
DOCKED: BRANCH   2  18
DOCKED: ATOM     18  C   UNL     1     -50.862 -35.457  -0.713 -0.10 +0.00    +0.006 A  
DOCKED: ATOM     19  C   UNL     1     -52.193 -35.407  -0.301 -0.13 +0.00    +0.001 A  
DOCKED: ATOM     20  C   UNL     1     -52.976 -34.295  -0.613 -0.19 +0.00    +0.029 A  
DOCKED: ATOM     21  C   UNL     1     -52.428 -33.237  -1.336 -0.12 +0.00    +0.140 A  
DOCKED: ATOM     22  C   UNL     1     -51.097 -33.288  -1.747 -0.04 +0.00    +0.029 A  
DOCKED: ATOM     23  F   UNL     1     -53.180 -32.169  -1.634 -0.04 -0.00    -0.204 F  
DOCKED: ATOM     24  C   UNL     1     -50.312 -34.399  -1.436 -0.04 +0.00    +0.001 A  
DOCKED: ENDBRANCH   2  18
DOCKED: TORSDOF 5
DOCKED: TER
DOCKED: ENDMDL
________________________________________________________________________________


    FINAL DOCKED STATE:
    ________________________


Run:   218 / 512
Time taken for this run:   0.002s

DOCKED: MODEL        218
DOCKED: USER    Run = 218
DOCKED: USER
DOCKED: USER    Estimated Free Energy of Binding    =  -4.73 kcal/mol  [=(1)+(2)+(3)-(4)]
DOCKED: USER
DOCKED: USER    (1) Final Intermolecular Energy     =  -6.22 kcal/mol
DOCKED: USER        vdW + Hbond + desolv Energy     =  -6.22 kcal/mol
DOCKED: USER        Electrostatic Energy            =  +0.00 kcal/mol
DOCKED: USER        Moving Ligand-Fixed Receptor    =  -6.22 kcal/mol
DOCKED: USER        Moving Ligand-Moving Receptor   =  +0.00 kcal/mol
DOCKED: USER    (2) Final Total Internal Energy     =  -1.13 kcal/mol
DOCKED: USER    (3) Torsional Free Energy           =  +1.49 kcal/mol
DOCKED: USER    (4) Unbound System's Energy         =  -1.13 kcal/mol
DOCKED: USER
DOCKED: USER
DOCKED: REMARK  5 active torsions:
DOCKED: REMARK  status: ('A' for Active; 'I' for Inactive)
DOCKED: REMARK    1  A    between atoms: C_2  and  C_19 
DOCKED: REMARK    2  A    between atoms: C_2  and  C_11 
DOCKED: REMARK    3  A    between atoms: C_19  and  C_20 
DOCKED: REMARK    4  A    between atoms: C_20  and  C_21 
DOCKED: REMARK    5  A    between atoms: C_21  and  N_22 
DOCKED: USER                              x       y       z     vdW  Elec       q    Type
DOCKED: USER                           _______ _______ _______ _____ _____    ______ ____
DOCKED: ROOT
DOCKED: ATOM      1  O   UNL     1     -58.649 -36.043   8.302 -0.02 -0.00    -0.346 OA 
DOCKED: ATOM      2  C   UNL     1     -57.758 -37.202   8.235 -0.16 +0.00    +0.130 C  
DOCKED: ATOM      3  C   UNL     1     -58.078 -37.826   6.907 -0.31 +0.00    +0.004 A  
DOCKED: ATOM      4  C   UNL     1     -58.990 -37.032   6.226 -0.31 +0.00    +0.006 A  
DOCKED: ATOM      5  C   UNL     1     -59.323 -35.839   7.038 -0.19 +0.00    +0.169 C  
DOCKED: ATOM      6  C   UNL     1     -57.593 -38.996   6.342 -0.41 -0.00    -0.001 A  
DOCKED: ATOM      7  C   UNL     1     -59.449 -37.379   4.967 -0.09 +0.00    +0.008 A  
DOCKED: ATOM      8  C   UNL     1     -58.049 -39.362   5.074 -0.36 +0.00    +0.010 A  
DOCKED: ATOM      9  C   UNL     1     -58.973 -38.557   4.391 -0.42 +0.00    +0.068 A  
DOCKED: ATOM     10  N   UNL     1     -59.796 -39.263   2.038 -2.28 -0.00    -0.191 NA 
DOCKED: ATOM     11  C   UNL     1     -59.427 -38.947   3.093 -0.51 +0.00    +0.101 C  
DOCKED: ENDROOT
DOCKED: BRANCH   2  12
DOCKED: ATOM     12  C   UNL     1     -56.318 -36.711   8.328 -0.21 +0.00    +0.038 C  
DOCKED: BRANCH  12  13
DOCKED: ATOM     13  C   UNL     1     -56.258 -35.197   8.515 -0.11 +0.00    +0.038 C  
DOCKED: BRANCH  13  14
DOCKED: ATOM     14  C   UNL     1     -56.254 -34.825   9.997 -0.02 +0.00    +0.251 C  
DOCKED: BRANCH  14  15
DOCKED: ATOM     15  N   UNL     1     -54.976 -34.229  10.367 -0.01 +0.00    +0.141 N  
DOCKED: ATOM     16  C   UNL     1     -53.980 -35.268  10.635 -0.01 +0.00    +0.285 C  
DOCKED: ATOM     17  C   UNL     1     -54.501 -33.331   9.313 -0.01 +0.00    +0.285 C  
DOCKED: ENDBRANCH  14  15
DOCKED: ENDBRANCH  13  14
DOCKED: ENDBRANCH  12  13
DOCKED: ENDBRANCH   2  12
DOCKED: BRANCH   2  18
DOCKED: ATOM     18  C   UNL     1     -58.102 -38.084   9.389 -0.15 +0.00    +0.006 A  
DOCKED: ATOM     19  C   UNL     1     -57.194 -39.047   9.825 -0.10 +0.00    +0.001 A  
DOCKED: ATOM     20  C   UNL     1     -57.517 -39.871  10.904 -0.23 +0.00    +0.029 A  
DOCKED: ATOM     21  C   UNL     1     -58.747 -39.729  11.545 -0.05 +0.00    +0.140 A  
DOCKED: ATOM     22  C   UNL     1     -59.655 -38.765  11.109 -0.12 +0.00    +0.029 A  
DOCKED: ATOM     23  F   UNL     1     -59.056 -40.519  12.582 -0.04 -0.00    -0.204 F  
DOCKED: ATOM     24  C   UNL     1     -59.333 -37.941  10.029 -0.11 +0.00    +0.001 A  
DOCKED: ENDBRANCH   2  18
DOCKED: TORSDOF 5
DOCKED: TER
DOCKED: ENDMDL
________________________________________________________________________________


    FINAL DOCKED STATE:
    ________________________


Run:   219 / 512
Time taken for this run:   0.002s

DOCKED: MODEL        219
DOCKED: USER    Run = 219
DOCKED: USER
DOCKED: USER    Estimated Free Energy of Binding    =  -5.42 kcal/mol  [=(1)+(2)+(3)-(4)]
DOCKED: USER
DOCKED: USER    (1) Final Intermolecular Energy     =  -6.91 kcal/mol
DOCKED: USER        vdW + Hbond + desolv Energy     =  -6.91 kcal/mol
DOCKED: USER        Electrostatic Energy            =  +0.00 kcal/mol
DOCKED: USER        Moving Ligand-Fixed Receptor    =  -6.91 kcal/mol
DOCKED: USER        Moving Ligand-Moving Receptor   =  +0.00 kcal/mol
DOCKED: USER    (2) Final Total Internal Energy     =  -1.23 kcal/mol
DOCKED: USER    (3) Torsional Free Energy           =  +1.49 kcal/mol
DOCKED: USER    (4) Unbound System's Energy         =  -1.23 kcal/mol
DOCKED: USER
DOCKED: USER
DOCKED: REMARK  5 active torsions:
DOCKED: REMARK  status: ('A' for Active; 'I' for Inactive)
DOCKED: REMARK    1  A    between atoms: C_2  and  C_19 
DOCKED: REMARK    2  A    between atoms: C_2  and  C_11 
DOCKED: REMARK    3  A    between atoms: C_19  and  C_20 
DOCKED: REMARK    4  A    between atoms: C_20  and  C_21 
DOCKED: REMARK    5  A    between atoms: C_21  and  N_22 
DOCKED: USER                              x       y       z     vdW  Elec       q    Type
DOCKED: USER                           _______ _______ _______ _____ _____    ______ ____
DOCKED: ROOT
DOCKED: ATOM      1  O   UNL     1     -56.756 -39.091   8.289 -0.11 -0.00    -0.346 OA 
DOCKED: ATOM      2  C   UNL     1     -57.306 -37.756   8.043 -0.22 +0.00    +0.130 C  
DOCKED: ATOM      3  C   UNL     1     -57.907 -37.862   6.672 -0.33 +0.00    +0.004 A  
DOCKED: ATOM      4  C   UNL     1     -57.809 -39.169   6.218 -0.41 +0.00    +0.006 A  
DOCKED: ATOM      5  C   UNL     1     -57.157 -40.011   7.247 -0.20 +0.00    +0.169 C  
DOCKED: ATOM      6  C   UNL     1     -58.503 -36.881   5.893 -0.33 -0.00    -0.001 A  
DOCKED: ATOM      7  C   UNL     1     -58.296 -39.540   4.976 -0.47 +0.00    +0.008 A  
DOCKED: ATOM      8  C   UNL     1     -58.996 -37.238   4.636 -0.01 +0.00    +0.010 A  
DOCKED: ATOM      9  C   UNL     1     -58.893 -38.561   4.181 -0.43 +0.00    +0.068 A  
DOCKED: ATOM     10  N   UNL     1     -59.821 -39.190   1.845 -2.49 -0.00    -0.191 NA 
DOCKED: ATOM     11  C   UNL     1     -59.404 -38.908   2.892 -0.46 +0.00    +0.101 C  
DOCKED: ENDROOT
DOCKED: BRANCH   2  12
DOCKED: ATOM     12  C   UNL     1     -58.339 -37.454   9.122 -0.13 +0.00    +0.038 C  
DOCKED: BRANCH  12  13
DOCKED: ATOM     13  C   UNL     1     -59.218 -38.670   9.408 -0.20 +0.00    +0.038 C  
DOCKED: BRANCH  13  14
DOCKED: ATOM     14  C   UNL     1     -58.664 -39.488  10.572 -0.07 +0.00    +0.251 C  
DOCKED: BRANCH  14  15
DOCKED: ATOM     15  N   UNL     1     -57.722 -38.691  11.349 -0.12 +0.00    +0.141 N  
DOCKED: ATOM     16  C   UNL     1     -58.341 -38.230  12.594 -0.03 +0.00    +0.285 C  
DOCKED: ATOM     17  C   UNL     1     -56.511 -39.461  11.639 -0.09 +0.00    +0.285 C  
DOCKED: ENDBRANCH  14  15
DOCKED: ENDBRANCH  13  14
DOCKED: ENDBRANCH  12  13
DOCKED: ENDBRANCH   2  12
DOCKED: BRANCH   2  18
DOCKED: ATOM     18  C   UNL     1     -56.165 -36.796   8.106 -0.20 +0.00    +0.006 A  
DOCKED: ATOM     19  C   UNL     1     -56.157 -35.669   7.285 -0.13 +0.00    +0.001 A  
DOCKED: ATOM     20  C   UNL     1     -55.089 -34.773   7.345 -0.11 +0.00    +0.029 A  
DOCKED: ATOM     21  C   UNL     1     -54.032 -35.004   8.225 -0.08 +0.00    +0.140 A  
DOCKED: ATOM     22  C   UNL     1     -54.042 -36.131   9.045 -0.11 +0.00    +0.029 A  
DOCKED: ATOM     23  F   UNL     1     -53.009 -34.142   8.283 -0.01 -0.00    -0.204 F  
DOCKED: ATOM     24  C   UNL     1     -55.109 -37.029   8.986 -0.17 +0.00    +0.001 A  
DOCKED: ENDBRANCH   2  18
DOCKED: TORSDOF 5
DOCKED: TER
DOCKED: ENDMDL
________________________________________________________________________________


    FINAL DOCKED STATE:
    ________________________


Run:   220 / 512
Time taken for this run:   0.002s

DOCKED: MODEL        220
DOCKED: USER    Run = 220
DOCKED: USER
DOCKED: USER    Estimated Free Energy of Binding    =  -3.88 kcal/mol  [=(1)+(2)+(3)-(4)]
DOCKED: USER
DOCKED: USER    (1) Final Intermolecular Energy     =  -5.37 kcal/mol
DOCKED: USER        vdW + Hbond + desolv Energy     =  -5.37 kcal/mol
DOCKED: USER        Electrostatic Energy            =  +0.00 kcal/mol
DOCKED: USER        Moving Ligand-Fixed Receptor    =  -5.37 kcal/mol
DOCKED: USER        Moving Ligand-Moving Receptor   =  +0.00 kcal/mol
DOCKED: USER    (2) Final Total Internal Energy     =  -1.37 kcal/mol
DOCKED: USER    (3) Torsional Free Energy           =  +1.49 kcal/mol
DOCKED: USER    (4) Unbound System's Energy         =  -1.37 kcal/mol
DOCKED: USER
DOCKED: USER
DOCKED: REMARK  5 active torsions:
DOCKED: REMARK  status: ('A' for Active; 'I' for Inactive)
DOCKED: REMARK    1  A    between atoms: C_2  and  C_19 
DOCKED: REMARK    2  A    between atoms: C_2  and  C_11 
DOCKED: REMARK    3  A    between atoms: C_19  and  C_20 
DOCKED: REMARK    4  A    between atoms: C_20  and  C_21 
DOCKED: REMARK    5  A    between atoms: C_21  and  N_22 
DOCKED: USER                              x       y       z     vdW  Elec       q    Type
DOCKED: USER                           _______ _______ _______ _____ _____    ______ ____
DOCKED: ROOT
DOCKED: ATOM      1  O   UNL     1     -49.241 -37.603  -1.753 +0.00 -0.00    -0.346 OA 
DOCKED: ATOM      2  C   UNL     1     -49.978 -36.573  -1.017 -0.08 +0.00    +0.130 C  
DOCKED: ATOM      3  C   UNL     1     -50.597 -37.323   0.127 -0.12 +0.00    +0.004 A  
DOCKED: ATOM      4  C   UNL     1     -50.163 -38.641   0.111 -0.12 +0.00    +0.006 A  
DOCKED: ATOM      5  C   UNL     1     -49.232 -38.850  -1.020 -0.06 +0.00    +0.169 C  
DOCKED: ATOM      6  C   UNL     1     -51.465 -36.871   1.110 -0.17 -0.00    -0.001 A  
DOCKED: ATOM      7  C   UNL     1     -50.583 -39.549   1.068 -0.21 +0.00    +0.008 A  
DOCKED: ATOM      8  C   UNL     1     -51.901 -37.776   2.080 -0.29 +0.00    +0.010 A  
DOCKED: ATOM      9  C   UNL     1     -51.462 -39.108   2.059 -0.28 +0.00    +0.068 A  
DOCKED: ATOM     10  N   UNL     1     -52.286 -40.760   3.876 -2.57 -0.00    -0.191 NA 
DOCKED: ATOM     11  C   UNL     1     -51.917 -40.019   3.060 -0.43 +0.00    +0.101 C  
DOCKED: ENDROOT
DOCKED: BRANCH   2  12
DOCKED: ATOM     12  C   UNL     1     -48.990 -35.506  -0.562 -0.02 +0.00    +0.038 C  
DOCKED: BRANCH  12  13
DOCKED: ATOM     13  C   UNL     1     -48.464 -35.796   0.842 -0.02 +0.00    +0.038 C  
DOCKED: BRANCH  13  14
DOCKED: ATOM     14  C   UNL     1     -47.206 -36.660   0.791 -0.00 +0.00    +0.251 C  
DOCKED: BRANCH  14  15
DOCKED: ATOM     15  N   UNL     1     -47.249 -37.680   1.832 -0.01 +0.00    +0.141 N  
DOCKED: ATOM     16  C   UNL     1     -46.453 -38.846   1.446 -0.02 +0.00    +0.285 C  
DOCKED: ATOM     17  C   UNL     1     -46.770 -37.138   3.105 -0.00 +0.00    +0.285 C  
DOCKED: ENDBRANCH  14  15
DOCKED: ENDBRANCH  13  14
DOCKED: ENDBRANCH  12  13
DOCKED: ENDBRANCH   2  12
DOCKED: BRANCH   2  18
DOCKED: ATOM     18  C   UNL     1     -50.989 -36.006  -1.956 -0.12 +0.00    +0.006 A  
DOCKED: ATOM     19  C   UNL     1     -51.207 -36.610  -3.194 -0.10 +0.00    +0.001 A  
DOCKED: ATOM     20  C   UNL     1     -52.153 -36.078  -4.071 -0.10 +0.00    +0.029 A  
DOCKED: ATOM     21  C   UNL     1     -52.880 -34.944  -3.709 -0.15 +0.00    +0.140 A  
DOCKED: ATOM     22  C   UNL     1     -52.661 -34.341  -2.471 -0.21 +0.00    +0.029 A  
DOCKED: ATOM     23  F   UNL     1     -53.789 -34.435  -4.551 -0.15 -0.00    -0.204 F  
DOCKED: ATOM     24  C   UNL     1     -51.715 -34.872  -1.593 -0.15 +0.00    +0.001 A  
DOCKED: ENDBRANCH   2  18
DOCKED: TORSDOF 5
DOCKED: TER
DOCKED: ENDMDL
________________________________________________________________________________


    FINAL DOCKED STATE:
    ________________________


Run:   221 / 512
Time taken for this run:   0.002s

DOCKED: MODEL        221
DOCKED: USER    Run = 221
DOCKED: USER
DOCKED: USER    Estimated Free Energy of Binding    =  -4.24 kcal/mol  [=(1)+(2)+(3)-(4)]
DOCKED: USER
DOCKED: USER    (1) Final Intermolecular Energy     =  -5.74 kcal/mol
DOCKED: USER        vdW + Hbond + desolv Energy     =  -5.74 kcal/mol
DOCKED: USER        Electrostatic Energy            =  +0.00 kcal/mol
DOCKED: USER        Moving Ligand-Fixed Receptor    =  -5.74 kcal/mol
DOCKED: USER        Moving Ligand-Moving Receptor   =  +0.00 kcal/mol
DOCKED: USER    (2) Final Total Internal Energy     =  -0.96 kcal/mol
DOCKED: USER    (3) Torsional Free Energy           =  +1.49 kcal/mol
DOCKED: USER    (4) Unbound System's Energy         =  -0.96 kcal/mol
DOCKED: USER
DOCKED: USER
DOCKED: REMARK  5 active torsions:
DOCKED: REMARK  status: ('A' for Active; 'I' for Inactive)
DOCKED: REMARK    1  A    between atoms: C_2  and  C_19 
DOCKED: REMARK    2  A    between atoms: C_2  and  C_11 
DOCKED: REMARK    3  A    between atoms: C_19  and  C_20 
DOCKED: REMARK    4  A    between atoms: C_20  and  C_21 
DOCKED: REMARK    5  A    between atoms: C_21  and  N_22 
DOCKED: USER                              x       y       z     vdW  Elec       q    Type
DOCKED: USER                           _______ _______ _______ _____ _____    ______ ____
DOCKED: ROOT
DOCKED: ATOM      1  O   UNL     1     -59.826 -36.195   8.861 -0.00 -0.00    -0.346 OA 
DOCKED: ATOM      2  C   UNL     1     -58.489 -36.755   8.665 -0.09 +0.00    +0.130 C  
DOCKED: ATOM      3  C   UNL     1     -58.561 -37.390   7.306 -0.22 +0.00    +0.004 A  
DOCKED: ATOM      4  C   UNL     1     -59.794 -37.121   6.730 -0.23 +0.00    +0.006 A  
DOCKED: ATOM      5  C   UNL     1     -60.607 -36.292   7.647 -0.13 +0.00    +0.169 C  
DOCKED: ATOM      6  C   UNL     1     -57.607 -38.137   6.630 -0.34 -0.00    -0.001 A  
DOCKED: ATOM      7  C   UNL     1     -60.117 -37.589   5.468 -0.20 +0.00    +0.008 A  
DOCKED: ATOM      8  C   UNL     1     -57.919 -38.619   5.358 -0.32 +0.00    +0.010 A  
DOCKED: ATOM      9  C   UNL     1     -59.168 -38.346   4.780 -0.38 +0.00    +0.068 A  
DOCKED: ATOM     10  N   UNL     1     -59.713 -39.253   2.414 -1.93 -0.00    -0.191 NA 
DOCKED: ATOM     11  C   UNL     1     -59.469 -38.847   3.476 -0.50 +0.00    +0.101 C  
DOCKED: ENDROOT
DOCKED: BRANCH   2  12
DOCKED: ATOM     12  C   UNL     1     -57.474 -35.620   8.736 -0.10 +0.00    +0.038 C  
DOCKED: BRANCH  12  13
DOCKED: ATOM     13  C   UNL     1     -56.552 -35.620   7.519 -0.20 +0.00    +0.038 C  
DOCKED: BRANCH  13  14
DOCKED: ATOM     14  C   UNL     1     -55.115 -35.954   7.918 -0.04 +0.00    +0.251 C  
DOCKED: BRANCH  14  15
DOCKED: ATOM     15  N   UNL     1     -54.956 -35.860   9.364 -0.07 +0.00    +0.141 N  
DOCKED: ATOM     16  C   UNL     1     -54.754 -37.187   9.948 -0.07 +0.00    +0.285 C  
DOCKED: ATOM     17  C   UNL     1     -53.836 -34.981   9.703 -0.02 +0.00    +0.285 C  
DOCKED: ENDBRANCH  14  15
DOCKED: ENDBRANCH  13  14
DOCKED: ENDBRANCH  12  13
DOCKED: ENDBRANCH   2  12
DOCKED: BRANCH   2  18
DOCKED: ATOM     18  C   UNL     1     -58.266 -37.746   9.758 -0.12 +0.00    +0.006 A  
DOCKED: ATOM     19  C   UNL     1     -58.336 -37.340  11.090 -0.06 +0.00    +0.001 A  
DOCKED: ATOM     20  C   UNL     1     -58.127 -38.267  12.112 -0.09 +0.00    +0.029 A  
DOCKED: ATOM     21  C   UNL     1     -57.849 -39.597  11.801 -0.17 +0.00    +0.140 A  
DOCKED: ATOM     22  C   UNL     1     -57.779 -40.002  10.468 -0.14 +0.00    +0.029 A  
DOCKED: ATOM     23  F   UNL     1     -57.650 -40.487  12.782 -0.07 -0.00    -0.204 F  
DOCKED: ATOM     24  C   UNL     1     -57.988 -39.076   9.445 -0.24 +0.00    +0.001 A  
DOCKED: ENDBRANCH   2  18
DOCKED: TORSDOF 5
DOCKED: TER
DOCKED: ENDMDL
________________________________________________________________________________


    FINAL DOCKED STATE:
    ________________________


Run:   222 / 512
Time taken for this run:   0.002s

DOCKED: MODEL        222
DOCKED: USER    Run = 222
DOCKED: USER
DOCKED: USER    Estimated Free Energy of Binding    =  -4.22 kcal/mol  [=(1)+(2)+(3)-(4)]
DOCKED: USER
DOCKED: USER    (1) Final Intermolecular Energy     =  -5.71 kcal/mol
DOCKED: USER        vdW + Hbond + desolv Energy     =  -5.71 kcal/mol
DOCKED: USER        Electrostatic Energy            =  +0.00 kcal/mol
DOCKED: USER        Moving Ligand-Fixed Receptor    =  -5.71 kcal/mol
DOCKED: USER        Moving Ligand-Moving Receptor   =  +0.00 kcal/mol
DOCKED: USER    (2) Final Total Internal Energy     =  -1.45 kcal/mol
DOCKED: USER    (3) Torsional Free Energy           =  +1.49 kcal/mol
DOCKED: USER    (4) Unbound System's Energy         =  -1.45 kcal/mol
DOCKED: USER
DOCKED: USER
DOCKED: REMARK  5 active torsions:
DOCKED: REMARK  status: ('A' for Active; 'I' for Inactive)
DOCKED: REMARK    1  A    between atoms: C_2  and  C_19 
DOCKED: REMARK    2  A    between atoms: C_2  and  C_11 
DOCKED: REMARK    3  A    between atoms: C_19  and  C_20 
DOCKED: REMARK    4  A    between atoms: C_20  and  C_21 
DOCKED: REMARK    5  A    between atoms: C_21  and  N_22 
DOCKED: USER                              x       y       z     vdW  Elec       q    Type
DOCKED: USER                           _______ _______ _______ _____ _____    ______ ____
DOCKED: ROOT
DOCKED: ATOM      1  O   UNL     1     -55.224 -35.864   8.454 -0.07 -0.00    -0.346 OA 
DOCKED: ATOM      2  C   UNL     1     -56.282 -35.064   7.836 -0.13 +0.00    +0.130 C  
DOCKED: ATOM      3  C   UNL     1     -57.171 -36.084   7.186 -0.23 +0.00    +0.004 A  
DOCKED: ATOM      4  C   UNL     1     -56.724 -37.360   7.498 -0.25 +0.00    +0.006 A  
DOCKED: ATOM      5  C   UNL     1     -55.534 -37.275   8.373 -0.18 +0.00    +0.169 C  
DOCKED: ATOM      6  C   UNL     1     -58.293 -35.897   6.392 -0.28 -0.00    -0.001 A  
DOCKED: ATOM      7  C   UNL     1     -57.376 -38.487   7.027 -0.35 +0.00    +0.008 A  
DOCKED: ATOM      8  C   UNL     1     -58.959 -37.024   5.906 -0.32 +0.00    +0.010 A  
DOCKED: ATOM      9  C   UNL     1     -58.502 -38.312   6.222 -0.31 +0.00    +0.068 A  
DOCKED: ATOM     10  N   UNL     1     -59.764 -40.382   5.307 -2.53 -0.00    -0.191 NA 
DOCKED: ATOM     11  C   UNL     1     -59.198 -39.453   5.717 -0.29 +0.00    +0.101 C  
DOCKED: ENDROOT
DOCKED: BRANCH   2  12
DOCKED: ATOM     12  C   UNL     1     -56.988 -34.271   8.929 -0.06 +0.00    +0.038 C  
DOCKED: BRANCH  12  13
DOCKED: ATOM     13  C   UNL     1     -56.058 -34.001  10.111 -0.02 +0.00    +0.038 C  
DOCKED: BRANCH  13  14
DOCKED: ATOM     14  C   UNL     1     -55.039 -32.916   9.772 -0.01 +0.00    +0.251 C  
DOCKED: BRANCH  14  15
DOCKED: ATOM     15  N   UNL     1     -53.682 -33.431   9.915 -0.01 +0.00    +0.141 N  
DOCKED: ATOM     16  C   UNL     1     -52.718 -32.333   9.987 -0.00 +0.00    +0.285 C  
DOCKED: ATOM     17  C   UNL     1     -53.576 -34.279  11.104 -0.00 +0.00    +0.285 C  
DOCKED: ENDBRANCH  14  15
DOCKED: ENDBRANCH  13  14
DOCKED: ENDBRANCH  12  13
DOCKED: ENDBRANCH   2  12
DOCKED: BRANCH   2  18
DOCKED: ATOM     18  C   UNL     1     -55.623 -34.155   6.852 -0.16 +0.00    +0.006 A  
DOCKED: ATOM     19  C   UNL     1     -54.289 -34.358   6.501 -0.06 +0.00    +0.001 A  
DOCKED: ATOM     20  C   UNL     1     -53.674 -33.508   5.581 -0.11 +0.00    +0.029 A  
DOCKED: ATOM     21  C   UNL     1     -54.394 -32.458   5.013 -0.08 +0.00    +0.140 A  
DOCKED: ATOM     22  C   UNL     1     -55.728 -32.256   5.364 -0.10 +0.00    +0.029 A  
DOCKED: ATOM     23  F   UNL     1     -53.804 -31.643   4.129 -0.01 -0.00    -0.204 F  
DOCKED: ATOM     24  C   UNL     1     -56.344 -33.105   6.285 -0.14 +0.00    +0.001 A  
DOCKED: ENDBRANCH   2  18
DOCKED: TORSDOF 5
DOCKED: TER
DOCKED: ENDMDL
________________________________________________________________________________


    FINAL DOCKED STATE:
    ________________________


Run:   223 / 512
Time taken for this run:   0.002s

DOCKED: MODEL        223
DOCKED: USER    Run = 223
DOCKED: USER
DOCKED: USER    Estimated Free Energy of Binding    =  -4.65 kcal/mol  [=(1)+(2)+(3)-(4)]
DOCKED: USER
DOCKED: USER    (1) Final Intermolecular Energy     =  -6.14 kcal/mol
DOCKED: USER        vdW + Hbond + desolv Energy     =  -6.14 kcal/mol
DOCKED: USER        Electrostatic Energy            =  +0.00 kcal/mol
DOCKED: USER        Moving Ligand-Fixed Receptor    =  -6.14 kcal/mol
DOCKED: USER        Moving Ligand-Moving Receptor   =  +0.00 kcal/mol
DOCKED: USER    (2) Final Total Internal Energy     =  -1.07 kcal/mol
DOCKED: USER    (3) Torsional Free Energy           =  +1.49 kcal/mol
DOCKED: USER    (4) Unbound System's Energy         =  -1.07 kcal/mol
DOCKED: USER
DOCKED: USER
DOCKED: REMARK  5 active torsions:
DOCKED: REMARK  status: ('A' for Active; 'I' for Inactive)
DOCKED: REMARK    1  A    between atoms: C_2  and  C_19 
DOCKED: REMARK    2  A    between atoms: C_2  and  C_11 
DOCKED: REMARK    3  A    between atoms: C_19  and  C_20 
DOCKED: REMARK    4  A    between atoms: C_20  and  C_21 
DOCKED: REMARK    5  A    between atoms: C_21  and  N_22 
DOCKED: USER                              x       y       z     vdW  Elec       q    Type
DOCKED: USER                           _______ _______ _______ _____ _____    ______ ____
DOCKED: ROOT
DOCKED: ATOM      1  O   UNL     1     -57.467 -33.871   7.011 -0.07 -0.00    -0.346 OA 
DOCKED: ATOM      2  C   UNL     1     -58.830 -34.013   7.526 -0.15 +0.00    +0.130 C  
DOCKED: ATOM      3  C   UNL     1     -59.238 -35.390   7.090 -0.22 +0.00    +0.004 A  
DOCKED: ATOM      4  C   UNL     1     -58.166 -36.022   6.476 -0.29 +0.00    +0.006 A  
DOCKED: ATOM      5  C   UNL     1     -56.988 -35.126   6.476 -0.19 +0.00    +0.169 C  
DOCKED: ATOM      6  C   UNL     1     -60.457 -36.036   7.234 -0.20 -0.00    -0.001 A  
DOCKED: ATOM      7  C   UNL     1     -58.275 -37.312   5.985 -0.35 +0.00    +0.008 A  
DOCKED: ATOM      8  C   UNL     1     -60.584 -37.335   6.740 -0.22 +0.00    +0.010 A  
DOCKED: ATOM      9  C   UNL     1     -59.498 -37.970   6.119 -0.26 +0.00    +0.068 A  
DOCKED: ATOM     10  N   UNL     1     -59.766 -40.384   5.218 -2.49 -0.00    -0.191 NA 
DOCKED: ATOM     11  C   UNL     1     -59.646 -39.301   5.621 -0.36 +0.00    +0.101 C  
DOCKED: ENDROOT
DOCKED: BRANCH   2  12
DOCKED: ATOM     12  C   UNL     1     -58.791 -33.858   9.042 -0.05 +0.00    +0.038 C  
DOCKED: BRANCH  12  13
DOCKED: ATOM     13  C   UNL     1     -59.056 -35.188   9.745 -0.04 +0.00    +0.038 C  
DOCKED: BRANCH  13  14
DOCKED: ATOM     14  C   UNL     1     -57.796 -36.050   9.781 -0.02 +0.00    +0.251 C  
DOCKED: BRANCH  14  15
DOCKED: ATOM     15  N   UNL     1     -58.041 -37.275  10.532 -0.05 +0.00    +0.141 N  
DOCKED: ATOM     16  C   UNL     1     -58.118 -38.426   9.631 -0.10 +0.00    +0.285 C  
DOCKED: ATOM     17  C   UNL     1     -56.995 -37.484  11.534 -0.04 +0.00    +0.285 C  
DOCKED: ENDBRANCH  14  15
DOCKED: ENDBRANCH  13  14
DOCKED: ENDBRANCH  12  13
DOCKED: ENDBRANCH   2  12
DOCKED: BRANCH   2  18
DOCKED: ATOM     18  C   UNL     1     -59.649 -32.936   6.895 -0.20 +0.00    +0.006 A  
DOCKED: ATOM     19  C   UNL     1     -59.022 -31.840   6.304 -0.17 +0.00    +0.001 A  
DOCKED: ATOM     20  C   UNL     1     -59.789 -30.834   5.715 -0.16 +0.00    +0.029 A  
DOCKED: ATOM     21  C   UNL     1     -61.180 -30.926   5.717 -0.11 +0.00    +0.140 A  
DOCKED: ATOM     22  C   UNL     1     -61.806 -32.023   6.308 -0.17 +0.00    +0.029 A  
DOCKED: ATOM     23  F   UNL     1     -61.915 -29.961   5.150 -0.02 -0.00    -0.204 F  
DOCKED: ATOM     24  C   UNL     1     -61.040 -33.029   6.899 -0.22 +0.00    +0.001 A  
DOCKED: ENDBRANCH   2  18
DOCKED: TORSDOF 5
DOCKED: TER
DOCKED: ENDMDL
________________________________________________________________________________


    FINAL DOCKED STATE:
    ________________________


Run:   224 / 512
Time taken for this run:   0.002s

DOCKED: MODEL        224
DOCKED: USER    Run = 224
DOCKED: USER
DOCKED: USER    Estimated Free Energy of Binding    =  -3.73 kcal/mol  [=(1)+(2)+(3)-(4)]
DOCKED: USER
DOCKED: USER    (1) Final Intermolecular Energy     =  -5.22 kcal/mol
DOCKED: USER        vdW + Hbond + desolv Energy     =  -5.22 kcal/mol
DOCKED: USER        Electrostatic Energy            =  +0.00 kcal/mol
DOCKED: USER        Moving Ligand-Fixed Receptor    =  -5.22 kcal/mol
DOCKED: USER        Moving Ligand-Moving Receptor   =  +0.00 kcal/mol
DOCKED: USER    (2) Final Total Internal Energy     =  -1.50 kcal/mol
DOCKED: USER    (3) Torsional Free Energy           =  +1.49 kcal/mol
DOCKED: USER    (4) Unbound System's Energy         =  -1.50 kcal/mol
DOCKED: USER
DOCKED: USER
DOCKED: REMARK  5 active torsions:
DOCKED: REMARK  status: ('A' for Active; 'I' for Inactive)
DOCKED: REMARK    1  A    between atoms: C_2  and  C_19 
DOCKED: REMARK    2  A    between atoms: C_2  and  C_11 
DOCKED: REMARK    3  A    between atoms: C_19  and  C_20 
DOCKED: REMARK    4  A    between atoms: C_20  and  C_21 
DOCKED: REMARK    5  A    between atoms: C_21  and  N_22 
DOCKED: USER                              x       y       z     vdW  Elec       q    Type
DOCKED: USER                           _______ _______ _______ _____ _____    ______ ____
DOCKED: ROOT
DOCKED: ATOM      1  O   UNL     1     -48.956 -35.720   0.275 +0.01 -0.00    -0.346 OA 
DOCKED: ATOM      2  C   UNL     1     -50.341 -35.285   0.461 -0.05 +0.00    +0.130 C  
DOCKED: ATOM      3  C   UNL     1     -50.967 -36.405   1.241 -0.11 +0.00    +0.004 A  
DOCKED: ATOM      4  C   UNL     1     -50.000 -37.345   1.568 -0.08 +0.00    +0.006 A  
DOCKED: ATOM      5  C   UNL     1     -48.684 -36.914   1.047 -0.02 +0.00    +0.169 C  
DOCKED: ATOM      6  C   UNL     1     -52.286 -36.572   1.639 -0.27 -0.00    -0.001 A  
DOCKED: ATOM      7  C   UNL     1     -50.316 -38.480   2.295 -0.16 +0.00    +0.008 A  
DOCKED: ATOM      8  C   UNL     1     -52.620 -37.714   2.369 -0.31 +0.00    +0.010 A  
DOCKED: ATOM      9  C   UNL     1     -51.640 -38.662   2.696 -0.29 +0.00    +0.068 A  
DOCKED: ATOM     10  N   UNL     1     -52.294 -40.767   4.058 -2.62 -0.00    -0.191 NA 
DOCKED: ATOM     11  C   UNL     1     -52.001 -39.823   3.447 -0.36 +0.00    +0.101 C  
DOCKED: ENDROOT
DOCKED: BRANCH   2  12
DOCKED: ATOM     12  C   UNL     1     -50.334 -33.964   1.220 -0.02 +0.00    +0.038 C  
DOCKED: BRANCH  12  13
DOCKED: ATOM     13  C   UNL     1     -49.707 -32.847   0.389 -0.01 +0.00    +0.038 C  
DOCKED: BRANCH  13  14
DOCKED: ATOM     14  C   UNL     1     -48.248 -32.622   0.782 +0.00 +0.00    +0.251 C  
DOCKED: BRANCH  14  15
DOCKED: ATOM     15  N   UNL     1     -47.379 -32.791  -0.376 +0.00 +0.00    +0.141 N  
DOCKED: ATOM     16  C   UNL     1     -46.540 -33.981  -0.222 +0.00 +0.00    +0.285 C  
DOCKED: ATOM     17  C   UNL     1     -48.169 -32.883  -1.605 -0.00 +0.00    +0.285 C  
DOCKED: ENDBRANCH  14  15
DOCKED: ENDBRANCH  13  14
DOCKED: ENDBRANCH  12  13
DOCKED: ENDBRANCH   2  12
DOCKED: BRANCH   2  18
DOCKED: ATOM     18  C   UNL     1     -50.933 -35.121  -0.899 -0.10 +0.00    +0.006 A  
DOCKED: ATOM     19  C   UNL     1     -52.161 -34.480  -1.051 -0.17 +0.00    +0.001 A  
DOCKED: ATOM     20  C   UNL     1     -52.714 -34.327  -2.324 -0.20 +0.00    +0.029 A  
DOCKED: ATOM     21  C   UNL     1     -52.038 -34.816  -3.441 -0.18 +0.00    +0.140 A  
DOCKED: ATOM     22  C   UNL     1     -50.809 -35.457  -3.288 -0.12 +0.00    +0.029 A  
DOCKED: ATOM     23  F   UNL     1     -52.567 -34.668  -4.662 -0.09 -0.00    -0.204 F  
DOCKED: ATOM     24  C   UNL     1     -50.255 -35.611  -2.015 -0.08 +0.00    +0.001 A  
DOCKED: ENDBRANCH   2  18
DOCKED: TORSDOF 5
DOCKED: TER
DOCKED: ENDMDL
________________________________________________________________________________


    FINAL DOCKED STATE:
    ________________________


Run:   225 / 512
Time taken for this run:   0.002s

DOCKED: MODEL        225
DOCKED: USER    Run = 225
DOCKED: USER
DOCKED: USER    Estimated Free Energy of Binding    =  -3.55 kcal/mol  [=(1)+(2)+(3)-(4)]
DOCKED: USER
DOCKED: USER    (1) Final Intermolecular Energy     =  -5.04 kcal/mol
DOCKED: USER        vdW + Hbond + desolv Energy     =  -5.04 kcal/mol
DOCKED: USER        Electrostatic Energy            =  +0.00 kcal/mol
DOCKED: USER        Moving Ligand-Fixed Receptor    =  -5.04 kcal/mol
DOCKED: USER        Moving Ligand-Moving Receptor   =  +0.00 kcal/mol
DOCKED: USER    (2) Final Total Internal Energy     =  -1.46 kcal/mol
DOCKED: USER    (3) Torsional Free Energy           =  +1.49 kcal/mol
DOCKED: USER    (4) Unbound System's Energy         =  -1.46 kcal/mol
DOCKED: USER
DOCKED: USER
DOCKED: REMARK  5 active torsions:
DOCKED: REMARK  status: ('A' for Active; 'I' for Inactive)
DOCKED: REMARK    1  A    between atoms: C_2  and  C_19 
DOCKED: REMARK    2  A    between atoms: C_2  and  C_11 
DOCKED: REMARK    3  A    between atoms: C_19  and  C_20 
DOCKED: REMARK    4  A    between atoms: C_20  and  C_21 
DOCKED: REMARK    5  A    between atoms: C_21  and  N_22 
DOCKED: USER                              x       y       z     vdW  Elec       q    Type
DOCKED: USER                           _______ _______ _______ _____ _____    ______ ____
DOCKED: ROOT
DOCKED: ATOM      1  O   UNL     1     -50.360 -25.044  -4.703 -0.03 -0.00    -0.346 OA 
DOCKED: ATOM      2  C   UNL     1     -50.866 -24.959  -3.332 -0.09 +0.00    +0.130 C  
DOCKED: ATOM      3  C   UNL     1     -52.289 -25.422  -3.444 -0.05 +0.00    +0.004 A  
DOCKED: ATOM      4  C   UNL     1     -52.543 -25.841  -4.743 -0.15 +0.00    +0.006 A  
DOCKED: ATOM      5  C   UNL     1     -51.320 -25.698  -5.565 -0.09 +0.00    +0.169 C  
DOCKED: ATOM      6  C   UNL     1     -53.277 -25.479  -2.473 -0.20 -0.00    -0.001 A  
DOCKED: ATOM      7  C   UNL     1     -53.786 -26.324  -5.114 -0.28 +0.00    +0.008 A  
DOCKED: ATOM      8  C   UNL     1     -54.537 -25.960  -2.833 -0.23 +0.00    +0.010 A  
DOCKED: ATOM      9  C   UNL     1     -54.790 -26.381  -4.147 -0.34 +0.00    +0.068 A  
DOCKED: ATOM     10  N   UNL     1     -57.138 -27.273  -4.780 -2.48 -0.00    -0.191 NA 
DOCKED: ATOM     11  C   UNL     1     -56.085 -26.872  -4.496 -0.41 +0.00    +0.101 C  
DOCKED: ENDROOT
DOCKED: BRANCH   2  12
DOCKED: ATOM     12  C   UNL     1     -50.016 -25.862  -2.447 -0.05 +0.00    +0.038 C  
DOCKED: BRANCH  12  13
DOCKED: ATOM     13  C   UNL     1     -50.645 -27.246  -2.296 -0.05 +0.00    +0.038 C  
DOCKED: BRANCH  13  14
DOCKED: ATOM     14  C   UNL     1     -50.181 -28.185  -3.408 +0.00 +0.00    +0.251 C  
DOCKED: BRANCH  14  15
DOCKED: ATOM     15  N   UNL     1     -51.191 -29.205  -3.664 -0.02 +0.00    +0.141 N  
DOCKED: ATOM     16  C   UNL     1     -52.371 -28.985  -2.826 -0.04 +0.00    +0.285 C  
DOCKED: ATOM     17  C   UNL     1     -51.567 -29.215  -5.078 -0.03 +0.00    +0.285 C  
DOCKED: ENDBRANCH  14  15
DOCKED: ENDBRANCH  13  14
DOCKED: ENDBRANCH  12  13
DOCKED: ENDBRANCH   2  12
DOCKED: BRANCH   2  18
DOCKED: ATOM     18  C   UNL     1     -50.750 -23.531  -2.912 -0.11 +0.00    +0.006 A  
DOCKED: ATOM     19  C   UNL     1     -49.591 -23.082  -2.280 -0.04 +0.00    +0.001 A  
DOCKED: ATOM     20  C   UNL     1     -49.485 -21.747  -1.888 -0.02 +0.00    +0.029 A  
DOCKED: ATOM     21  C   UNL     1     -50.536 -20.864  -2.129 -0.03 +0.00    +0.140 A  
DOCKED: ATOM     22  C   UNL     1     -51.694 -21.313  -2.762 -0.14 +0.00    +0.029 A  
DOCKED: ATOM     23  F   UNL     1     -50.432 -19.582  -1.755 +0.00 -0.00    -0.204 F  
DOCKED: ATOM     24  C   UNL     1     -51.802 -22.649  -3.154 -0.18 +0.00    +0.001 A  
DOCKED: ENDBRANCH   2  18
DOCKED: TORSDOF 5
DOCKED: TER
DOCKED: ENDMDL
________________________________________________________________________________


    FINAL DOCKED STATE:
    ________________________


Run:   226 / 512
Time taken for this run:   0.002s

DOCKED: MODEL        226
DOCKED: USER    Run = 226
DOCKED: USER
DOCKED: USER    Estimated Free Energy of Binding    =  -5.39 kcal/mol  [=(1)+(2)+(3)-(4)]
DOCKED: USER
DOCKED: USER    (1) Final Intermolecular Energy     =  -6.88 kcal/mol
DOCKED: USER        vdW + Hbond + desolv Energy     =  -6.88 kcal/mol
DOCKED: USER        Electrostatic Energy            =  +0.00 kcal/mol
DOCKED: USER        Moving Ligand-Fixed Receptor    =  -6.88 kcal/mol
DOCKED: USER        Moving Ligand-Moving Receptor   =  +0.00 kcal/mol
DOCKED: USER    (2) Final Total Internal Energy     =  -1.09 kcal/mol
DOCKED: USER    (3) Torsional Free Energy           =  +1.49 kcal/mol
DOCKED: USER    (4) Unbound System's Energy         =  -1.09 kcal/mol
DOCKED: USER
DOCKED: USER
DOCKED: REMARK  5 active torsions:
DOCKED: REMARK  status: ('A' for Active; 'I' for Inactive)
DOCKED: REMARK    1  A    between atoms: C_2  and  C_19 
DOCKED: REMARK    2  A    between atoms: C_2  and  C_11 
DOCKED: REMARK    3  A    between atoms: C_19  and  C_20 
DOCKED: REMARK    4  A    between atoms: C_20  and  C_21 
DOCKED: REMARK    5  A    between atoms: C_21  and  N_22 
DOCKED: USER                              x       y       z     vdW  Elec       q    Type
DOCKED: USER                           _______ _______ _______ _____ _____    ______ ____
DOCKED: ROOT
DOCKED: ATOM      1  O   UNL     1     -56.637 -39.168   8.161 -0.09 -0.00    -0.346 OA 
DOCKED: ATOM      2  C   UNL     1     -57.044 -37.778   7.947 -0.24 +0.00    +0.130 C  
DOCKED: ATOM      3  C   UNL     1     -57.681 -37.795   6.588 -0.33 +0.00    +0.004 A  
DOCKED: ATOM      4  C   UNL     1     -57.734 -39.098   6.113 -0.41 +0.00    +0.006 A  
DOCKED: ATOM      5  C   UNL     1     -57.156 -40.022   7.115 -0.20 +0.00    +0.169 C  
DOCKED: ATOM      6  C   UNL     1     -58.185 -36.743   5.837 -0.32 -0.00    -0.001 A  
DOCKED: ATOM      7  C   UNL     1     -58.284 -39.393   4.877 -0.46 +0.00    +0.008 A  
DOCKED: ATOM      8  C   UNL     1     -58.739 -37.023   4.587 +0.06 +0.00    +0.010 A  
DOCKED: ATOM      9  C   UNL     1     -58.789 -38.342   4.110 -0.39 +0.00    +0.068 A  
DOCKED: ATOM     10  N   UNL     1     -59.828 -38.828   1.787 -2.78 -0.00    -0.191 NA 
DOCKED: ATOM     11  C   UNL     1     -59.361 -38.610   2.828 -0.44 +0.00    +0.101 C  
DOCKED: ENDROOT
DOCKED: BRANCH   2  12
DOCKED: ATOM     12  C   UNL     1     -58.016 -37.385   9.053 -0.14 +0.00    +0.038 C  
DOCKED: BRANCH  12  13
DOCKED: ATOM     13  C   UNL     1     -57.277 -37.013  10.338 -0.09 +0.00    +0.038 C  
DOCKED: BRANCH  13  14
DOCKED: ATOM     14  C   UNL     1     -56.525 -38.215  10.907 -0.09 +0.00    +0.251 C  
DOCKED: BRANCH  14  15
DOCKED: ATOM     15  N   UNL     1     -56.612 -38.225  12.362 -0.07 +0.00    +0.141 N  
DOCKED: ATOM     16  C   UNL     1     -56.247 -36.917  12.909 -0.01 +0.00    +0.285 C  
DOCKED: ATOM     17  C   UNL     1     -57.959 -38.599  12.796 -0.04 +0.00    +0.285 C  
DOCKED: ENDBRANCH  14  15
DOCKED: ENDBRANCH  13  14
DOCKED: ENDBRANCH  12  13
DOCKED: ENDBRANCH   2  12
DOCKED: BRANCH   2  18
DOCKED: ATOM     18  C   UNL     1     -55.805 -36.948   7.998 -0.19 +0.00    +0.006 A  
DOCKED: ATOM     19  C   UNL     1     -54.594 -37.526   8.375 -0.15 +0.00    +0.001 A  
DOCKED: ATOM     20  C   UNL     1     -53.436 -36.749   8.423 -0.15 +0.00    +0.029 A  
DOCKED: ATOM     21  C   UNL     1     -53.491 -35.395   8.093 -0.09 +0.00    +0.140 A  
DOCKED: ATOM     22  C   UNL     1     -54.703 -34.818   7.715 -0.11 +0.00    +0.029 A  
DOCKED: ATOM     23  F   UNL     1     -52.379 -34.649   8.137 -0.01 -0.00    -0.204 F  
DOCKED: ATOM     24  C   UNL     1     -55.862 -35.594   7.668 -0.15 +0.00    +0.001 A  
DOCKED: ENDBRANCH   2  18
DOCKED: TORSDOF 5
DOCKED: TER
DOCKED: ENDMDL
________________________________________________________________________________


    FINAL DOCKED STATE:
    ________________________


Run:   227 / 512
Time taken for this run:   0.002s

DOCKED: MODEL        227
DOCKED: USER    Run = 227
DOCKED: USER
DOCKED: USER    Estimated Free Energy of Binding    =  -4.22 kcal/mol  [=(1)+(2)+(3)-(4)]
DOCKED: USER
DOCKED: USER    (1) Final Intermolecular Energy     =  -5.71 kcal/mol
DOCKED: USER        vdW + Hbond + desolv Energy     =  -5.71 kcal/mol
DOCKED: USER        Electrostatic Energy            =  +0.00 kcal/mol
DOCKED: USER        Moving Ligand-Fixed Receptor    =  -5.71 kcal/mol
DOCKED: USER        Moving Ligand-Moving Receptor   =  +0.00 kcal/mol
DOCKED: USER    (2) Final Total Internal Energy     =  -1.12 kcal/mol
DOCKED: USER    (3) Torsional Free Energy           =  +1.49 kcal/mol
DOCKED: USER    (4) Unbound System's Energy         =  -1.12 kcal/mol
DOCKED: USER
DOCKED: USER
DOCKED: REMARK  5 active torsions:
DOCKED: REMARK  status: ('A' for Active; 'I' for Inactive)
DOCKED: REMARK    1  A    between atoms: C_2  and  C_19 
DOCKED: REMARK    2  A    between atoms: C_2  and  C_11 
DOCKED: REMARK    3  A    between atoms: C_19  and  C_20 
DOCKED: REMARK    4  A    between atoms: C_20  and  C_21 
DOCKED: REMARK    5  A    between atoms: C_21  and  N_22 
DOCKED: USER                              x       y       z     vdW  Elec       q    Type
DOCKED: USER                           _______ _______ _______ _____ _____    ______ ____
DOCKED: ROOT
DOCKED: ATOM      1  O   UNL     1     -56.529 -34.039   7.401 -0.05 -0.00    -0.346 OA 
DOCKED: ATOM      2  C   UNL     1     -55.811 -35.158   8.012 -0.12 +0.00    +0.130 C  
DOCKED: ATOM      3  C   UNL     1     -56.568 -36.368   7.547 -0.20 +0.00    +0.004 A  
DOCKED: ATOM      4  C   UNL     1     -57.563 -35.984   6.660 -0.27 +0.00    +0.006 A  
DOCKED: ATOM      5  C   UNL     1     -57.527 -34.517   6.469 -0.18 +0.00    +0.169 C  
DOCKED: ATOM      6  C   UNL     1     -56.383 -37.703   7.875 -0.26 -0.00    -0.001 A  
DOCKED: ATOM      7  C   UNL     1     -58.406 -36.914   6.076 -0.33 +0.00    +0.008 A  
DOCKED: ATOM      8  C   UNL     1     -57.228 -38.653   7.298 -0.35 +0.00    +0.010 A  
DOCKED: ATOM      9  C   UNL     1     -58.234 -38.260   6.403 -0.31 +0.00    +0.068 A  
DOCKED: ATOM     10  N   UNL     1     -59.782 -40.049   5.345 -2.56 -0.00    -0.191 NA 
DOCKED: ATOM     11  C   UNL     1     -59.088 -39.246   5.820 -0.36 +0.00    +0.101 C  
DOCKED: ENDROOT
DOCKED: BRANCH   2  12
DOCKED: ATOM     12  C   UNL     1     -54.369 -35.133   7.517 -0.07 +0.00    +0.038 C  
DOCKED: BRANCH  12  13
DOCKED: ATOM     13  C   UNL     1     -53.425 -35.791   8.522 -0.13 +0.00    +0.038 C  
DOCKED: BRANCH  13  14
DOCKED: ATOM     14  C   UNL     1     -52.927 -37.140   8.007 -0.09 +0.00    +0.251 C  
DOCKED: BRANCH  14  15
DOCKED: ATOM     15  N   UNL     1     -52.252 -37.872   9.072 -0.13 +0.00    +0.141 N  
DOCKED: ATOM     16  C   UNL     1     -53.097 -37.944  10.265 -0.05 +0.00    +0.285 C  
DOCKED: ATOM     17  C   UNL     1     -51.890 -39.217   8.624 -0.11 +0.00    +0.285 C  
DOCKED: ENDBRANCH  14  15
DOCKED: ENDBRANCH  13  14
DOCKED: ENDBRANCH  12  13
DOCKED: ENDBRANCH   2  12
DOCKED: BRANCH   2  18
DOCKED: ATOM     18  C   UNL     1     -55.876 -34.963   9.490 -0.05 +0.00    +0.006 A  
DOCKED: ATOM     19  C   UNL     1     -56.369 -35.980  10.306 -0.05 +0.00    +0.001 A  
DOCKED: ATOM     20  C   UNL     1     -56.430 -35.797  11.688 -0.02 +0.00    +0.029 A  
DOCKED: ATOM     21  C   UNL     1     -55.997 -34.597  12.252 -0.00 +0.00    +0.140 A  
DOCKED: ATOM     22  C   UNL     1     -55.504 -33.580  11.435 -0.00 +0.00    +0.029 A  
DOCKED: ATOM     23  F   UNL     1     -56.054 -34.422  13.578 +0.00 -0.00    -0.204 F  
DOCKED: ATOM     24  C   UNL     1     -55.443 -33.762  10.052 -0.02 +0.00    +0.001 A  
DOCKED: ENDBRANCH   2  18
DOCKED: TORSDOF 5
DOCKED: TER
DOCKED: ENDMDL
________________________________________________________________________________


    FINAL DOCKED STATE:
    ________________________


Run:   228 / 512
Time taken for this run:   0.002s

DOCKED: MODEL        228
DOCKED: USER    Run = 228
DOCKED: USER
DOCKED: USER    Estimated Free Energy of Binding    =  -3.46 kcal/mol  [=(1)+(2)+(3)-(4)]
DOCKED: USER
DOCKED: USER    (1) Final Intermolecular Energy     =  -4.95 kcal/mol
DOCKED: USER        vdW + Hbond + desolv Energy     =  -4.95 kcal/mol
DOCKED: USER        Electrostatic Energy            =  +0.00 kcal/mol
DOCKED: USER        Moving Ligand-Fixed Receptor    =  -4.95 kcal/mol
DOCKED: USER        Moving Ligand-Moving Receptor   =  +0.00 kcal/mol
DOCKED: USER    (2) Final Total Internal Energy     =  -1.24 kcal/mol
DOCKED: USER    (3) Torsional Free Energy           =  +1.49 kcal/mol
DOCKED: USER    (4) Unbound System's Energy         =  -1.24 kcal/mol
DOCKED: USER
DOCKED: USER
DOCKED: REMARK  5 active torsions:
DOCKED: REMARK  status: ('A' for Active; 'I' for Inactive)
DOCKED: REMARK    1  A    between atoms: C_2  and  C_19 
DOCKED: REMARK    2  A    between atoms: C_2  and  C_11 
DOCKED: REMARK    3  A    between atoms: C_19  and  C_20 
DOCKED: REMARK    4  A    between atoms: C_20  and  C_21 
DOCKED: REMARK    5  A    between atoms: C_21  and  N_22 
DOCKED: USER                              x       y       z     vdW  Elec       q    Type
DOCKED: USER                           _______ _______ _______ _____ _____    ______ ____
DOCKED: ROOT
DOCKED: ATOM      1  O   UNL     1     -52.605 -34.710   0.278 -0.02 -0.00    -0.346 OA 
DOCKED: ATOM      2  C   UNL     1     -51.459 -35.474  -0.216 -0.12 +0.00    +0.130 C  
DOCKED: ATOM      3  C   UNL     1     -51.455 -36.709   0.639 -0.15 +0.00    +0.004 A  
DOCKED: ATOM      4  C   UNL     1     -52.564 -36.704   1.472 -0.29 +0.00    +0.006 A  
DOCKED: ATOM      5  C   UNL     1     -53.375 -35.491   1.222 -0.26 +0.00    +0.169 C  
DOCKED: ATOM      6  C   UNL     1     -50.547 -37.758   0.668 -0.12 -0.00    -0.001 A  
DOCKED: ATOM      7  C   UNL     1     -52.803 -37.738   2.361 -0.28 +0.00    +0.008 A  
DOCKED: ATOM      8  C   UNL     1     -50.771 -38.806   1.562 -0.20 +0.00    +0.010 A  
DOCKED: ATOM      9  C   UNL     1     -51.894 -38.796   2.404 -0.31 +0.00    +0.068 A  
DOCKED: ATOM     10  N   UNL     1     -52.282 -40.760   4.048 -2.62 -0.00    -0.191 NA 
DOCKED: ATOM     11  C   UNL     1     -52.108 -39.879   3.311 -0.36 +0.00    +0.101 C  
DOCKED: ENDROOT
DOCKED: BRANCH   2  12
DOCKED: ATOM     12  C   UNL     1     -51.680 -35.776  -1.693 +0.05 +0.00    +0.038 C  
DOCKED: BRANCH  12  13
DOCKED: ATOM     13  C   UNL     1     -50.607 -36.717  -2.236 -0.12 +0.00    +0.038 C  
DOCKED: BRANCH  13  14
DOCKED: ATOM     14  C   UNL     1     -49.687 -35.993  -3.218 -0.05 +0.00    +0.251 C  
DOCKED: BRANCH  14  15
DOCKED: ATOM     15  N   UNL     1     -48.381 -36.639  -3.260 -0.01 +0.00    +0.141 N  
DOCKED: ATOM     16  C   UNL     1     -47.310 -35.643  -3.203 +0.00 +0.00    +0.285 C  
DOCKED: ATOM     17  C   UNL     1     -48.243 -37.596  -2.160 -0.01 +0.00    +0.285 C  
DOCKED: ENDBRANCH  14  15
DOCKED: ENDBRANCH  13  14
DOCKED: ENDBRANCH  12  13
DOCKED: ENDBRANCH   2  12
DOCKED: BRANCH   2  18
DOCKED: ATOM     18  C   UNL     1     -50.249 -34.624  -0.015 -0.04 +0.00    +0.006 A  
DOCKED: ATOM     19  C   UNL     1     -49.222 -35.061   0.820 -0.02 +0.00    +0.001 A  
DOCKED: ATOM     20  C   UNL     1     -48.091 -34.264   1.007 -0.00 +0.00    +0.029 A  
DOCKED: ATOM     21  C   UNL     1     -47.989 -33.035   0.359 -0.00 +0.00    +0.140 A  
DOCKED: ATOM     22  C   UNL     1     -49.017 -32.599  -0.477 -0.00 +0.00    +0.029 A  
DOCKED: ATOM     23  F   UNL     1     -46.903 -32.272   0.537 +0.00 -0.00    -0.204 F  
DOCKED: ATOM     24  C   UNL     1     -50.148 -33.395  -0.665 -0.01 +0.00    +0.001 A  
DOCKED: ENDBRANCH   2  18
DOCKED: TORSDOF 5
DOCKED: TER
DOCKED: ENDMDL
________________________________________________________________________________


    FINAL DOCKED STATE:
    ________________________


Run:   229 / 512
Time taken for this run:   0.002s

DOCKED: MODEL        229
DOCKED: USER    Run = 229
DOCKED: USER
DOCKED: USER    Estimated Free Energy of Binding    =  -3.97 kcal/mol  [=(1)+(2)+(3)-(4)]
DOCKED: USER
DOCKED: USER    (1) Final Intermolecular Energy     =  -5.47 kcal/mol
DOCKED: USER        vdW + Hbond + desolv Energy     =  -5.47 kcal/mol
DOCKED: USER        Electrostatic Energy            =  +0.00 kcal/mol
DOCKED: USER        Moving Ligand-Fixed Receptor    =  -5.47 kcal/mol
DOCKED: USER        Moving Ligand-Moving Receptor   =  +0.00 kcal/mol
DOCKED: USER    (2) Final Total Internal Energy     =  -1.31 kcal/mol
DOCKED: USER    (3) Torsional Free Energy           =  +1.49 kcal/mol
DOCKED: USER    (4) Unbound System's Energy         =  -1.31 kcal/mol
DOCKED: USER
DOCKED: USER
DOCKED: REMARK  5 active torsions:
DOCKED: REMARK  status: ('A' for Active; 'I' for Inactive)
DOCKED: REMARK    1  A    between atoms: C_2  and  C_19 
DOCKED: REMARK    2  A    between atoms: C_2  and  C_11 
DOCKED: REMARK    3  A    between atoms: C_19  and  C_20 
DOCKED: REMARK    4  A    between atoms: C_20  and  C_21 
DOCKED: REMARK    5  A    between atoms: C_21  and  N_22 
DOCKED: USER                              x       y       z     vdW  Elec       q    Type
DOCKED: USER                           _______ _______ _______ _____ _____    ______ ____
DOCKED: ROOT
DOCKED: ATOM      1  O   UNL     1     -56.291 -34.815   8.338 -0.03 -0.00    -0.346 OA 
DOCKED: ATOM      2  C   UNL     1     -57.730 -34.552   8.302 -0.08 +0.00    +0.130 C  
DOCKED: ATOM      3  C   UNL     1     -58.298 -35.753   7.603 -0.17 +0.00    +0.004 A  
DOCKED: ATOM      4  C   UNL     1     -57.287 -36.673   7.359 -0.24 +0.00    +0.006 A  
DOCKED: ATOM      5  C   UNL     1     -56.002 -36.158   7.884 -0.14 +0.00    +0.169 C  
DOCKED: ATOM      6  C   UNL     1     -59.606 -36.016   7.223 -0.20 -0.00    -0.001 A  
DOCKED: ATOM      7  C   UNL     1     -57.546 -37.877   6.728 -0.32 +0.00    +0.008 A  
DOCKED: ATOM      8  C   UNL     1     -59.882 -37.224   6.581 -0.24 +0.00    +0.010 A  
DOCKED: ATOM      9  C   UNL     1     -58.857 -38.150   6.335 -0.28 +0.00    +0.068 A  
DOCKED: ATOM     10  N   UNL     1     -59.405 -40.386   5.147 -2.49 -0.00    -0.191 NA 
DOCKED: ATOM     11  C   UNL     1     -59.159 -39.383   5.679 -0.33 +0.00    +0.101 C  
DOCKED: ENDROOT
DOCKED: BRANCH   2  12
DOCKED: ATOM     12  C   UNL     1     -58.230 -34.408   9.734 -0.03 +0.00    +0.038 C  
DOCKED: BRANCH  12  13
DOCKED: ATOM     13  C   UNL     1     -58.812 -35.720  10.256 -0.04 +0.00    +0.038 C  
DOCKED: BRANCH  13  14
DOCKED: ATOM     14  C   UNL     1     -57.729 -36.581  10.904 -0.02 +0.00    +0.251 C  
DOCKED: BRANCH  14  15
DOCKED: ATOM     15  N   UNL     1     -58.294 -37.845  11.364 -0.05 +0.00    +0.141 N  
DOCKED: ATOM     16  C   UNL     1     -58.984 -38.530  10.270 -0.08 +0.00    +0.285 C  
DOCKED: ATOM     17  C   UNL     1     -57.248 -38.704  11.922 -0.09 +0.00    +0.285 C  
DOCKED: ENDBRANCH  14  15
DOCKED: ENDBRANCH  13  14
DOCKED: ENDBRANCH  12  13
DOCKED: ENDBRANCH   2  12
DOCKED: BRANCH   2  18
DOCKED: ATOM     18  C   UNL     1     -57.923 -33.287   7.534 -0.12 +0.00    +0.006 A  
DOCKED: ATOM     19  C   UNL     1     -58.939 -32.402   7.894 -0.08 +0.00    +0.001 A  
DOCKED: ATOM     20  C   UNL     1     -59.118 -31.219   7.175 -0.09 +0.00    +0.029 A  
DOCKED: ATOM     21  C   UNL     1     -58.282 -30.924   6.099 -0.10 +0.00    +0.140 A  
DOCKED: ATOM     22  C   UNL     1     -57.266 -31.809   5.740 -0.09 +0.00    +0.029 A  
DOCKED: ATOM     23  F   UNL     1     -58.454 -29.788   5.410 -0.01 -0.00    -0.204 F  
DOCKED: ATOM     24  C   UNL     1     -57.086 -32.992   6.458 -0.14 +0.00    +0.001 A  
DOCKED: ENDBRANCH   2  18
DOCKED: TORSDOF 5
DOCKED: TER
DOCKED: ENDMDL
________________________________________________________________________________


    FINAL DOCKED STATE:
    ________________________


Run:   230 / 512
Time taken for this run:   0.002s

DOCKED: MODEL        230
DOCKED: USER    Run = 230
DOCKED: USER
DOCKED: USER    Estimated Free Energy of Binding    =  -4.09 kcal/mol  [=(1)+(2)+(3)-(4)]
DOCKED: USER
DOCKED: USER    (1) Final Intermolecular Energy     =  -5.59 kcal/mol
DOCKED: USER        vdW + Hbond + desolv Energy     =  -5.59 kcal/mol
DOCKED: USER        Electrostatic Energy            =  +0.00 kcal/mol
DOCKED: USER        Moving Ligand-Fixed Receptor    =  -5.59 kcal/mol
DOCKED: USER        Moving Ligand-Moving Receptor   =  +0.00 kcal/mol
DOCKED: USER    (2) Final Total Internal Energy     =  -1.20 kcal/mol
DOCKED: USER    (3) Torsional Free Energy           =  +1.49 kcal/mol
DOCKED: USER    (4) Unbound System's Energy         =  -1.20 kcal/mol
DOCKED: USER
DOCKED: USER
DOCKED: REMARK  5 active torsions:
DOCKED: REMARK  status: ('A' for Active; 'I' for Inactive)
DOCKED: REMARK    1  A    between atoms: C_2  and  C_19 
DOCKED: REMARK    2  A    between atoms: C_2  and  C_11 
DOCKED: REMARK    3  A    between atoms: C_19  and  C_20 
DOCKED: REMARK    4  A    between atoms: C_20  and  C_21 
DOCKED: REMARK    5  A    between atoms: C_21  and  N_22 
DOCKED: USER                              x       y       z     vdW  Elec       q    Type
DOCKED: USER                           _______ _______ _______ _____ _____    ______ ____
DOCKED: ROOT
DOCKED: ATOM      1  O   UNL     1     -52.685 -29.151   0.354 -0.06 -0.00    -0.346 OA 
DOCKED: ATOM      2  C   UNL     1     -53.986 -29.815   0.449 -0.15 +0.00    +0.130 C  
DOCKED: ATOM      3  C   UNL     1     -54.773 -29.227  -0.687 -0.23 +0.00    +0.004 A  
DOCKED: ATOM      4  C   UNL     1     -53.960 -28.384  -1.431 -0.16 +0.00    +0.006 A  
DOCKED: ATOM      5  C   UNL     1     -52.596 -28.366  -0.857 -0.12 +0.00    +0.169 C  
DOCKED: ATOM      6  C   UNL     1     -56.099 -29.431  -1.039 -0.13 -0.00    -0.001 A  
DOCKED: ATOM      7  C   UNL     1     -54.442 -27.716  -2.544 -0.27 +0.00    +0.008 A  
DOCKED: ATOM      8  C   UNL     1     -56.601 -28.761  -2.156 -0.12 +0.00    +0.010 A  
DOCKED: ATOM      9  C   UNL     1     -55.776 -27.908  -2.905 -0.35 +0.00    +0.068 A  
DOCKED: ATOM     10  N   UNL     1     -56.738 -26.684  -4.976 -2.08 -0.00    -0.191 NA 
DOCKED: ATOM     11  C   UNL     1     -56.307 -27.233  -4.047 -0.42 +0.00    +0.101 C  
DOCKED: ENDROOT
DOCKED: BRANCH   2  12
DOCKED: ATOM     12  C   UNL     1     -53.772 -31.318   0.307 -0.12 +0.00    +0.038 C  
DOCKED: BRANCH  12  13
DOCKED: ATOM     13  C   UNL     1     -53.059 -31.658  -1.001 -0.12 +0.00    +0.038 C  
DOCKED: BRANCH  13  14
DOCKED: ATOM     14  C   UNL     1     -53.710 -32.858  -1.685 -0.12 +0.00    +0.251 C  
DOCKED: BRANCH  14  15
DOCKED: ATOM     15  N   UNL     1     -53.685 -32.692  -3.133 -0.23 +0.00    +0.141 N  
DOCKED: ATOM     16  C   UNL     1     -52.687 -31.694  -3.521 -0.11 +0.00    +0.285 C  
DOCKED: ATOM     17  C   UNL     1     -53.409 -33.968  -3.795 -0.20 +0.00    +0.285 C  
DOCKED: ENDBRANCH  14  15
DOCKED: ENDBRANCH  13  14
DOCKED: ENDBRANCH  12  13
DOCKED: ENDBRANCH   2  12
DOCKED: BRANCH   2  18
DOCKED: ATOM     18  C   UNL     1     -54.553 -29.476   1.787 -0.18 +0.00    +0.006 A  
DOCKED: ATOM     19  C   UNL     1     -55.611 -30.222   2.304 -0.17 +0.00    +0.001 A  
DOCKED: ATOM     20  C   UNL     1     -56.141 -29.904   3.555 -0.13 +0.00    +0.029 A  
DOCKED: ATOM     21  C   UNL     1     -55.612 -28.841   4.287 -0.11 +0.00    +0.140 A  
DOCKED: ATOM     22  C   UNL     1     -54.553 -28.096   3.768 -0.08 +0.00    +0.029 A  
DOCKED: ATOM     23  F   UNL     1     -56.119 -28.537   5.488 -0.01 -0.00    -0.204 F  
DOCKED: ATOM     24  C   UNL     1     -54.023 -28.413   2.517 +0.08 +0.00    +0.001 A  
DOCKED: ENDBRANCH   2  18
DOCKED: TORSDOF 5
DOCKED: TER
DOCKED: ENDMDL
________________________________________________________________________________


    FINAL DOCKED STATE:
    ________________________


Run:   231 / 512
Time taken for this run:   0.002s

DOCKED: MODEL        231
DOCKED: USER    Run = 231
DOCKED: USER
DOCKED: USER    Estimated Free Energy of Binding    =  -4.60 kcal/mol  [=(1)+(2)+(3)-(4)]
DOCKED: USER
DOCKED: USER    (1) Final Intermolecular Energy     =  -6.09 kcal/mol
DOCKED: USER        vdW + Hbond + desolv Energy     =  -6.09 kcal/mol
DOCKED: USER        Electrostatic Energy            =  +0.00 kcal/mol
DOCKED: USER        Moving Ligand-Fixed Receptor    =  -6.09 kcal/mol
DOCKED: USER        Moving Ligand-Moving Receptor   =  +0.00 kcal/mol
DOCKED: USER    (2) Final Total Internal Energy     =  -1.46 kcal/mol
DOCKED: USER    (3) Torsional Free Energy           =  +1.49 kcal/mol
DOCKED: USER    (4) Unbound System's Energy         =  -1.46 kcal/mol
DOCKED: USER
DOCKED: USER
DOCKED: REMARK  5 active torsions:
DOCKED: REMARK  status: ('A' for Active; 'I' for Inactive)
DOCKED: REMARK    1  A    between atoms: C_2  and  C_19 
DOCKED: REMARK    2  A    between atoms: C_2  and  C_11 
DOCKED: REMARK    3  A    between atoms: C_19  and  C_20 
DOCKED: REMARK    4  A    between atoms: C_20  and  C_21 
DOCKED: REMARK    5  A    between atoms: C_21  and  N_22 
DOCKED: USER                              x       y       z     vdW  Elec       q    Type
DOCKED: USER                           _______ _______ _______ _____ _____    ______ ____
DOCKED: ROOT
DOCKED: ATOM      1  O   UNL     1     -52.922 -30.054  -0.230 -0.02 -0.00    -0.346 OA 
DOCKED: ATOM      2  C   UNL     1     -54.329 -30.165   0.158 -0.16 +0.00    +0.130 C  
DOCKED: ATOM      3  C   UNL     1     -55.059 -29.412  -0.916 -0.28 +0.00    +0.004 A  
DOCKED: ATOM      4  C   UNL     1     -54.161 -29.001  -1.891 -0.23 +0.00    +0.006 A  
DOCKED: ATOM      5  C   UNL     1     -52.797 -29.458  -1.543 -0.09 +0.00    +0.169 C  
DOCKED: ATOM      6  C   UNL     1     -56.411 -29.123  -1.027 -0.20 -0.00    -0.001 A  
DOCKED: ATOM      7  C   UNL     1     -54.579 -28.289  -3.002 -0.28 +0.00    +0.008 A  
DOCKED: ATOM      8  C   UNL     1     -56.848 -28.402  -2.140 -0.35 +0.00    +0.010 A  
DOCKED: ATOM      9  C   UNL     1     -55.936 -27.987  -3.122 -0.29 +0.00    +0.068 A  
DOCKED: ATOM     10  N   UNL     1     -56.782 -26.654  -5.177 -2.43 -0.00    -0.191 NA 
DOCKED: ATOM     11  C   UNL     1     -56.402 -27.252  -4.255 -0.39 +0.00    +0.101 C  
DOCKED: ENDROOT
DOCKED: BRANCH   2  12
DOCKED: ATOM     12  C   UNL     1     -54.701 -31.642   0.205 -0.21 +0.00    +0.038 C  
DOCKED: BRANCH  12  13
DOCKED: ATOM     13  C   UNL     1     -53.466 -32.532   0.087 -0.14 +0.00    +0.038 C  
DOCKED: BRANCH  13  14
DOCKED: ATOM     14  C   UNL     1     -52.755 -32.667   1.433 -0.04 +0.00    +0.251 C  
DOCKED: BRANCH  14  15
DOCKED: ATOM     15  N   UNL     1     -51.309 -32.620   1.250 -0.01 +0.00    +0.141 N  
DOCKED: ATOM     16  C   UNL     1     -50.967 -32.683  -0.172 -0.01 +0.00    +0.285 C  
DOCKED: ATOM     17  C   UNL     1     -50.752 -31.409   1.853 -0.00 +0.00    +0.285 C  
DOCKED: ENDBRANCH  14  15
DOCKED: ENDBRANCH  13  14
DOCKED: ENDBRANCH  12  13
DOCKED: ENDBRANCH   2  12
DOCKED: BRANCH   2  18
DOCKED: ATOM     18  C   UNL     1     -54.461 -29.533   1.504 -0.18 +0.00    +0.006 A  
DOCKED: ATOM     19  C   UNL     1     -55.721 -29.376   2.079 -0.23 +0.00    +0.001 A  
DOCKED: ATOM     20  C   UNL     1     -55.843 -28.785   3.337 -0.19 +0.00    +0.029 A  
DOCKED: ATOM     21  C   UNL     1     -54.706 -28.352   4.017 -0.12 +0.00    +0.140 A  
DOCKED: ATOM     22  C   UNL     1     -53.446 -28.509   3.441 -0.06 +0.00    +0.029 A  
DOCKED: ATOM     23  F   UNL     1     -54.824 -27.786   5.226 -0.04 -0.00    -0.204 F  
DOCKED: ATOM     24  C   UNL     1     -53.323 -29.100   2.183 -0.14 +0.00    +0.001 A  
DOCKED: ENDBRANCH   2  18
DOCKED: TORSDOF 5
DOCKED: TER
DOCKED: ENDMDL
________________________________________________________________________________


    FINAL DOCKED STATE:
    ________________________


Run:   232 / 512
Time taken for this run:   0.002s

DOCKED: MODEL        232
DOCKED: USER    Run = 232
DOCKED: USER
DOCKED: USER    Estimated Free Energy of Binding    =  -4.14 kcal/mol  [=(1)+(2)+(3)-(4)]
DOCKED: USER
DOCKED: USER    (1) Final Intermolecular Energy     =  -5.63 kcal/mol
DOCKED: USER        vdW + Hbond + desolv Energy     =  -5.63 kcal/mol
DOCKED: USER        Electrostatic Energy            =  +0.00 kcal/mol
DOCKED: USER        Moving Ligand-Fixed Receptor    =  -5.63 kcal/mol
DOCKED: USER        Moving Ligand-Moving Receptor   =  +0.00 kcal/mol
DOCKED: USER    (2) Final Total Internal Energy     =  -1.22 kcal/mol
DOCKED: USER    (3) Torsional Free Energy           =  +1.49 kcal/mol
DOCKED: USER    (4) Unbound System's Energy         =  -1.22 kcal/mol
DOCKED: USER
DOCKED: USER
DOCKED: REMARK  5 active torsions:
DOCKED: REMARK  status: ('A' for Active; 'I' for Inactive)
DOCKED: REMARK    1  A    between atoms: C_2  and  C_19 
DOCKED: REMARK    2  A    between atoms: C_2  and  C_11 
DOCKED: REMARK    3  A    between atoms: C_19  and  C_20 
DOCKED: REMARK    4  A    between atoms: C_20  and  C_21 
DOCKED: REMARK    5  A    between atoms: C_21  and  N_22 
DOCKED: USER                              x       y       z     vdW  Elec       q    Type
DOCKED: USER                           _______ _______ _______ _____ _____    ______ ____
DOCKED: ROOT
DOCKED: ATOM      1  O   UNL     1     -59.588 -33.598   7.636 -0.05 -0.00    -0.346 OA 
DOCKED: ATOM      2  C   UNL     1     -58.183 -33.982   7.494 -0.14 +0.00    +0.130 C  
DOCKED: ATOM      3  C   UNL     1     -58.246 -35.410   7.032 -0.23 +0.00    +0.004 A  
DOCKED: ATOM      4  C   UNL     1     -59.568 -35.775   6.822 -0.23 +0.00    +0.006 A  
DOCKED: ATOM      5  C   UNL     1     -60.458 -34.629   7.113 -0.19 +0.00    +0.169 C  
DOCKED: ATOM      6  C   UNL     1     -57.215 -36.309   6.806 -0.25 -0.00    -0.001 A  
DOCKED: ATOM      7  C   UNL     1     -59.904 -37.045   6.386 -0.25 +0.00    +0.008 A  
DOCKED: ATOM      8  C   UNL     1     -57.538 -37.595   6.369 -0.31 +0.00    +0.010 A  
DOCKED: ATOM      9  C   UNL     1     -58.876 -37.961   6.160 -0.29 +0.00    +0.068 A  
DOCKED: ATOM     10  N   UNL     1     -59.440 -40.354   5.345 -2.60 -0.00    -0.191 NA 
DOCKED: ATOM     11  C   UNL     1     -59.187 -39.281   5.711 -0.37 +0.00    +0.101 C  
DOCKED: ENDROOT
DOCKED: BRANCH   2  12
DOCKED: ATOM     12  C   UNL     1     -57.531 -33.057   6.473 -0.16 +0.00    +0.038 C  
DOCKED: BRANCH  12  13
DOCKED: ATOM     13  C   UNL     1     -56.121 -33.526   6.118 -0.17 +0.00    +0.038 C  
DOCKED: BRANCH  13  14
DOCKED: ATOM     14  C   UNL     1     -55.065 -32.644   6.780 -0.06 +0.00    +0.251 C  
DOCKED: BRANCH  14  15
DOCKED: ATOM     15  N   UNL     1     -53.900 -33.439   7.152 -0.06 +0.00    +0.141 N  
DOCKED: ATOM     16  C   UNL     1     -54.313 -34.723   7.720 -0.08 +0.00    +0.285 C  
DOCKED: ATOM     17  C   UNL     1     -53.031 -33.652   5.994 -0.07 +0.00    +0.285 C  
DOCKED: ENDBRANCH  14  15
DOCKED: ENDBRANCH  13  14
DOCKED: ENDBRANCH  12  13
DOCKED: ENDBRANCH   2  12
DOCKED: BRANCH   2  18
DOCKED: ATOM     18  C   UNL     1     -57.552 -33.833   8.837 -0.05 +0.00    +0.006 A  
DOCKED: ATOM     19  C   UNL     1     -57.187 -34.964   9.566 -0.04 +0.00    +0.001 A  
DOCKED: ATOM     20  C   UNL     1     -56.597 -34.823  10.822 -0.01 +0.00    +0.029 A  
DOCKED: ATOM     21  C   UNL     1     -56.372 -33.551  11.348 -0.00 +0.00    +0.140 A  
DOCKED: ATOM     22  C   UNL     1     -56.737 -32.420  10.619 -0.00 +0.00    +0.029 A  
DOCKED: ATOM     23  F   UNL     1     -55.804 -33.416  12.554 +0.00 -0.00    -0.204 F  
DOCKED: ATOM     24  C   UNL     1     -57.328 -32.560   9.362 -0.02 +0.00    +0.001 A  
DOCKED: ENDBRANCH   2  18
DOCKED: TORSDOF 5
DOCKED: TER
DOCKED: ENDMDL
________________________________________________________________________________


    FINAL DOCKED STATE:
    ________________________


Run:   233 / 512
Time taken for this run:   0.002s

DOCKED: MODEL        233
DOCKED: USER    Run = 233
DOCKED: USER
DOCKED: USER    Estimated Free Energy of Binding    =  -5.06 kcal/mol  [=(1)+(2)+(3)-(4)]
DOCKED: USER
DOCKED: USER    (1) Final Intermolecular Energy     =  -6.55 kcal/mol
DOCKED: USER        vdW + Hbond + desolv Energy     =  -6.55 kcal/mol
DOCKED: USER        Electrostatic Energy            =  +0.00 kcal/mol
DOCKED: USER        Moving Ligand-Fixed Receptor    =  -6.55 kcal/mol
DOCKED: USER        Moving Ligand-Moving Receptor   =  +0.00 kcal/mol
DOCKED: USER    (2) Final Total Internal Energy     =  -1.12 kcal/mol
DOCKED: USER    (3) Torsional Free Energy           =  +1.49 kcal/mol
DOCKED: USER    (4) Unbound System's Energy         =  -1.12 kcal/mol
DOCKED: USER
DOCKED: USER
DOCKED: REMARK  5 active torsions:
DOCKED: REMARK  status: ('A' for Active; 'I' for Inactive)
DOCKED: REMARK    1  A    between atoms: C_2  and  C_19 
DOCKED: REMARK    2  A    between atoms: C_2  and  C_11 
DOCKED: REMARK    3  A    between atoms: C_19  and  C_20 
DOCKED: REMARK    4  A    between atoms: C_20  and  C_21 
DOCKED: REMARK    5  A    between atoms: C_21  and  N_22 
DOCKED: USER                              x       y       z     vdW  Elec       q    Type
DOCKED: USER                           _______ _______ _______ _____ _____    ______ ____
DOCKED: ROOT
DOCKED: ATOM      1  O   UNL     1     -60.864 -37.049   8.504 -0.00 -0.00    -0.346 OA 
DOCKED: ATOM      2  C   UNL     1     -59.496 -36.687   8.134 -0.10 +0.00    +0.130 C  
DOCKED: ATOM      3  C   UNL     1     -59.372 -37.154   6.713 -0.25 +0.00    +0.004 A  
DOCKED: ATOM      4  C   UNL     1     -60.595 -37.639   6.272 -0.26 +0.00    +0.006 A  
DOCKED: ATOM      5  C   UNL     1     -61.602 -37.517   7.351 -0.15 +0.00    +0.169 C  
DOCKED: ATOM      6  C   UNL     1     -58.268 -37.140   5.873 -0.35 -0.00    -0.001 A  
DOCKED: ATOM      7  C   UNL     1     -60.756 -38.128   4.987 -0.32 +0.00    +0.008 A  
DOCKED: ATOM      8  C   UNL     1     -58.413 -37.633   4.575 -0.18 +0.00    +0.010 A  
DOCKED: ATOM      9  C   UNL     1     -59.651 -38.124   4.135 -0.33 +0.00    +0.068 A  
DOCKED: ATOM     10  N   UNL     1     -59.888 -39.028   1.718 -2.75 -0.00    -0.191 NA 
DOCKED: ATOM     11  C   UNL     1     -59.782 -38.623   2.802 -0.27 +0.00    +0.101 C  
DOCKED: ENDROOT
DOCKED: BRANCH   2  12
DOCKED: ATOM     12  C   UNL     1     -59.340 -35.178   8.279 -0.11 +0.00    +0.038 C  
DOCKED: BRANCH  12  13
DOCKED: ATOM     13  C   UNL     1     -60.123 -34.431   7.201 -0.23 +0.00    +0.038 C  
DOCKED: BRANCH  13  14
DOCKED: ATOM     14  C   UNL     1     -60.813 -33.197   7.779 -0.10 +0.00    +0.251 C  
DOCKED: BRANCH  14  15
DOCKED: ATOM     15  N   UNL     1     -62.238 -33.222   7.473 -0.13 +0.00    +0.141 N  
DOCKED: ATOM     16  C   UNL     1     -62.613 -32.060   6.666 -0.11 +0.00    +0.285 C  
DOCKED: ATOM     17  C   UNL     1     -62.594 -34.460   6.776 -0.13 +0.00    +0.285 C  
DOCKED: ENDBRANCH  14  15
DOCKED: ENDBRANCH  13  14
DOCKED: ENDBRANCH  12  13
DOCKED: ENDBRANCH   2  12
DOCKED: BRANCH   2  18
DOCKED: ATOM     18  C   UNL     1     -58.585 -37.414   9.066 -0.11 +0.00    +0.006 A  
DOCKED: ATOM     19  C   UNL     1     -59.109 -38.086  10.170 -0.12 +0.00    +0.001 A  
DOCKED: ATOM     20  C   UNL     1     -58.256 -38.765  11.041 -0.16 +0.00    +0.029 A  
DOCKED: ATOM     21  C   UNL     1     -56.882 -38.772  10.807 -0.10 +0.00    +0.140 A  
DOCKED: ATOM     22  C   UNL     1     -56.358 -38.100   9.703 -0.07 +0.00    +0.029 A  
DOCKED: ATOM     23  F   UNL     1     -56.064 -39.426  11.642 -0.06 -0.00    -0.204 F  
DOCKED: ATOM     24  C   UNL     1     -57.210 -37.420   8.831 -0.17 +0.00    +0.001 A  
DOCKED: ENDBRANCH   2  18
DOCKED: TORSDOF 5
DOCKED: TER
DOCKED: ENDMDL
________________________________________________________________________________


    FINAL DOCKED STATE:
    ________________________


Run:   234 / 512
Time taken for this run:   0.002s

DOCKED: MODEL        234
DOCKED: USER    Run = 234
DOCKED: USER
DOCKED: USER    Estimated Free Energy of Binding    =  -5.01 kcal/mol  [=(1)+(2)+(3)-(4)]
DOCKED: USER
DOCKED: USER    (1) Final Intermolecular Energy     =  -6.50 kcal/mol
DOCKED: USER        vdW + Hbond + desolv Energy     =  -6.50 kcal/mol
DOCKED: USER        Electrostatic Energy            =  +0.00 kcal/mol
DOCKED: USER        Moving Ligand-Fixed Receptor    =  -6.50 kcal/mol
DOCKED: USER        Moving Ligand-Moving Receptor   =  +0.00 kcal/mol
DOCKED: USER    (2) Final Total Internal Energy     =  -1.22 kcal/mol
DOCKED: USER    (3) Torsional Free Energy           =  +1.49 kcal/mol
DOCKED: USER    (4) Unbound System's Energy         =  -1.22 kcal/mol
DOCKED: USER
DOCKED: USER
DOCKED: REMARK  5 active torsions:
DOCKED: REMARK  status: ('A' for Active; 'I' for Inactive)
DOCKED: REMARK    1  A    between atoms: C_2  and  C_19 
DOCKED: REMARK    2  A    between atoms: C_2  and  C_11 
DOCKED: REMARK    3  A    between atoms: C_19  and  C_20 
DOCKED: REMARK    4  A    between atoms: C_20  and  C_21 
DOCKED: REMARK    5  A    between atoms: C_21  and  N_22 
DOCKED: USER                              x       y       z     vdW  Elec       q    Type
DOCKED: USER                           _______ _______ _______ _____ _____    ______ ____
DOCKED: ROOT
DOCKED: ATOM      1  O   UNL     1     -55.526 -30.186   0.778 -0.09 -0.00    -0.346 OA 
DOCKED: ATOM      2  C   UNL     1     -54.241 -30.005   0.101 -0.16 +0.00    +0.130 C  
DOCKED: ATOM      3  C   UNL     1     -54.600 -29.281  -1.165 -0.25 +0.00    +0.004 A  
DOCKED: ATOM      4  C   UNL     1     -55.954 -28.976  -1.160 -0.25 +0.00    +0.006 A  
DOCKED: ATOM      5  C   UNL     1     -56.573 -29.458   0.095 -0.20 +0.00    +0.169 C  
DOCKED: ATOM      6  C   UNL     1     -53.791 -28.911  -2.229 -0.20 -0.00    -0.001 A  
DOCKED: ATOM      7  C   UNL     1     -56.544 -28.300  -2.215 -0.35 +0.00    +0.008 A  
DOCKED: ATOM      8  C   UNL     1     -54.372 -28.233  -3.302 -0.27 +0.00    +0.010 A  
DOCKED: ATOM      9  C   UNL     1     -55.741 -27.929  -3.294 -0.29 +0.00    +0.068 A  
DOCKED: ATOM     10  N   UNL     1     -56.786 -26.663  -5.299 -2.48 -0.00    -0.191 NA 
DOCKED: ATOM     11  C   UNL     1     -56.318 -27.231  -4.400 -0.39 +0.00    +0.101 C  
DOCKED: ENDROOT
DOCKED: BRANCH   2  12
DOCKED: ATOM     12  C   UNL     1     -53.326 -29.192   1.010 -0.16 +0.00    +0.038 C  
DOCKED: BRANCH  12  13
DOCKED: ATOM     13  C   UNL     1     -53.436 -29.650   2.463 -0.13 +0.00    +0.038 C  
DOCKED: BRANCH  13  14
DOCKED: ATOM     14  C   UNL     1     -54.085 -28.573   3.331 -0.08 +0.00    +0.251 C  
DOCKED: BRANCH  14  15
DOCKED: ATOM     15  N   UNL     1     -55.448 -28.955   3.679 -0.12 +0.00    +0.141 N  
DOCKED: ATOM     16  C   UNL     1     -55.596 -29.074   5.131 -0.04 +0.00    +0.285 C  
DOCKED: ATOM     17  C   UNL     1     -56.407 -27.984   3.150 -0.17 +0.00    +0.285 C  
DOCKED: ENDBRANCH  14  15
DOCKED: ENDBRANCH  13  14
DOCKED: ENDBRANCH  12  13
DOCKED: ENDBRANCH   2  12
DOCKED: BRANCH   2  18
DOCKED: ATOM     18  C   UNL     1     -53.683 -31.366  -0.147 -0.12 +0.00    +0.006 A  
DOCKED: ATOM     19  C   UNL     1     -54.202 -32.467   0.535 -0.17 +0.00    +0.001 A  
DOCKED: ATOM     20  C   UNL     1     -53.679 -33.739   0.303 -0.20 +0.00    +0.029 A  
DOCKED: ATOM     21  C   UNL     1     -52.638 -33.910  -0.610 -0.14 +0.00    +0.140 A  
DOCKED: ATOM     22  C   UNL     1     -52.120 -32.809  -1.291 -0.08 +0.00    +0.029 A  
DOCKED: ATOM     23  F   UNL     1     -52.138 -35.132  -0.833 -0.06 -0.00    -0.204 F  
DOCKED: ATOM     24  C   UNL     1     -52.642 -31.535  -1.059 -0.08 +0.00    +0.001 A  
DOCKED: ENDBRANCH   2  18
DOCKED: TORSDOF 5
DOCKED: TER
DOCKED: ENDMDL
________________________________________________________________________________


    FINAL DOCKED STATE:
    ________________________


Run:   235 / 512
Time taken for this run:   0.002s

DOCKED: MODEL        235
DOCKED: USER    Run = 235
DOCKED: USER
DOCKED: USER    Estimated Free Energy of Binding    =  -4.29 kcal/mol  [=(1)+(2)+(3)-(4)]
DOCKED: USER
DOCKED: USER    (1) Final Intermolecular Energy     =  -5.78 kcal/mol
DOCKED: USER        vdW + Hbond + desolv Energy     =  -5.78 kcal/mol
DOCKED: USER        Electrostatic Energy            =  +0.00 kcal/mol
DOCKED: USER        Moving Ligand-Fixed Receptor    =  -5.78 kcal/mol
DOCKED: USER        Moving Ligand-Moving Receptor   =  +0.00 kcal/mol
DOCKED: USER    (2) Final Total Internal Energy     =  -1.30 kcal/mol
DOCKED: USER    (3) Torsional Free Energy           =  +1.49 kcal/mol
DOCKED: USER    (4) Unbound System's Energy         =  -1.30 kcal/mol
DOCKED: USER
DOCKED: USER
DOCKED: REMARK  5 active torsions:
DOCKED: REMARK  status: ('A' for Active; 'I' for Inactive)
DOCKED: REMARK    1  A    between atoms: C_2  and  C_19 
DOCKED: REMARK    2  A    between atoms: C_2  and  C_11 
DOCKED: REMARK    3  A    between atoms: C_19  and  C_20 
DOCKED: REMARK    4  A    between atoms: C_20  and  C_21 
DOCKED: REMARK    5  A    between atoms: C_21  and  N_22 
DOCKED: USER                              x       y       z     vdW  Elec       q    Type
DOCKED: USER                           _______ _______ _______ _____ _____    ______ ____
DOCKED: ROOT
DOCKED: ATOM      1  O   UNL     1     -54.946 -35.909   8.487 -0.07 -0.00    -0.346 OA 
DOCKED: ATOM      2  C   UNL     1     -55.962 -35.039   7.893 -0.13 +0.00    +0.130 C  
DOCKED: ATOM      3  C   UNL     1     -56.917 -35.996   7.241 -0.22 +0.00    +0.004 A  
DOCKED: ATOM      4  C   UNL     1     -56.542 -37.300   7.530 -0.23 +0.00    +0.006 A  
DOCKED: ATOM      5  C   UNL     1     -55.339 -37.298   8.392 -0.18 +0.00    +0.169 C  
DOCKED: ATOM      6  C   UNL     1     -58.035 -35.733   6.463 -0.28 -0.00    -0.001 A  
DOCKED: ATOM      7  C   UNL     1     -57.264 -38.381   7.052 -0.34 +0.00    +0.008 A  
DOCKED: ATOM      8  C   UNL     1     -58.771 -36.812   5.970 -0.31 +0.00    +0.010 A  
DOCKED: ATOM      9  C   UNL     1     -58.388 -38.129   6.264 -0.31 +0.00    +0.068 A  
DOCKED: ATOM     10  N   UNL     1     -59.779 -40.108   5.336 -2.55 -0.00    -0.191 NA 
DOCKED: ATOM     11  C   UNL     1     -59.154 -39.220   5.752 -0.37 +0.00    +0.101 C  
DOCKED: ENDROOT
DOCKED: BRANCH   2  12
DOCKED: ATOM     12  C   UNL     1     -56.608 -34.222   9.006 -0.05 +0.00    +0.038 C  
DOCKED: BRANCH  12  13
DOCKED: ATOM     13  C   UNL     1     -57.736 -34.997   9.684 -0.04 +0.00    +0.038 C  
DOCKED: BRANCH  13  14
DOCKED: ATOM     14  C   UNL     1     -57.680 -34.833  11.201 -0.00 +0.00    +0.251 C  
DOCKED: BRANCH  14  15
DOCKED: ATOM     15  N   UNL     1     -57.742 -36.134  11.855 -0.01 +0.00    +0.141 N  
DOCKED: ATOM     16  C   UNL     1     -58.411 -37.112  10.995 -0.02 +0.00    +0.285 C  
DOCKED: ATOM     17  C   UNL     1     -56.400 -36.600  12.205 -0.01 +0.00    +0.285 C  
DOCKED: ENDBRANCH  14  15
DOCKED: ENDBRANCH  13  14
DOCKED: ENDBRANCH  12  13
DOCKED: ENDBRANCH   2  12
DOCKED: BRANCH   2  18
DOCKED: ATOM     18  C   UNL     1     -55.262 -34.157   6.914 -0.14 +0.00    +0.006 A  
DOCKED: ATOM     19  C   UNL     1     -55.949 -33.104   6.311 -0.14 +0.00    +0.001 A  
DOCKED: ATOM     20  C   UNL     1     -55.294 -32.280   5.395 -0.11 +0.00    +0.029 A  
DOCKED: ATOM     21  C   UNL     1     -53.954 -32.510   5.083 -0.07 +0.00    +0.140 A  
DOCKED: ATOM     22  C   UNL     1     -53.269 -33.564   5.687 -0.10 +0.00    +0.029 A  
DOCKED: ATOM     23  F   UNL     1     -53.325 -31.718   4.205 -0.00 -0.00    -0.204 F  
DOCKED: ATOM     24  C   UNL     1     -53.923 -34.389   6.603 -0.08 +0.00    +0.001 A  
DOCKED: ENDBRANCH   2  18
DOCKED: TORSDOF 5
DOCKED: TER
DOCKED: ENDMDL
________________________________________________________________________________


    FINAL DOCKED STATE:
    ________________________


Run:   236 / 512
Time taken for this run:   0.002s

DOCKED: MODEL        236
DOCKED: USER    Run = 236
DOCKED: USER
DOCKED: USER    Estimated Free Energy of Binding    =  -3.36 kcal/mol  [=(1)+(2)+(3)-(4)]
DOCKED: USER
DOCKED: USER    (1) Final Intermolecular Energy     =  -4.85 kcal/mol
DOCKED: USER        vdW + Hbond + desolv Energy     =  -4.85 kcal/mol
DOCKED: USER        Electrostatic Energy            =  +0.00 kcal/mol
DOCKED: USER        Moving Ligand-Fixed Receptor    =  -4.85 kcal/mol
DOCKED: USER        Moving Ligand-Moving Receptor   =  +0.00 kcal/mol
DOCKED: USER    (2) Final Total Internal Energy     =  -1.17 kcal/mol
DOCKED: USER    (3) Torsional Free Energy           =  +1.49 kcal/mol
DOCKED: USER    (4) Unbound System's Energy         =  -1.17 kcal/mol
DOCKED: USER
DOCKED: USER
DOCKED: REMARK  5 active torsions:
DOCKED: REMARK  status: ('A' for Active; 'I' for Inactive)
DOCKED: REMARK    1  A    between atoms: C_2  and  C_19 
DOCKED: REMARK    2  A    between atoms: C_2  and  C_11 
DOCKED: REMARK    3  A    between atoms: C_19  and  C_20 
DOCKED: REMARK    4  A    between atoms: C_20  and  C_21 
DOCKED: REMARK    5  A    between atoms: C_21  and  N_22 
DOCKED: USER                              x       y       z     vdW  Elec       q    Type
DOCKED: USER                           _______ _______ _______ _____ _____    ______ ____
DOCKED: ROOT
DOCKED: ATOM      1  O   UNL     1     -51.252 -26.074  -2.321 -0.02 -0.00    -0.346 OA 
DOCKED: ATOM      2  C   UNL     1     -51.222 -26.281  -3.769 -0.07 +0.00    +0.130 C  
DOCKED: ATOM      3  C   UNL     1     -52.644 -26.614  -4.115 -0.16 +0.00    +0.004 A  
DOCKED: ATOM      4  C   UNL     1     -53.439 -26.499  -2.984 -0.25 +0.00    +0.006 A  
DOCKED: ATOM      5  C   UNL     1     -52.613 -26.076  -1.830 -0.17 +0.00    +0.169 C  
DOCKED: ATOM      6  C   UNL     1     -53.193 -26.979  -5.336 -0.22 -0.00    -0.001 A  
DOCKED: ATOM      7  C   UNL     1     -54.800 -26.747  -3.031 -0.35 +0.00    +0.008 A  
DOCKED: ATOM      8  C   UNL     1     -54.563 -27.236  -5.399 -0.34 +0.00    +0.010 A  
DOCKED: ATOM      9  C   UNL     1     -55.363 -27.120  -4.252 -0.39 +0.00    +0.068 A  
DOCKED: ATOM     10  N   UNL     1     -57.904 -27.601  -4.405 -2.45 -0.00    -0.191 NA 
DOCKED: ATOM     11  C   UNL     1     -56.764 -27.386  -4.337 -0.10 +0.00    +0.101 C  
DOCKED: ENDROOT
DOCKED: BRANCH   2  12
DOCKED: ATOM     12  C   UNL     1     -50.736 -24.997  -4.430 -0.12 +0.00    +0.038 C  
DOCKED: BRANCH  12  13
DOCKED: ATOM     13  C   UNL     1     -50.590 -23.867  -3.413 -0.12 +0.00    +0.038 C  
DOCKED: BRANCH  13  14
DOCKED: ATOM     14  C   UNL     1     -49.236 -23.174  -3.551 -0.02 +0.00    +0.251 C  
DOCKED: BRANCH  14  15
DOCKED: ATOM     15  N   UNL     1     -48.458 -23.332  -2.328 -0.01 +0.00    +0.141 N  
DOCKED: ATOM     16  C   UNL     1     -47.365 -22.360  -2.281 +0.00 +0.00    +0.285 C  
DOCKED: ATOM     17  C   UNL     1     -49.315 -23.189  -1.149 -0.00 +0.00    +0.285 C  
DOCKED: ENDBRANCH  14  15
DOCKED: ENDBRANCH  13  14
DOCKED: ENDBRANCH  12  13
DOCKED: ENDBRANCH   2  12
DOCKED: BRANCH   2  18
DOCKED: ATOM     18  C   UNL     1     -50.281 -27.410  -4.029 -0.02 +0.00    +0.006 A  
DOCKED: ATOM     19  C   UNL     1     -50.400 -28.597  -3.307 -0.02 +0.00    +0.001 A  
DOCKED: ATOM     20  C   UNL     1     -49.519 -29.651  -3.550 -0.00 +0.00    +0.029 A  
DOCKED: ATOM     21  C   UNL     1     -48.521 -29.517  -4.514 -0.00 +0.00    +0.140 A  
DOCKED: ATOM     22  C   UNL     1     -48.402 -28.330  -5.236 -0.00 +0.00    +0.029 A  
DOCKED: ATOM     23  F   UNL     1     -47.677 -30.530  -4.749 +0.00 -0.00    -0.204 F  
DOCKED: ATOM     24  C   UNL     1     -49.282 -27.274  -4.993 -0.01 +0.00    +0.001 A  
DOCKED: ENDBRANCH   2  18
DOCKED: TORSDOF 5
DOCKED: TER
DOCKED: ENDMDL
________________________________________________________________________________


    FINAL DOCKED STATE:
    ________________________


Run:   237 / 512
Time taken for this run:   0.002s

DOCKED: MODEL        237
DOCKED: USER    Run = 237
DOCKED: USER
DOCKED: USER    Estimated Free Energy of Binding    =  -4.64 kcal/mol  [=(1)+(2)+(3)-(4)]
DOCKED: USER
DOCKED: USER    (1) Final Intermolecular Energy     =  -6.13 kcal/mol
DOCKED: USER        vdW + Hbond + desolv Energy     =  -6.13 kcal/mol
DOCKED: USER        Electrostatic Energy            =  +0.00 kcal/mol
DOCKED: USER        Moving Ligand-Fixed Receptor    =  -6.13 kcal/mol
DOCKED: USER        Moving Ligand-Moving Receptor   =  +0.00 kcal/mol
DOCKED: USER    (2) Final Total Internal Energy     =  -1.16 kcal/mol
DOCKED: USER    (3) Torsional Free Energy           =  +1.49 kcal/mol
DOCKED: USER    (4) Unbound System's Energy         =  -1.16 kcal/mol
DOCKED: USER
DOCKED: USER
DOCKED: REMARK  5 active torsions:
DOCKED: REMARK  status: ('A' for Active; 'I' for Inactive)
DOCKED: REMARK    1  A    between atoms: C_2  and  C_19 
DOCKED: REMARK    2  A    between atoms: C_2  and  C_11 
DOCKED: REMARK    3  A    between atoms: C_19  and  C_20 
DOCKED: REMARK    4  A    between atoms: C_20  and  C_21 
DOCKED: REMARK    5  A    between atoms: C_21  and  N_22 
DOCKED: USER                              x       y       z     vdW  Elec       q    Type
DOCKED: USER                           _______ _______ _______ _____ _____    ______ ____
DOCKED: ROOT
DOCKED: ATOM      1  O   UNL     1     -54.960 -36.094   8.674 -0.07 -0.00    -0.346 OA 
DOCKED: ATOM      2  C   UNL     1     -55.874 -35.198   7.963 -0.13 +0.00    +0.130 C  
DOCKED: ATOM      3  C   UNL     1     -56.833 -36.130   7.281 -0.22 +0.00    +0.004 A  
DOCKED: ATOM      4  C   UNL     1     -56.561 -37.437   7.658 -0.25 +0.00    +0.006 A  
DOCKED: ATOM      5  C   UNL     1     -55.429 -37.461   8.610 -0.15 +0.00    +0.169 C  
DOCKED: ATOM      6  C   UNL     1     -57.871 -35.842   6.407 -0.28 -0.00    -0.001 A  
DOCKED: ATOM      7  C   UNL     1     -57.309 -38.497   7.173 -0.34 +0.00    +0.008 A  
DOCKED: ATOM      8  C   UNL     1     -58.632 -36.900   5.906 -0.33 +0.00    +0.010 A  
DOCKED: ATOM      9  C   UNL     1     -58.352 -38.221   6.288 -0.31 +0.00    +0.068 A  
DOCKED: ATOM     10  N   UNL     1     -59.787 -40.161   5.344 -2.56 -0.00    -0.191 NA 
DOCKED: ATOM     11  C   UNL     1     -59.143 -39.291   5.767 -0.35 +0.00    +0.101 C  
DOCKED: ENDROOT
DOCKED: BRANCH   2  12
DOCKED: ATOM     12  C   UNL     1     -56.551 -34.290   8.983 -0.06 +0.00    +0.038 C  
DOCKED: BRANCH  12  13
DOCKED: ATOM     13  C   UNL     1     -58.028 -34.643   9.148 -0.05 +0.00    +0.038 C  
DOCKED: BRANCH  13  14
DOCKED: ATOM     14  C   UNL     1     -58.913 -33.416   8.935 -0.02 +0.00    +0.251 C  
DOCKED: BRANCH  14  15
DOCKED: ATOM     15  N   UNL     1     -59.584 -33.493   7.642 -0.11 +0.00    +0.141 N  
DOCKED: ATOM     16  C   UNL     1     -60.994 -33.122   7.770 -0.09 +0.00    +0.285 C  
DOCKED: ATOM     17  C   UNL     1     -58.918 -32.632   6.664 -0.13 +0.00    +0.285 C  
DOCKED: ENDBRANCH  14  15
DOCKED: ENDBRANCH  13  14
DOCKED: ENDBRANCH  12  13
DOCKED: ENDBRANCH   2  12
DOCKED: BRANCH   2  18
DOCKED: ATOM     18  C   UNL     1     -55.049 -34.407   7.003 -0.13 +0.00    +0.006 A  
DOCKED: ATOM     19  C   UNL     1     -53.662 -34.545   6.997 -0.08 +0.00    +0.001 A  
DOCKED: ATOM     20  C   UNL     1     -52.893 -33.805   6.099 -0.09 +0.00    +0.029 A  
DOCKED: ATOM     21  C   UNL     1     -53.511 -32.929   5.208 -0.08 +0.00    +0.140 A  
DOCKED: ATOM     22  C   UNL     1     -54.899 -32.791   5.214 -0.13 +0.00    +0.029 A  
DOCKED: ATOM     23  F   UNL     1     -52.772 -32.219   4.345 -0.00 -0.00    -0.204 F  
DOCKED: ATOM     24  C   UNL     1     -55.669 -33.531   6.113 -0.16 +0.00    +0.001 A  
DOCKED: ENDBRANCH   2  18
DOCKED: TORSDOF 5
DOCKED: TER
DOCKED: ENDMDL
________________________________________________________________________________


    FINAL DOCKED STATE:
    ________________________


Run:   238 / 512
Time taken for this run:   0.002s

DOCKED: MODEL        238
DOCKED: USER    Run = 238
DOCKED: USER
DOCKED: USER    Estimated Free Energy of Binding    =  -4.62 kcal/mol  [=(1)+(2)+(3)-(4)]
DOCKED: USER
DOCKED: USER    (1) Final Intermolecular Energy     =  -6.12 kcal/mol
DOCKED: USER        vdW + Hbond + desolv Energy     =  -6.12 kcal/mol
DOCKED: USER        Electrostatic Energy            =  +0.00 kcal/mol
DOCKED: USER        Moving Ligand-Fixed Receptor    =  -6.12 kcal/mol
DOCKED: USER        Moving Ligand-Moving Receptor   =  +0.00 kcal/mol
DOCKED: USER    (2) Final Total Internal Energy     =  -1.18 kcal/mol
DOCKED: USER    (3) Torsional Free Energy           =  +1.49 kcal/mol
DOCKED: USER    (4) Unbound System's Energy         =  -1.18 kcal/mol
DOCKED: USER
DOCKED: USER
DOCKED: REMARK  5 active torsions:
DOCKED: REMARK  status: ('A' for Active; 'I' for Inactive)
DOCKED: REMARK    1  A    between atoms: C_2  and  C_19 
DOCKED: REMARK    2  A    between atoms: C_2  and  C_11 
DOCKED: REMARK    3  A    between atoms: C_19  and  C_20 
DOCKED: REMARK    4  A    between atoms: C_20  and  C_21 
DOCKED: REMARK    5  A    between atoms: C_21  and  N_22 
DOCKED: USER                              x       y       z     vdW  Elec       q    Type
DOCKED: USER                           _______ _______ _______ _____ _____    ______ ____
DOCKED: ROOT
DOCKED: ATOM      1  O   UNL     1     -53.373 -31.132  -0.320 -0.01 -0.00    -0.346 OA 
DOCKED: ATOM      2  C   UNL     1     -54.651 -30.761   0.289 -0.17 +0.00    +0.130 C  
DOCKED: ATOM      3  C   UNL     1     -55.286 -29.860  -0.730 -0.27 +0.00    +0.004 A  
DOCKED: ATOM      4  C   UNL     1     -54.493 -29.809  -1.867 -0.25 +0.00    +0.006 A  
DOCKED: ATOM      5  C   UNL     1     -53.302 -30.669  -1.689 -0.12 +0.00    +0.169 C  
DOCKED: ATOM      6  C   UNL     1     -56.477 -29.151  -0.660 -0.21 -0.00    -0.001 A  
DOCKED: ATOM      7  C   UNL     1     -54.857 -29.049  -2.966 -0.09 +0.00    +0.008 A  
DOCKED: ATOM      8  C   UNL     1     -56.855 -28.377  -1.758 -0.25 +0.00    +0.010 A  
DOCKED: ATOM      9  C   UNL     1     -56.050 -28.327  -2.905 -0.13 +0.00    +0.068 A  
DOCKED: ATOM     10  N   UNL     1     -56.785 -26.884  -4.928 -2.31 -0.00    -0.191 NA 
DOCKED: ATOM     11  C   UNL     1     -56.455 -27.531  -4.021 -0.31 +0.00    +0.101 C  
DOCKED: ENDROOT
DOCKED: BRANCH   2  12
DOCKED: ATOM     12  C   UNL     1     -55.453 -32.032   0.540 -0.25 +0.00    +0.038 C  
DOCKED: BRANCH  12  13
DOCKED: ATOM     13  C   UNL     1     -54.560 -33.270   0.509 -0.21 +0.00    +0.038 C  
DOCKED: BRANCH  13  14
DOCKED: ATOM     14  C   UNL     1     -54.941 -34.250   1.617 -0.23 +0.00    +0.251 C  
DOCKED: BRANCH  14  15
DOCKED: ATOM     15  N   UNL     1     -53.744 -34.802   2.240 -0.20 +0.00    +0.141 N  
DOCKED: ATOM     16  C   UNL     1     -53.310 -36.013   1.541 -0.23 +0.00    +0.285 C  
DOCKED: ATOM     17  C   UNL     1     -52.667 -33.811   2.255 -0.06 +0.00    +0.285 C  
DOCKED: ENDBRANCH  14  15
DOCKED: ENDBRANCH  13  14
DOCKED: ENDBRANCH  12  13
DOCKED: ENDBRANCH   2  12
DOCKED: BRANCH   2  18
DOCKED: ATOM     18  C   UNL     1     -54.337 -30.061   1.569 -0.15 +0.00    +0.006 A  
DOCKED: ATOM     19  C   UNL     1     -55.363 -29.732   2.454 -0.18 +0.00    +0.001 A  
DOCKED: ATOM     20  C   UNL     1     -55.068 -29.078   3.650 -0.15 +0.00    +0.029 A  
DOCKED: ATOM     21  C   UNL     1     -53.748 -28.753   3.960 -0.10 +0.00    +0.140 A  
DOCKED: ATOM     22  C   UNL     1     -52.722 -29.082   3.075 -0.10 +0.00    +0.029 A  
DOCKED: ATOM     23  F   UNL     1     -53.465 -28.126   5.110 -0.03 -0.00    -0.204 F  
DOCKED: ATOM     24  C   UNL     1     -53.016 -29.737   1.878 -0.11 +0.00    +0.001 A  
DOCKED: ENDBRANCH   2  18
DOCKED: TORSDOF 5
DOCKED: TER
DOCKED: ENDMDL
________________________________________________________________________________


    FINAL DOCKED STATE:
    ________________________


Run:   239 / 512
Time taken for this run:   0.002s

DOCKED: MODEL        239
DOCKED: USER    Run = 239
DOCKED: USER
DOCKED: USER    Estimated Free Energy of Binding    =  -3.96 kcal/mol  [=(1)+(2)+(3)-(4)]
DOCKED: USER
DOCKED: USER    (1) Final Intermolecular Energy     =  -5.45 kcal/mol
DOCKED: USER        vdW + Hbond + desolv Energy     =  -5.45 kcal/mol
DOCKED: USER        Electrostatic Energy            =  +0.00 kcal/mol
DOCKED: USER        Moving Ligand-Fixed Receptor    =  -5.45 kcal/mol
DOCKED: USER        Moving Ligand-Moving Receptor   =  +0.00 kcal/mol
DOCKED: USER    (2) Final Total Internal Energy     =  -1.31 kcal/mol
DOCKED: USER    (3) Torsional Free Energy           =  +1.49 kcal/mol
DOCKED: USER    (4) Unbound System's Energy         =  -1.31 kcal/mol
DOCKED: USER
DOCKED: USER
DOCKED: REMARK  5 active torsions:
DOCKED: REMARK  status: ('A' for Active; 'I' for Inactive)
DOCKED: REMARK    1  A    between atoms: C_2  and  C_19 
DOCKED: REMARK    2  A    between atoms: C_2  and  C_11 
DOCKED: REMARK    3  A    between atoms: C_19  and  C_20 
DOCKED: REMARK    4  A    between atoms: C_20  and  C_21 
DOCKED: REMARK    5  A    between atoms: C_21  and  N_22 
DOCKED: USER                              x       y       z     vdW  Elec       q    Type
DOCKED: USER                           _______ _______ _______ _____ _____    ______ ____
DOCKED: ROOT
DOCKED: ATOM      1  O   UNL     1     -49.289 -37.362  -1.635 +0.00 -0.00    -0.346 OA 
DOCKED: ATOM      2  C   UNL     1     -50.051 -36.373  -0.872 -0.08 +0.00    +0.130 C  
DOCKED: ATOM      3  C   UNL     1     -50.660 -37.171   0.245 -0.12 +0.00    +0.004 A  
DOCKED: ATOM      4  C   UNL     1     -50.198 -38.478   0.190 -0.12 +0.00    +0.006 A  
DOCKED: ATOM      5  C   UNL     1     -49.256 -38.631  -0.942 -0.06 +0.00    +0.169 C  
DOCKED: ATOM      6  C   UNL     1     -51.542 -36.769   1.237 -0.18 -0.00    -0.001 A  
DOCKED: ATOM      7  C   UNL     1     -50.602 -39.425   1.115 -0.21 +0.00    +0.008 A  
DOCKED: ATOM      8  C   UNL     1     -51.963 -37.713   2.175 -0.29 +0.00    +0.010 A  
DOCKED: ATOM      9  C   UNL     1     -51.495 -39.034   2.114 -0.28 +0.00    +0.068 A  
DOCKED: ATOM     10  N   UNL     1     -52.292 -40.760   3.875 -2.56 -0.00    -0.191 NA 
DOCKED: ATOM     11  C   UNL     1     -51.935 -39.986   3.085 -0.43 +0.00    +0.101 C  
DOCKED: ENDROOT
DOCKED: BRANCH   2  12
DOCKED: ATOM     12  C   UNL     1     -49.089 -35.299  -0.378 -0.02 +0.00    +0.038 C  
DOCKED: BRANCH  12  13
DOCKED: ATOM     13  C   UNL     1     -47.766 -35.343  -1.140 -0.00 +0.00    +0.038 C  
DOCKED: BRANCH  13  14
DOCKED: ATOM     14  C   UNL     1     -47.955 -34.915  -2.594 +0.00 +0.00    +0.251 C  
DOCKED: BRANCH  14  15
DOCKED: ATOM     15  N   UNL     1     -47.871 -33.464  -2.710 -0.00 +0.00    +0.141 N  
DOCKED: ATOM     16  C   UNL     1     -46.915 -33.083  -3.751 +0.00 +0.00    +0.285 C  
DOCKED: ATOM     17  C   UNL     1     -49.187 -32.892  -2.997 +0.00 +0.00    +0.285 C  
DOCKED: ENDBRANCH  14  15
DOCKED: ENDBRANCH  13  14
DOCKED: ENDBRANCH  12  13
DOCKED: ENDBRANCH   2  12
DOCKED: BRANCH   2  18
DOCKED: ATOM     18  C   UNL     1     -51.070 -35.798  -1.798 -0.13 +0.00    +0.006 A  
DOCKED: ATOM     19  C   UNL     1     -51.915 -34.779  -1.359 -0.16 +0.00    +0.001 A  
DOCKED: ATOM     20  C   UNL     1     -52.867 -34.242  -2.226 -0.18 +0.00    +0.029 A  
DOCKED: ATOM     21  C   UNL     1     -52.974 -34.724  -3.530 -0.17 +0.00    +0.140 A  
DOCKED: ATOM     22  C   UNL     1     -52.129 -35.743  -3.968 -0.18 +0.00    +0.029 A  
DOCKED: ATOM     23  F   UNL     1     -53.887 -34.208  -4.362 -0.13 -0.00    -0.204 F  
DOCKED: ATOM     24  C   UNL     1     -51.176 -36.281  -3.102 -0.15 +0.00    +0.001 A  
DOCKED: ENDBRANCH   2  18
DOCKED: TORSDOF 5
DOCKED: TER
DOCKED: ENDMDL
________________________________________________________________________________


    FINAL DOCKED STATE:
    ________________________


Run:   240 / 512
Time taken for this run:   0.002s

DOCKED: MODEL        240
DOCKED: USER    Run = 240
DOCKED: USER
DOCKED: USER    Estimated Free Energy of Binding    =  -4.15 kcal/mol  [=(1)+(2)+(3)-(4)]
DOCKED: USER
DOCKED: USER    (1) Final Intermolecular Energy     =  -5.64 kcal/mol
DOCKED: USER        vdW + Hbond + desolv Energy     =  -5.64 kcal/mol
DOCKED: USER        Electrostatic Energy            =  +0.00 kcal/mol
DOCKED: USER        Moving Ligand-Fixed Receptor    =  -5.64 kcal/mol
DOCKED: USER        Moving Ligand-Moving Receptor   =  +0.00 kcal/mol
DOCKED: USER    (2) Final Total Internal Energy     =  -1.33 kcal/mol
DOCKED: USER    (3) Torsional Free Energy           =  +1.49 kcal/mol
DOCKED: USER    (4) Unbound System's Energy         =  -1.33 kcal/mol
DOCKED: USER
DOCKED: USER
DOCKED: REMARK  5 active torsions:
DOCKED: REMARK  status: ('A' for Active; 'I' for Inactive)
DOCKED: REMARK    1  A    between atoms: C_2  and  C_19 
DOCKED: REMARK    2  A    between atoms: C_2  and  C_11 
DOCKED: REMARK    3  A    between atoms: C_19  and  C_20 
DOCKED: REMARK    4  A    between atoms: C_20  and  C_21 
DOCKED: REMARK    5  A    between atoms: C_21  and  N_22 
DOCKED: USER                              x       y       z     vdW  Elec       q    Type
DOCKED: USER                           _______ _______ _______ _____ _____    ______ ____
DOCKED: ROOT
DOCKED: ATOM      1  O   UNL     1     -55.422 -35.884   9.063 -0.04 -0.00    -0.346 OA 
DOCKED: ATOM      2  C   UNL     1     -56.086 -35.060   8.052 -0.12 +0.00    +0.130 C  
DOCKED: ATOM      3  C   UNL     1     -56.958 -36.032   7.311 -0.22 +0.00    +0.004 A  
DOCKED: ATOM      4  C   UNL     1     -56.884 -37.279   7.914 -0.24 +0.00    +0.006 A  
DOCKED: ATOM      5  C   UNL     1     -55.983 -37.218   9.086 -0.14 +0.00    +0.169 C  
DOCKED: ATOM      6  C   UNL     1     -57.760 -35.826   6.198 -0.26 -0.00    -0.001 A  
DOCKED: ATOM      7  C   UNL     1     -57.602 -38.358   7.428 -0.31 +0.00    +0.008 A  
DOCKED: ATOM      8  C   UNL     1     -58.487 -36.905   5.693 -0.33 +0.00    +0.010 A  
DOCKED: ATOM      9  C   UNL     1     -58.408 -38.165   6.305 -0.31 +0.00    +0.068 A  
DOCKED: ATOM     10  N   UNL     1     -59.774 -40.146   5.345 -2.56 -0.00    -0.191 NA 
DOCKED: ATOM     11  C   UNL     1     -59.161 -39.258   5.775 -0.37 +0.00    +0.101 C  
DOCKED: ENDROOT
DOCKED: BRANCH   2  12
DOCKED: ATOM     12  C   UNL     1     -56.882 -33.972   8.763 -0.06 +0.00    +0.038 C  
DOCKED: BRANCH  12  13
DOCKED: ATOM     13  C   UNL     1     -57.134 -34.332  10.226 -0.02 +0.00    +0.038 C  
DOCKED: BRANCH  13  14
DOCKED: ATOM     14  C   UNL     1     -58.518 -34.950  10.409 -0.01 +0.00    +0.251 C  
DOCKED: BRANCH  14  15
DOCKED: ATOM     15  N   UNL     1     -58.416 -36.223  11.114 -0.01 +0.00    +0.141 N  
DOCKED: ATOM     16  C   UNL     1     -57.535 -36.100  12.276 -0.00 +0.00    +0.285 C  
DOCKED: ATOM     17  C   UNL     1     -59.740 -36.690  11.528 -0.00 +0.00    +0.285 C  
DOCKED: ENDBRANCH  14  15
DOCKED: ENDBRANCH  13  14
DOCKED: ENDBRANCH  12  13
DOCKED: ENDBRANCH   2  12
DOCKED: BRANCH   2  18
DOCKED: ATOM     18  C   UNL     1     -55.014 -34.471   7.197 -0.13 +0.00    +0.006 A  
DOCKED: ATOM     19  C   UNL     1     -55.329 -33.479   6.269 -0.15 +0.00    +0.001 A  
DOCKED: ATOM     20  C   UNL     1     -54.326 -32.929   5.470 -0.11 +0.00    +0.029 A  
DOCKED: ATOM     21  C   UNL     1     -53.010 -33.371   5.600 -0.07 +0.00    +0.140 A  
DOCKED: ATOM     22  C   UNL     1     -52.696 -34.363   6.529 -0.10 +0.00    +0.029 A  
DOCKED: ATOM     23  F   UNL     1     -52.047 -32.842   4.834 -0.01 -0.00    -0.204 F  
DOCKED: ATOM     24  C   UNL     1     -53.699 -34.914   7.328 -0.07 +0.00    +0.001 A  
DOCKED: ENDBRANCH   2  18
DOCKED: TORSDOF 5
DOCKED: TER
DOCKED: ENDMDL
________________________________________________________________________________


    FINAL DOCKED STATE:
    ________________________


Run:   241 / 512
Time taken for this run:   0.002s

DOCKED: MODEL        241
DOCKED: USER    Run = 241
DOCKED: USER
DOCKED: USER    Estimated Free Energy of Binding    =  -3.70 kcal/mol  [=(1)+(2)+(3)-(4)]
DOCKED: USER
DOCKED: USER    (1) Final Intermolecular Energy     =  -5.19 kcal/mol
DOCKED: USER        vdW + Hbond + desolv Energy     =  -5.19 kcal/mol
DOCKED: USER        Electrostatic Energy            =  +0.00 kcal/mol
DOCKED: USER        Moving Ligand-Fixed Receptor    =  -5.19 kcal/mol
DOCKED: USER        Moving Ligand-Moving Receptor   =  +0.00 kcal/mol
DOCKED: USER    (2) Final Total Internal Energy     =  -0.99 kcal/mol
DOCKED: USER    (3) Torsional Free Energy           =  +1.49 kcal/mol
DOCKED: USER    (4) Unbound System's Energy         =  -0.99 kcal/mol
DOCKED: USER
DOCKED: USER
DOCKED: REMARK  5 active torsions:
DOCKED: REMARK  status: ('A' for Active; 'I' for Inactive)
DOCKED: REMARK    1  A    between atoms: C_2  and  C_19 
DOCKED: REMARK    2  A    between atoms: C_2  and  C_11 
DOCKED: REMARK    3  A    between atoms: C_19  and  C_20 
DOCKED: REMARK    4  A    between atoms: C_20  and  C_21 
DOCKED: REMARK    5  A    between atoms: C_21  and  N_22 
DOCKED: USER                              x       y       z     vdW  Elec       q    Type
DOCKED: USER                           _______ _______ _______ _____ _____    ______ ____
DOCKED: ROOT
DOCKED: ATOM      1  O   UNL     1     -50.620 -34.430   1.662 +0.00 -0.00    -0.346 OA 
DOCKED: ATOM      2  C   UNL     1     -50.914 -35.329   0.545 -0.07 +0.00    +0.130 C  
DOCKED: ATOM      3  C   UNL     1     -51.230 -36.637   1.210 -0.14 +0.00    +0.004 A  
DOCKED: ATOM      4  C   UNL     1     -51.227 -36.473   2.588 -0.15 +0.00    +0.006 A  
DOCKED: ATOM      5  C   UNL     1     -50.925 -35.064   2.926 -0.06 +0.00    +0.169 C  
DOCKED: ATOM      6  C   UNL     1     -51.511 -37.870   0.641 -0.15 -0.00    -0.001 A  
DOCKED: ATOM      7  C   UNL     1     -51.497 -37.531   3.440 -0.23 +0.00    +0.008 A  
DOCKED: ATOM      8  C   UNL     1     -51.781 -38.948   1.486 -0.30 +0.00    +0.010 A  
DOCKED: ATOM      9  C   UNL     1     -51.774 -38.778   2.879 -0.30 +0.00    +0.068 A  
DOCKED: ATOM     10  N   UNL     1     -52.284 -40.798   4.420 -2.65 -0.00    -0.191 NA 
DOCKED: ATOM     11  C   UNL     1     -52.055 -39.892   3.729 -0.25 +0.00    +0.101 C  
DOCKED: ENDROOT
DOCKED: BRANCH   2  12
DOCKED: ATOM     12  C   UNL     1     -52.093 -34.759  -0.235 -0.16 +0.00    +0.038 C  
DOCKED: BRANCH  12  13
DOCKED: ATOM     13  C   UNL     1     -53.165 -34.205   0.701 -0.21 +0.00    +0.038 C  
DOCKED: BRANCH  13  14
DOCKED: ATOM     14  C   UNL     1     -54.195 -33.381  -0.069 -0.04 +0.00    +0.251 C  
DOCKED: BRANCH  14  15
DOCKED: ATOM     15  N   UNL     1     -53.605 -32.127  -0.523 -0.12 +0.00    +0.141 N  
DOCKED: ATOM     16  C   UNL     1     -53.027 -32.282  -1.859 -0.12 +0.00    +0.285 C  
DOCKED: ATOM     17  C   UNL     1     -54.604 -31.057  -0.523 -0.14 +0.00    +0.285 C  
DOCKED: ENDBRANCH  14  15
DOCKED: ENDBRANCH  13  14
DOCKED: ENDBRANCH  12  13
DOCKED: ENDBRANCH   2  12
DOCKED: BRANCH   2  18
DOCKED: ATOM     18  C   UNL     1     -49.686 -35.388  -0.301 -0.03 +0.00    +0.006 A  
DOCKED: ATOM     19  C   UNL     1     -49.741 -34.993  -1.637 -0.03 +0.00    +0.001 A  
DOCKED: ATOM     20  C   UNL     1     -48.593 -35.049  -2.427 -0.01 +0.00    +0.029 A  
DOCKED: ATOM     21  C   UNL     1     -47.392 -35.501  -1.882 +0.00 +0.00    +0.140 A  
DOCKED: ATOM     22  C   UNL     1     -47.338 -35.896  -0.545 -0.00 +0.00    +0.029 A  
DOCKED: ATOM     23  F   UNL     1     -46.289 -35.554  -2.640 +0.00 -0.00    -0.204 F  
DOCKED: ATOM     24  C   UNL     1     -48.486 -35.840   0.246 -0.01 +0.00    +0.001 A  
DOCKED: ENDBRANCH   2  18
DOCKED: TORSDOF 5
DOCKED: TER
DOCKED: ENDMDL
________________________________________________________________________________


    FINAL DOCKED STATE:
    ________________________


Run:   242 / 512
Time taken for this run:   0.002s

DOCKED: MODEL        242
DOCKED: USER    Run = 242
DOCKED: USER
DOCKED: USER    Estimated Free Energy of Binding    =  -3.34 kcal/mol  [=(1)+(2)+(3)-(4)]
DOCKED: USER
DOCKED: USER    (1) Final Intermolecular Energy     =  -4.83 kcal/mol
DOCKED: USER        vdW + Hbond + desolv Energy     =  -4.83 kcal/mol
DOCKED: USER        Electrostatic Energy            =  +0.00 kcal/mol
DOCKED: USER        Moving Ligand-Fixed Receptor    =  -4.83 kcal/mol
DOCKED: USER        Moving Ligand-Moving Receptor   =  +0.00 kcal/mol
DOCKED: USER    (2) Final Total Internal Energy     =  -1.30 kcal/mol
DOCKED: USER    (3) Torsional Free Energy           =  +1.49 kcal/mol
DOCKED: USER    (4) Unbound System's Energy         =  -1.30 kcal/mol
DOCKED: USER
DOCKED: USER
DOCKED: REMARK  5 active torsions:
DOCKED: REMARK  status: ('A' for Active; 'I' for Inactive)
DOCKED: REMARK    1  A    between atoms: C_2  and  C_19 
DOCKED: REMARK    2  A    between atoms: C_2  and  C_11 
DOCKED: REMARK    3  A    between atoms: C_19  and  C_20 
DOCKED: REMARK    4  A    between atoms: C_20  and  C_21 
DOCKED: REMARK    5  A    between atoms: C_21  and  N_22 
DOCKED: USER                              x       y       z     vdW  Elec       q    Type
DOCKED: USER                           _______ _______ _______ _____ _____    ______ ____
DOCKED: ROOT
DOCKED: ATOM      1  O   UNL     1     -51.064 -26.572  -1.660 -0.02 -0.00    -0.346 OA 
DOCKED: ATOM      2  C   UNL     1     -50.975 -26.311  -3.098 -0.05 +0.00    +0.130 C  
DOCKED: ATOM      3  C   UNL     1     -52.374 -26.541  -3.592 -0.14 +0.00    +0.004 A  
DOCKED: ATOM      4  C   UNL     1     -53.212 -26.801  -2.517 -0.21 +0.00    +0.006 A  
DOCKED: ATOM      5  C   UNL     1     -52.441 -26.749  -1.255 -0.11 +0.00    +0.169 C  
DOCKED: ATOM      6  C   UNL     1     -52.867 -26.511  -4.888 -0.21 -0.00    -0.001 A  
DOCKED: ATOM      7  C   UNL     1     -54.563 -27.042  -2.699 -0.28 +0.00    +0.008 A  
DOCKED: ATOM      8  C   UNL     1     -54.226 -26.757  -5.089 -0.33 +0.00    +0.010 A  
DOCKED: ATOM      9  C   UNL     1     -55.070 -27.021  -3.999 -0.37 +0.00    +0.068 A  
DOCKED: ATOM     10  N   UNL     1     -57.589 -27.468  -4.406 -2.27 -0.00    -0.191 NA 
DOCKED: ATOM     11  C   UNL     1     -56.459 -27.268  -4.223 -0.37 +0.00    +0.101 C  
DOCKED: ENDROOT
DOCKED: BRANCH   2  12
DOCKED: ATOM     12  C   UNL     1     -50.502 -24.877  -3.300 -0.09 +0.00    +0.038 C  
DOCKED: BRANCH  12  13
DOCKED: ATOM     13  C   UNL     1     -51.511 -23.874  -2.743 -0.17 +0.00    +0.038 C  
DOCKED: BRANCH  13  14
DOCKED: ATOM     14  C   UNL     1     -50.847 -22.920  -1.751 -0.04 +0.00    +0.251 C  
DOCKED: BRANCH  14  15
DOCKED: ATOM     15  N   UNL     1     -50.146 -23.671  -0.717 -0.04 +0.00    +0.141 N  
DOCKED: ATOM     16  C   UNL     1     -49.106 -22.849  -0.097 -0.01 +0.00    +0.285 C  
DOCKED: ATOM     17  C   UNL     1     -51.086 -24.152   0.298 -0.07 +0.00    +0.285 C  
DOCKED: ENDBRANCH  14  15
DOCKED: ENDBRANCH  13  14
DOCKED: ENDBRANCH  12  13
DOCKED: ENDBRANCH   2  12
DOCKED: BRANCH   2  18
DOCKED: ATOM     18  C   UNL     1     -49.993 -27.286  -3.657 -0.02 +0.00    +0.006 A  
DOCKED: ATOM     19  C   UNL     1     -48.675 -26.892  -3.889 -0.01 +0.00    +0.001 A  
DOCKED: ATOM     20  C   UNL     1     -47.758 -27.805  -4.412 -0.00 +0.00    +0.029 A  
DOCKED: ATOM     21  C   UNL     1     -48.159 -29.108  -4.703 -0.00 +0.00    +0.140 A  
DOCKED: ATOM     22  C   UNL     1     -49.477 -29.501  -4.471 -0.00 +0.00    +0.029 A  
DOCKED: ATOM     23  F   UNL     1     -47.279 -29.983  -5.204 +0.00 -0.00    -0.204 F  
DOCKED: ATOM     24  C   UNL     1     -50.396 -28.589  -3.948 -0.02 +0.00    +0.001 A  
DOCKED: ENDBRANCH   2  18
DOCKED: TORSDOF 5
DOCKED: TER
DOCKED: ENDMDL
________________________________________________________________________________


    FINAL DOCKED STATE:
    ________________________


Run:   243 / 512
Time taken for this run:   0.002s

DOCKED: MODEL        243
DOCKED: USER    Run = 243
DOCKED: USER
DOCKED: USER    Estimated Free Energy of Binding    =  -5.03 kcal/mol  [=(1)+(2)+(3)-(4)]
DOCKED: USER
DOCKED: USER    (1) Final Intermolecular Energy     =  -6.52 kcal/mol
DOCKED: USER        vdW + Hbond + desolv Energy     =  -6.52 kcal/mol
DOCKED: USER        Electrostatic Energy            =  +0.00 kcal/mol
DOCKED: USER        Moving Ligand-Fixed Receptor    =  -6.52 kcal/mol
DOCKED: USER        Moving Ligand-Moving Receptor   =  +0.00 kcal/mol
DOCKED: USER    (2) Final Total Internal Energy     =  -1.29 kcal/mol
DOCKED: USER    (3) Torsional Free Energy           =  +1.49 kcal/mol
DOCKED: USER    (4) Unbound System's Energy         =  -1.29 kcal/mol
DOCKED: USER
DOCKED: USER
DOCKED: REMARK  5 active torsions:
DOCKED: REMARK  status: ('A' for Active; 'I' for Inactive)
DOCKED: REMARK    1  A    between atoms: C_2  and  C_19 
DOCKED: REMARK    2  A    between atoms: C_2  and  C_11 
DOCKED: REMARK    3  A    between atoms: C_19  and  C_20 
DOCKED: REMARK    4  A    between atoms: C_20  and  C_21 
DOCKED: REMARK    5  A    between atoms: C_21  and  N_22 
DOCKED: USER                              x       y       z     vdW  Elec       q    Type
DOCKED: USER                           _______ _______ _______ _____ _____    ______ ____
DOCKED: ROOT
DOCKED: ATOM      1  O   UNL     1     -57.817 -35.884   8.000 -0.04 -0.00    -0.346 OA 
DOCKED: ATOM      2  C   UNL     1     -57.209 -37.215   8.019 -0.20 +0.00    +0.130 C  
DOCKED: ATOM      3  C   UNL     1     -57.707 -37.856   6.756 -0.32 +0.00    +0.004 A  
DOCKED: ATOM      4  C   UNL     1     -58.443 -36.935   6.024 -0.33 +0.00    +0.006 A  
DOCKED: ATOM      5  C   UNL     1     -58.473 -35.637   6.735 -0.22 +0.00    +0.169 C  
DOCKED: ATOM      6  C   UNL     1     -57.513 -39.147   6.286 -0.42 -0.00    -0.001 A  
DOCKED: ATOM      7  C   UNL     1     -59.012 -37.271   4.808 -0.14 +0.00    +0.008 A  
DOCKED: ATOM      8  C   UNL     1     -58.085 -39.503   5.063 -0.38 +0.00    +0.010 A  
DOCKED: ATOM      9  C   UNL     1     -58.830 -38.569   4.328 -0.42 +0.00    +0.068 A  
DOCKED: ATOM     10  N   UNL     1     -59.872 -39.260   2.059 -2.27 -0.00    -0.191 NA 
DOCKED: ATOM     11  C   UNL     1     -59.405 -38.950   3.077 -0.51 +0.00    +0.101 C  
DOCKED: ENDROOT
DOCKED: BRANCH   2  12
DOCKED: ATOM     12  C   UNL     1     -55.694 -37.054   8.046 -0.21 +0.00    +0.038 C  
DOCKED: BRANCH  12  13
DOCKED: ATOM     13  C   UNL     1     -55.199 -36.672   9.440 -0.14 +0.00    +0.038 C  
DOCKED: BRANCH  13  14
DOCKED: ATOM     14  C   UNL     1     -54.258 -37.738   9.999 +0.01 +0.00    +0.251 C  
DOCKED: BRANCH  14  15
DOCKED: ATOM     15  N   UNL     1     -54.179 -37.632  11.451 -0.07 +0.00    +0.141 N  
DOCKED: ATOM     16  C   UNL     1     -55.106 -36.614  11.946 -0.02 +0.00    +0.285 C  
DOCKED: ATOM     17  C   UNL     1     -54.461 -38.924  12.079 -0.08 +0.00    +0.285 C  
DOCKED: ENDBRANCH  14  15
DOCKED: ENDBRANCH  13  14
DOCKED: ENDBRANCH  12  13
DOCKED: ENDBRANCH   2  12
DOCKED: BRANCH   2  18
DOCKED: ATOM     18  C   UNL     1     -57.699 -37.901   9.251 -0.16 +0.00    +0.006 A  
DOCKED: ATOM     19  C   UNL     1     -58.326 -37.165  10.255 -0.07 +0.00    +0.001 A  
DOCKED: ATOM     20  C   UNL     1     -58.784 -37.807  11.407 -0.07 +0.00    +0.029 A  
DOCKED: ATOM     21  C   UNL     1     -58.614 -39.183  11.552 -0.12 +0.00    +0.140 A  
DOCKED: ATOM     22  C   UNL     1     -57.987 -39.919  10.547 -0.09 +0.00    +0.029 A  
DOCKED: ATOM     23  F   UNL     1     -59.055 -39.799  12.656 -0.03 -0.00    -0.204 F  
DOCKED: ATOM     24  C   UNL     1     -57.528 -39.277   9.395 -0.21 +0.00    +0.001 A  
DOCKED: ENDBRANCH   2  18
DOCKED: TORSDOF 5
DOCKED: TER
DOCKED: ENDMDL
________________________________________________________________________________


    FINAL DOCKED STATE:
    ________________________


Run:   244 / 512
Time taken for this run:   0.002s

DOCKED: MODEL        244
DOCKED: USER    Run = 244
DOCKED: USER
DOCKED: USER    Estimated Free Energy of Binding    =  -4.13 kcal/mol  [=(1)+(2)+(3)-(4)]
DOCKED: USER
DOCKED: USER    (1) Final Intermolecular Energy     =  -5.62 kcal/mol
DOCKED: USER        vdW + Hbond + desolv Energy     =  -5.62 kcal/mol
DOCKED: USER        Electrostatic Energy            =  +0.00 kcal/mol
DOCKED: USER        Moving Ligand-Fixed Receptor    =  -5.62 kcal/mol
DOCKED: USER        Moving Ligand-Moving Receptor   =  +0.00 kcal/mol
DOCKED: USER    (2) Final Total Internal Energy     =  -1.33 kcal/mol
DOCKED: USER    (3) Torsional Free Energy           =  +1.49 kcal/mol
DOCKED: USER    (4) Unbound System's Energy         =  -1.33 kcal/mol
DOCKED: USER
DOCKED: USER
DOCKED: REMARK  5 active torsions:
DOCKED: REMARK  status: ('A' for Active; 'I' for Inactive)
DOCKED: REMARK    1  A    between atoms: C_2  and  C_19 
DOCKED: REMARK    2  A    between atoms: C_2  and  C_11 
DOCKED: REMARK    3  A    between atoms: C_19  and  C_20 
DOCKED: REMARK    4  A    between atoms: C_20  and  C_21 
DOCKED: REMARK    5  A    between atoms: C_21  and  N_22 
DOCKED: USER                              x       y       z     vdW  Elec       q    Type
DOCKED: USER                           _______ _______ _______ _____ _____    ______ ____
DOCKED: ROOT
DOCKED: ATOM      1  O   UNL     1     -56.409 -34.135   7.543 -0.05 -0.00    -0.346 OA 
DOCKED: ATOM      2  C   UNL     1     -57.844 -33.850   7.565 -0.12 +0.00    +0.130 C  
DOCKED: ATOM      3  C   UNL     1     -58.471 -35.122   7.075 -0.22 +0.00    +0.004 A  
DOCKED: ATOM      4  C   UNL     1     -57.490 -36.087   6.893 -0.26 +0.00    +0.006 A  
DOCKED: ATOM      5  C   UNL     1     -56.167 -35.533   7.258 -0.12 +0.00    +0.169 C  
DOCKED: ATOM      6  C   UNL     1     -59.805 -35.407   6.820 -0.23 -0.00    -0.001 A  
DOCKED: ATOM      7  C   UNL     1     -57.805 -37.360   6.450 -0.32 +0.00    +0.008 A  
DOCKED: ATOM      8  C   UNL     1     -60.138 -36.685   6.368 -0.20 +0.00    +0.010 A  
DOCKED: ATOM      9  C   UNL     1     -59.143 -37.657   6.185 -0.27 +0.00    +0.068 A  
DOCKED: ATOM     10  N   UNL     1     -59.795 -40.021   5.350 -2.56 -0.00    -0.191 NA 
DOCKED: ATOM     11  C   UNL     1     -59.502 -38.960   5.724 -0.36 +0.00    +0.101 C  
DOCKED: ENDROOT
DOCKED: BRANCH   2  12
DOCKED: ATOM     12  C   UNL     1     -58.245 -33.503   8.994 -0.04 +0.00    +0.038 C  
DOCKED: BRANCH  12  13
DOCKED: ATOM     13  C   UNL     1     -57.902 -32.054   9.333 -0.02 +0.00    +0.038 C  
DOCKED: BRANCH  13  14
DOCKED: ATOM     14  C   UNL     1     -56.394 -31.868   9.490 -0.00 +0.00    +0.251 C  
DOCKED: BRANCH  14  15
DOCKED: ATOM     15  N   UNL     1     -56.059 -30.450   9.533 -0.00 +0.00    +0.141 N  
DOCKED: ATOM     16  C   UNL     1     -54.611 -30.259   9.444 +0.00 +0.00    +0.285 C  
DOCKED: ATOM     17  C   UNL     1     -56.733 -29.728   8.453 -0.00 +0.00    +0.285 C  
DOCKED: ENDBRANCH  14  15
DOCKED: ENDBRANCH  13  14
DOCKED: ENDBRANCH  12  13
DOCKED: ENDBRANCH   2  12
DOCKED: BRANCH   2  18
DOCKED: ATOM     18  C   UNL     1     -58.074 -32.696   6.647 -0.15 +0.00    +0.006 A  
DOCKED: ATOM     19  C   UNL     1     -57.000 -32.122   5.968 -0.10 +0.00    +0.001 A  
DOCKED: ATOM     20  C   UNL     1     -57.217 -31.043   5.109 -0.11 +0.00    +0.029 A  
DOCKED: ATOM     21  C   UNL     1     -58.505 -30.541   4.932 -0.13 +0.00    +0.140 A  
DOCKED: ATOM     22  C   UNL     1     -59.578 -31.116   5.611 -0.15 +0.00    +0.029 A  
DOCKED: ATOM     23  F   UNL     1     -58.713 -29.507   4.106 -0.02 -0.00    -0.204 F  
DOCKED: ATOM     24  C   UNL     1     -59.363 -32.195   6.470 -0.19 +0.00    +0.001 A  
DOCKED: ENDBRANCH   2  18
DOCKED: TORSDOF 5
DOCKED: TER
DOCKED: ENDMDL
________________________________________________________________________________


    FINAL DOCKED STATE:
    ________________________


Run:   245 / 512
Time taken for this run:   0.002s

DOCKED: MODEL        245
DOCKED: USER    Run = 245
DOCKED: USER
DOCKED: USER    Estimated Free Energy of Binding    =  -5.47 kcal/mol  [=(1)+(2)+(3)-(4)]
DOCKED: USER
DOCKED: USER    (1) Final Intermolecular Energy     =  -6.96 kcal/mol
DOCKED: USER        vdW + Hbond + desolv Energy     =  -6.96 kcal/mol
DOCKED: USER        Electrostatic Energy            =  +0.00 kcal/mol
DOCKED: USER        Moving Ligand-Fixed Receptor    =  -6.96 kcal/mol
DOCKED: USER        Moving Ligand-Moving Receptor   =  +0.00 kcal/mol
DOCKED: USER    (2) Final Total Internal Energy     =  -1.34 kcal/mol
DOCKED: USER    (3) Torsional Free Energy           =  +1.49 kcal/mol
DOCKED: USER    (4) Unbound System's Energy         =  -1.34 kcal/mol
DOCKED: USER
DOCKED: USER
DOCKED: REMARK  5 active torsions:
DOCKED: REMARK  status: ('A' for Active; 'I' for Inactive)
DOCKED: REMARK    1  A    between atoms: C_2  and  C_19 
DOCKED: REMARK    2  A    between atoms: C_2  and  C_11 
DOCKED: REMARK    3  A    between atoms: C_19  and  C_20 
DOCKED: REMARK    4  A    between atoms: C_20  and  C_21 
DOCKED: REMARK    5  A    between atoms: C_21  and  N_22 
DOCKED: USER                              x       y       z     vdW  Elec       q    Type
DOCKED: USER                           _______ _______ _______ _____ _____    ______ ____
DOCKED: ROOT
DOCKED: ATOM      1  O   UNL     1     -57.611 -36.690   8.113 -0.05 -0.00    -0.346 OA 
DOCKED: ATOM      2  C   UNL     1     -58.519 -37.828   8.261 -0.15 +0.00    +0.130 C  
DOCKED: ATOM      3  C   UNL     1     -58.949 -38.129   6.854 -0.27 +0.00    +0.004 A  
DOCKED: ATOM      4  C   UNL     1     -58.263 -37.309   5.970 -0.35 +0.00    +0.006 A  
DOCKED: ATOM      5  C   UNL     1     -57.336 -36.430   6.717 -0.21 +0.00    +0.169 C  
DOCKED: ATOM      6  C   UNL     1     -59.866 -39.063   6.393 -0.28 -0.00    -0.001 A  
DOCKED: ATOM      7  C   UNL     1     -58.471 -37.389   4.604 -0.19 +0.00    +0.008 A  
DOCKED: ATOM      8  C   UNL     1     -60.090 -39.153   5.018 -0.41 +0.00    +0.010 A  
DOCKED: ATOM      9  C   UNL     1     -59.395 -38.320   4.128 -0.40 +0.00    +0.068 A  
DOCKED: ATOM     10  N   UNL     1     -59.831 -38.517   1.582 -3.17 -0.00    -0.191 NA 
DOCKED: ATOM     11  C   UNL     1     -59.636 -38.428   2.724 -0.33 +0.00    +0.101 C  
DOCKED: ENDROOT
DOCKED: BRANCH   2  12
DOCKED: ATOM     12  C   UNL     1     -57.752 -38.976   8.906 -0.27 +0.00    +0.038 C  
DOCKED: BRANCH  12  13
DOCKED: ATOM     13  C   UNL     1     -57.052 -38.528  10.187 -0.17 +0.00    +0.038 C  
DOCKED: BRANCH  13  14
DOCKED: ATOM     14  C   UNL     1     -57.154 -39.599  11.272 -0.16 +0.00    +0.251 C  
DOCKED: BRANCH  14  15
DOCKED: ATOM     15  N   UNL     1     -58.076 -39.174  12.319 -0.11 +0.00    +0.141 N  
DOCKED: ATOM     16  C   UNL     1     -58.363 -37.743  12.205 -0.02 +0.00    +0.285 C  
DOCKED: ATOM     17  C   UNL     1     -59.318 -39.946  12.258 -0.06 +0.00    +0.285 C  
DOCKED: ENDBRANCH  14  15
DOCKED: ENDBRANCH  13  14
DOCKED: ENDBRANCH  12  13
DOCKED: ENDBRANCH   2  12
DOCKED: BRANCH   2  18
DOCKED: ATOM     18  C   UNL     1     -59.646 -37.378   9.130 -0.09 +0.00    +0.006 A  
DOCKED: ATOM     19  C   UNL     1     -59.729 -36.044   9.527 -0.05 +0.00    +0.001 A  
DOCKED: ATOM     20  C   UNL     1     -60.783 -35.624  10.340 -0.02 +0.00    +0.029 A  
DOCKED: ATOM     21  C   UNL     1     -61.751 -36.538  10.753 -0.01 +0.00    +0.140 A  
DOCKED: ATOM     22  C   UNL     1     -61.668 -37.872  10.354 -0.07 +0.00    +0.029 A  
DOCKED: ATOM     23  F   UNL     1     -62.764 -36.135  11.531 +0.01 -0.00    -0.204 F  
DOCKED: ATOM     24  C   UNL     1     -60.614 -38.293   9.542 -0.12 +0.00    +0.001 A  
DOCKED: ENDBRANCH   2  18
DOCKED: TORSDOF 5
DOCKED: TER
DOCKED: ENDMDL
________________________________________________________________________________


    FINAL DOCKED STATE:
    ________________________


Run:   246 / 512
Time taken for this run:   0.002s

DOCKED: MODEL        246
DOCKED: USER    Run = 246
DOCKED: USER
DOCKED: USER    Estimated Free Energy of Binding    =  -4.14 kcal/mol  [=(1)+(2)+(3)-(4)]
DOCKED: USER
DOCKED: USER    (1) Final Intermolecular Energy     =  -5.63 kcal/mol
DOCKED: USER        vdW + Hbond + desolv Energy     =  -5.63 kcal/mol
DOCKED: USER        Electrostatic Energy            =  +0.00 kcal/mol
DOCKED: USER        Moving Ligand-Fixed Receptor    =  -5.63 kcal/mol
DOCKED: USER        Moving Ligand-Moving Receptor   =  +0.00 kcal/mol
DOCKED: USER    (2) Final Total Internal Energy     =  -1.06 kcal/mol
DOCKED: USER    (3) Torsional Free Energy           =  +1.49 kcal/mol
DOCKED: USER    (4) Unbound System's Energy         =  -1.06 kcal/mol
DOCKED: USER
DOCKED: USER
DOCKED: REMARK  5 active torsions:
DOCKED: REMARK  status: ('A' for Active; 'I' for Inactive)
DOCKED: REMARK    1  A    between atoms: C_2  and  C_19 
DOCKED: REMARK    2  A    between atoms: C_2  and  C_11 
DOCKED: REMARK    3  A    between atoms: C_19  and  C_20 
DOCKED: REMARK    4  A    between atoms: C_20  and  C_21 
DOCKED: REMARK    5  A    between atoms: C_21  and  N_22 
DOCKED: USER                              x       y       z     vdW  Elec       q    Type
DOCKED: USER                           _______ _______ _______ _____ _____    ______ ____
DOCKED: ROOT
DOCKED: ATOM      1  O   UNL     1     -58.883 -38.748   8.951 -0.07 -0.00    -0.346 OA 
DOCKED: ATOM      2  C   UNL     1     -58.596 -37.424   8.399 -0.12 +0.00    +0.130 C  
DOCKED: ATOM      3  C   UNL     1     -58.788 -37.601   6.920 -0.26 +0.00    +0.004 A  
DOCKED: ATOM      4  C   UNL     1     -59.252 -38.882   6.660 -0.30 +0.00    +0.006 A  
DOCKED: ATOM      5  C   UNL     1     -59.409 -39.627   7.929 -0.10 +0.00    +0.169 C  
DOCKED: ATOM      6  C   UNL     1     -58.580 -36.696   5.889 -0.32 -0.00    -0.001 A  
DOCKED: ATOM      7  C   UNL     1     -59.518 -39.304   5.368 -0.41 +0.00    +0.008 A  
DOCKED: ATOM      8  C   UNL     1     -58.839 -37.108   4.581 +0.09 +0.00    +0.010 A  
DOCKED: ATOM      9  C   UNL     1     -59.307 -38.405   4.322 -0.40 +0.00    +0.068 A  
DOCKED: ATOM     10  N   UNL     1     -59.784 -39.135   1.882 -2.49 -0.00    -0.191 NA 
DOCKED: ATOM     11  C   UNL     1     -59.570 -38.808   2.977 -0.42 +0.00    +0.101 C  
DOCKED: ENDROOT
DOCKED: BRANCH   2  12
DOCKED: ATOM     12  C   UNL     1     -59.571 -36.424   9.008 -0.08 +0.00    +0.038 C  
DOCKED: BRANCH  12  13
DOCKED: ATOM     13  C   UNL     1     -61.012 -36.738   8.609 -0.11 +0.00    +0.038 C  
DOCKED: BRANCH  13  14
DOCKED: ATOM     14  C   UNL     1     -61.833 -37.181   9.819 -0.02 +0.00    +0.251 C  
DOCKED: BRANCH  14  15
DOCKED: ATOM     15  N   UNL     1     -62.534 -36.042  10.401 -0.03 +0.00    +0.141 N  
DOCKED: ATOM     16  C   UNL     1     -61.786 -35.501  11.536 +0.00 +0.00    +0.285 C  
DOCKED: ATOM     17  C   UNL     1     -62.752 -35.002   9.394 -0.01 +0.00    +0.285 C  
DOCKED: ENDBRANCH  14  15
DOCKED: ENDBRANCH  13  14
DOCKED: ENDBRANCH  12  13
DOCKED: ENDBRANCH   2  12
DOCKED: BRANCH   2  18
DOCKED: ATOM     18  C   UNL     1     -57.187 -37.094   8.767 -0.15 +0.00    +0.006 A  
DOCKED: ATOM     19  C   UNL     1     -56.381 -38.059   9.368 -0.10 +0.00    +0.001 A  
DOCKED: ATOM     20  C   UNL     1     -55.064 -37.750   9.712 -0.01 +0.00    +0.029 A  
DOCKED: ATOM     21  C   UNL     1     -54.557 -36.477   9.454 -0.09 +0.00    +0.140 A  
DOCKED: ATOM     22  C   UNL     1     -55.364 -35.513   8.852 -0.10 +0.00    +0.029 A  
DOCKED: ATOM     23  F   UNL     1     -53.292 -36.181   9.782 -0.01 -0.00    -0.204 F  
DOCKED: ATOM     24  C   UNL     1     -56.681 -35.821   8.508 -0.13 +0.00    +0.001 A  
DOCKED: ENDBRANCH   2  18
DOCKED: TORSDOF 5
DOCKED: TER
DOCKED: ENDMDL
________________________________________________________________________________


    FINAL DOCKED STATE:
    ________________________


Run:   247 / 512
Time taken for this run:   0.002s

DOCKED: MODEL        247
DOCKED: USER    Run = 247
DOCKED: USER
DOCKED: USER    Estimated Free Energy of Binding    =  -4.22 kcal/mol  [=(1)+(2)+(3)-(4)]
DOCKED: USER
DOCKED: USER    (1) Final Intermolecular Energy     =  -5.71 kcal/mol
DOCKED: USER        vdW + Hbond + desolv Energy     =  -5.71 kcal/mol
DOCKED: USER        Electrostatic Energy            =  +0.00 kcal/mol
DOCKED: USER        Moving Ligand-Fixed Receptor    =  -5.71 kcal/mol
DOCKED: USER        Moving Ligand-Moving Receptor   =  +0.00 kcal/mol
DOCKED: USER    (2) Final Total Internal Energy     =  -1.42 kcal/mol
DOCKED: USER    (3) Torsional Free Energy           =  +1.49 kcal/mol
DOCKED: USER    (4) Unbound System's Energy         =  -1.42 kcal/mol
DOCKED: USER
DOCKED: USER
DOCKED: REMARK  5 active torsions:
DOCKED: REMARK  status: ('A' for Active; 'I' for Inactive)
DOCKED: REMARK    1  A    between atoms: C_2  and  C_19 
DOCKED: REMARK    2  A    between atoms: C_2  and  C_11 
DOCKED: REMARK    3  A    between atoms: C_19  and  C_20 
DOCKED: REMARK    4  A    between atoms: C_20  and  C_21 
DOCKED: REMARK    5  A    between atoms: C_21  and  N_22 
DOCKED: USER                              x       y       z     vdW  Elec       q    Type
DOCKED: USER                           _______ _______ _______ _____ _____    ______ ____
DOCKED: ROOT
DOCKED: ATOM      1  O   UNL     1     -56.988 -34.178   7.353 -0.06 -0.00    -0.346 OA 
DOCKED: ATOM      2  C   UNL     1     -58.402 -34.187   7.729 -0.12 +0.00    +0.130 C  
DOCKED: ATOM      3  C   UNL     1     -58.902 -35.506   7.215 -0.21 +0.00    +0.004 A  
DOCKED: ATOM      4  C   UNL     1     -57.844 -36.235   6.691 -0.28 +0.00    +0.006 A  
DOCKED: ATOM      5  C   UNL     1     -56.587 -35.466   6.831 -0.13 +0.00    +0.169 C  
DOCKED: ATOM      6  C   UNL     1     -60.189 -36.025   7.222 -0.20 -0.00    -0.001 A  
DOCKED: ATOM      7  C   UNL     1     -58.034 -37.497   6.155 -0.34 +0.00    +0.008 A  
DOCKED: ATOM      8  C   UNL     1     -60.397 -37.295   6.681 -0.23 +0.00    +0.010 A  
DOCKED: ATOM      9  C   UNL     1     -59.325 -38.027   6.150 -0.27 +0.00    +0.068 A  
DOCKED: ATOM     10  N   UNL     1     -59.745 -40.383   5.158 -2.46 -0.00    -0.191 NA 
DOCKED: ATOM     11  C   UNL     1     -59.557 -39.326   5.602 -0.36 +0.00    +0.101 C  
DOCKED: ENDROOT
DOCKED: BRANCH   2  12
DOCKED: ATOM     12  C   UNL     1     -58.500 -34.065   9.245 -0.04 +0.00    +0.038 C  
DOCKED: BRANCH  12  13
DOCKED: ATOM     13  C   UNL     1     -58.150 -32.654   9.714 -0.02 +0.00    +0.038 C  
DOCKED: BRANCH  13  14
DOCKED: ATOM     14  C   UNL     1     -56.656 -32.377   9.554 -0.01 +0.00    +0.251 C  
DOCKED: BRANCH  14  15
DOCKED: ATOM     15  N   UNL     1     -56.446 -31.184   8.742 -0.01 +0.00    +0.141 N  
DOCKED: ATOM     16  C   UNL     1     -57.502 -30.201   8.986 -0.00 +0.00    +0.285 C  
DOCKED: ATOM     17  C   UNL     1     -55.133 -30.598   9.017 -0.00 +0.00    +0.285 C  
DOCKED: ENDBRANCH  14  15
DOCKED: ENDBRANCH  13  14
DOCKED: ENDBRANCH  12  13
DOCKED: ENDBRANCH   2  12
DOCKED: BRANCH   2  18
DOCKED: ATOM     18  C   UNL     1     -59.041 -33.020   7.053 -0.17 +0.00    +0.006 A  
DOCKED: ATOM     19  C   UNL     1     -58.280 -32.187   6.234 -0.15 +0.00    +0.001 A  
DOCKED: ATOM     20  C   UNL     1     -58.878 -31.096   5.602 -0.15 +0.00    +0.029 A  
DOCKED: ATOM     21  C   UNL     1     -60.235 -30.840   5.790 -0.13 +0.00    +0.140 A  
DOCKED: ATOM     22  C   UNL     1     -60.996 -31.674   6.609 -0.17 +0.00    +0.029 A  
DOCKED: ATOM     23  F   UNL     1     -60.809 -29.794   5.182 -0.02 -0.00    -0.204 F  
DOCKED: ATOM     24  C   UNL     1     -60.399 -32.765   7.242 -0.18 +0.00    +0.001 A  
DOCKED: ENDBRANCH   2  18
DOCKED: TORSDOF 5
DOCKED: TER
DOCKED: ENDMDL
________________________________________________________________________________


    FINAL DOCKED STATE:
    ________________________


Run:   248 / 512
Time taken for this run:   0.002s

DOCKED: MODEL        248
DOCKED: USER    Run = 248
DOCKED: USER
DOCKED: USER    Estimated Free Energy of Binding    =  -3.66 kcal/mol  [=(1)+(2)+(3)-(4)]
DOCKED: USER
DOCKED: USER    (1) Final Intermolecular Energy     =  -5.15 kcal/mol
DOCKED: USER        vdW + Hbond + desolv Energy     =  -5.15 kcal/mol
DOCKED: USER        Electrostatic Energy            =  +0.00 kcal/mol
DOCKED: USER        Moving Ligand-Fixed Receptor    =  -5.15 kcal/mol
DOCKED: USER        Moving Ligand-Moving Receptor   =  +0.00 kcal/mol
DOCKED: USER    (2) Final Total Internal Energy     =  -1.46 kcal/mol
DOCKED: USER    (3) Torsional Free Energy           =  +1.49 kcal/mol
DOCKED: USER    (4) Unbound System's Energy         =  -1.46 kcal/mol
DOCKED: USER
DOCKED: USER
DOCKED: REMARK  5 active torsions:
DOCKED: REMARK  status: ('A' for Active; 'I' for Inactive)
DOCKED: REMARK    1  A    between atoms: C_2  and  C_19 
DOCKED: REMARK    2  A    between atoms: C_2  and  C_11 
DOCKED: REMARK    3  A    between atoms: C_19  and  C_20 
DOCKED: REMARK    4  A    between atoms: C_20  and  C_21 
DOCKED: REMARK    5  A    between atoms: C_21  and  N_22 
DOCKED: USER                              x       y       z     vdW  Elec       q    Type
DOCKED: USER                           _______ _______ _______ _____ _____    ______ ____
DOCKED: ROOT
DOCKED: ATOM      1  O   UNL     1     -53.389 -34.725   1.071 -0.06 -0.00    -0.346 OA 
DOCKED: ATOM      2  C   UNL     1     -52.134 -34.603   1.814 -0.11 +0.00    +0.130 C  
DOCKED: ATOM      3  C   UNL     1     -51.913 -35.978   2.375 -0.19 +0.00    +0.004 A  
DOCKED: ATOM      4  C   UNL     1     -52.894 -36.838   1.902 -0.31 +0.00    +0.006 A  
DOCKED: ATOM      5  C   UNL     1     -53.812 -36.107   1.000 -0.16 +0.00    +0.169 C  
DOCKED: ATOM      6  C   UNL     1     -50.916 -36.434   3.225 -0.14 -0.00    -0.001 A  
DOCKED: ATOM      7  C   UNL     1     -52.917 -38.174   2.264 -0.20 +0.00    +0.008 A  
DOCKED: ATOM      8  C   UNL     1     -50.927 -37.778   3.603 -0.20 +0.00    +0.010 A  
DOCKED: ATOM      9  C   UNL     1     -51.922 -38.643   3.124 -0.28 +0.00    +0.068 A  
DOCKED: ATOM     10  N   UNL     1     -51.911 -41.133   3.841 -2.25 -0.00    -0.191 NA 
DOCKED: ATOM     11  C   UNL     1     -51.917 -40.016   3.520 -0.39 +0.00    +0.101 C  
DOCKED: ENDROOT
DOCKED: BRANCH   2  12
DOCKED: ATOM     12  C   UNL     1     -51.039 -34.174   0.845 -0.05 +0.00    +0.038 C  
DOCKED: BRANCH  12  13
DOCKED: ATOM     13  C   UNL     1     -51.624 -33.489  -0.389 -0.07 +0.00    +0.038 C  
DOCKED: BRANCH  13  14
DOCKED: ATOM     14  C   UNL     1     -51.922 -32.017  -0.111 -0.02 +0.00    +0.251 C  
DOCKED: BRANCH  14  15
DOCKED: ATOM     15  N   UNL     1     -53.238 -31.660  -0.627 -0.08 +0.00    +0.141 N  
DOCKED: ATOM     16  C   UNL     1     -53.438 -32.223  -1.964 -0.16 +0.00    +0.285 C  
DOCKED: ATOM     17  C   UNL     1     -54.291 -32.121   0.280 -0.11 +0.00    +0.285 C  
DOCKED: ENDBRANCH  14  15
DOCKED: ENDBRANCH  13  14
DOCKED: ENDBRANCH  12  13
DOCKED: ENDBRANCH   2  12
DOCKED: BRANCH   2  18
DOCKED: ATOM     18  C   UNL     1     -52.352 -33.572   2.871 -0.08 +0.00    +0.006 A  
DOCKED: ATOM     19  C   UNL     1     -53.578 -33.500   3.531 -0.14 +0.00    +0.001 A  
DOCKED: ATOM     20  C   UNL     1     -53.781 -32.535   4.519 -0.09 +0.00    +0.029 A  
DOCKED: ATOM     21  C   UNL     1     -52.758 -31.646   4.846 -0.02 +0.00    +0.140 A  
DOCKED: ATOM     22  C   UNL     1     -51.532 -31.720   4.186 -0.02 +0.00    +0.029 A  
DOCKED: ATOM     23  F   UNL     1     -52.952 -30.722   5.796 +0.00 -0.00    -0.204 F  
DOCKED: ATOM     24  C   UNL     1     -51.328 -32.684   3.197 -0.02 +0.00    +0.001 A  
DOCKED: ENDBRANCH   2  18
DOCKED: TORSDOF 5
DOCKED: TER
DOCKED: ENDMDL
________________________________________________________________________________


    FINAL DOCKED STATE:
    ________________________


Run:   249 / 512
Time taken for this run:   0.002s

DOCKED: MODEL        249
DOCKED: USER    Run = 249
DOCKED: USER
DOCKED: USER    Estimated Free Energy of Binding    =  -4.03 kcal/mol  [=(1)+(2)+(3)-(4)]
DOCKED: USER
DOCKED: USER    (1) Final Intermolecular Energy     =  -5.53 kcal/mol
DOCKED: USER        vdW + Hbond + desolv Energy     =  -5.53 kcal/mol
DOCKED: USER        Electrostatic Energy            =  +0.00 kcal/mol
DOCKED: USER        Moving Ligand-Fixed Receptor    =  -5.53 kcal/mol
DOCKED: USER        Moving Ligand-Moving Receptor   =  +0.00 kcal/mol
DOCKED: USER    (2) Final Total Internal Energy     =  -1.28 kcal/mol
DOCKED: USER    (3) Torsional Free Energy           =  +1.49 kcal/mol
DOCKED: USER    (4) Unbound System's Energy         =  -1.28 kcal/mol
DOCKED: USER
DOCKED: USER
DOCKED: REMARK  5 active torsions:
DOCKED: REMARK  status: ('A' for Active; 'I' for Inactive)
DOCKED: REMARK    1  A    between atoms: C_2  and  C_19 
DOCKED: REMARK    2  A    between atoms: C_2  and  C_11 
DOCKED: REMARK    3  A    between atoms: C_19  and  C_20 
DOCKED: REMARK    4  A    between atoms: C_20  and  C_21 
DOCKED: REMARK    5  A    between atoms: C_21  and  N_22 
DOCKED: USER                              x       y       z     vdW  Elec       q    Type
DOCKED: USER                           _______ _______ _______ _____ _____    ______ ____
DOCKED: ROOT
DOCKED: ATOM      1  O   UNL     1     -60.281 -33.719   7.857 -0.05 -0.00    -0.346 OA 
DOCKED: ATOM      2  C   UNL     1     -58.962 -33.844   7.236 -0.17 +0.00    +0.130 C  
DOCKED: ATOM      3  C   UNL     1     -58.925 -35.266   6.756 -0.23 +0.00    +0.004 A  
DOCKED: ATOM      4  C   UNL     1     -60.155 -35.868   6.983 -0.22 +0.00    +0.006 A  
DOCKED: ATOM      5  C   UNL     1     -61.081 -34.898   7.607 -0.15 +0.00    +0.169 C  
DOCKED: ATOM      6  C   UNL     1     -57.890 -35.968   6.156 -0.28 -0.00    -0.001 A  
DOCKED: ATOM      7  C   UNL     1     -60.390 -37.184   6.624 -0.23 +0.00    +0.008 A  
DOCKED: ATOM      8  C   UNL     1     -58.110 -37.298   5.792 -0.34 +0.00    +0.010 A  
DOCKED: ATOM      9  C   UNL     1     -59.354 -37.902   6.025 -0.27 +0.00    +0.068 A  
DOCKED: ATOM     10  N   UNL     1     -59.731 -40.371   5.333 -2.55 -0.00    -0.191 NA 
DOCKED: ATOM     11  C   UNL     1     -59.562 -39.264   5.644 -0.37 +0.00    +0.101 C  
DOCKED: ENDROOT
DOCKED: BRANCH   2  12
DOCKED: ATOM     12  C   UNL     1     -58.864 -32.832   6.101 -0.13 +0.00    +0.038 C  
DOCKED: BRANCH  12  13
DOCKED: ATOM     13  C   UNL     1     -60.055 -31.875   6.105 -0.20 +0.00    +0.038 C  
DOCKED: BRANCH  13  14
DOCKED: ATOM     14  C   UNL     1     -59.697 -30.555   6.785 -0.06 +0.00    +0.251 C  
DOCKED: BRANCH  14  15
DOCKED: ATOM     15  N   UNL     1     -60.861 -30.006   7.470 -0.03 +0.00    +0.141 N  
DOCKED: ATOM     16  C   UNL     1     -61.417 -28.879   6.720 -0.01 +0.00    +0.285 C  
DOCKED: ATOM     17  C   UNL     1     -61.880 -31.038   7.665 -0.03 +0.00    +0.285 C  
DOCKED: ENDBRANCH  14  15
DOCKED: ENDBRANCH  13  14
DOCKED: ENDBRANCH  12  13
DOCKED: ENDBRANCH   2  12
DOCKED: BRANCH   2  18
DOCKED: ATOM     18  C   UNL     1     -57.952 -33.563   8.298 -0.07 +0.00    +0.006 A  
DOCKED: ATOM     19  C   UNL     1     -58.351 -33.454   9.629 -0.02 +0.00    +0.001 A  
DOCKED: ATOM     20  C   UNL     1     -57.406 -33.190  10.620 -0.01 +0.00    +0.029 A  
DOCKED: ATOM     21  C   UNL     1     -56.063 -33.036  10.280 -0.00 +0.00    +0.140 A  
DOCKED: ATOM     22  C   UNL     1     -55.663 -33.145   8.948 -0.03 +0.00    +0.029 A  
DOCKED: ATOM     23  F   UNL     1     -55.155 -32.785  11.232 +0.00 -0.00    -0.204 F  
DOCKED: ATOM     24  C   UNL     1     -56.609 -33.409   7.955 -0.08 +0.00    +0.001 A  
DOCKED: ENDBRANCH   2  18
DOCKED: TORSDOF 5
DOCKED: TER
DOCKED: ENDMDL
________________________________________________________________________________


    FINAL DOCKED STATE:
    ________________________


Run:   250 / 512
Time taken for this run:   0.002s

DOCKED: MODEL        250
DOCKED: USER    Run = 250
DOCKED: USER
DOCKED: USER    Estimated Free Energy of Binding    =  -4.13 kcal/mol  [=(1)+(2)+(3)-(4)]
DOCKED: USER
DOCKED: USER    (1) Final Intermolecular Energy     =  -5.62 kcal/mol
DOCKED: USER        vdW + Hbond + desolv Energy     =  -5.62 kcal/mol
DOCKED: USER        Electrostatic Energy            =  +0.00 kcal/mol
DOCKED: USER        Moving Ligand-Fixed Receptor    =  -5.62 kcal/mol
DOCKED: USER        Moving Ligand-Moving Receptor   =  +0.00 kcal/mol
DOCKED: USER    (2) Final Total Internal Energy     =  -1.29 kcal/mol
DOCKED: USER    (3) Torsional Free Energy           =  +1.49 kcal/mol
DOCKED: USER    (4) Unbound System's Energy         =  -1.29 kcal/mol
DOCKED: USER
DOCKED: USER
DOCKED: REMARK  5 active torsions:
DOCKED: REMARK  status: ('A' for Active; 'I' for Inactive)
DOCKED: REMARK    1  A    between atoms: C_2  and  C_19 
DOCKED: REMARK    2  A    between atoms: C_2  and  C_11 
DOCKED: REMARK    3  A    between atoms: C_19  and  C_20 
DOCKED: REMARK    4  A    between atoms: C_20  and  C_21 
DOCKED: REMARK    5  A    between atoms: C_21  and  N_22 
DOCKED: USER                              x       y       z     vdW  Elec       q    Type
DOCKED: USER                           _______ _______ _______ _____ _____    ______ ____
DOCKED: ROOT
DOCKED: ATOM      1  O   UNL     1     -55.981 -34.775   8.151 -0.04 -0.00    -0.346 OA 
DOCKED: ATOM      2  C   UNL     1     -57.294 -34.307   7.706 -0.12 +0.00    +0.130 C  
DOCKED: ATOM      3  C   UNL     1     -57.931 -35.533   7.117 -0.23 +0.00    +0.004 A  
DOCKED: ATOM      4  C   UNL     1     -57.102 -36.629   7.309 -0.24 +0.00    +0.006 A  
DOCKED: ATOM      5  C   UNL     1     -55.882 -36.214   8.038 -0.14 +0.00    +0.169 C  
DOCKED: ATOM      6  C   UNL     1     -59.153 -35.669   6.473 -0.25 -0.00    -0.001 A  
DOCKED: ATOM      7  C   UNL     1     -57.459 -37.890   6.863 -0.32 +0.00    +0.008 A  
DOCKED: ATOM      8  C   UNL     1     -59.526 -36.933   6.014 -0.24 +0.00    +0.010 A  
DOCKED: ATOM      9  C   UNL     1     -58.683 -38.038   6.209 -0.30 +0.00    +0.068 A  
DOCKED: ATOM     10  N   UNL     1     -59.408 -40.372   5.349 -2.61 -0.00    -0.191 NA 
DOCKED: ATOM     11  C   UNL     1     -59.082 -39.325   5.734 -0.34 +0.00    +0.101 C  
DOCKED: ENDROOT
DOCKED: BRANCH   2  12
DOCKED: ATOM     12  C   UNL     1     -58.050 -33.768   8.914 -0.05 +0.00    +0.038 C  
DOCKED: BRANCH  12  13
DOCKED: ATOM     13  C   UNL     1     -57.205 -33.855  10.184 -0.02 +0.00    +0.038 C  
DOCKED: BRANCH  13  14
DOCKED: ATOM     14  C   UNL     1     -56.260 -32.660  10.297 -0.00 +0.00    +0.251 C  
DOCKED: BRANCH  14  15
DOCKED: ATOM     15  N   UNL     1     -55.126 -32.991  11.153 -0.00 +0.00    +0.141 N  
DOCKED: ATOM     16  C   UNL     1     -53.967 -33.379  10.348 -0.00 +0.00    +0.285 C  
DOCKED: ATOM     17  C   UNL     1     -54.787 -31.860  12.018 +0.00 +0.00    +0.285 C  
DOCKED: ENDBRANCH  14  15
DOCKED: ENDBRANCH  13  14
DOCKED: ENDBRANCH  12  13
DOCKED: ENDBRANCH   2  12
DOCKED: BRANCH   2  18
DOCKED: ATOM     18  C   UNL     1     -57.055 -33.234   6.697 -0.15 +0.00    +0.006 A  
DOCKED: ATOM     19  C   UNL     1     -58.037 -32.274   6.455 -0.15 +0.00    +0.001 A  
DOCKED: ATOM     20  C   UNL     1     -57.813 -31.271   5.511 -0.12 +0.00    +0.029 A  
DOCKED: ATOM     21  C   UNL     1     -56.608 -31.230   4.811 -0.04 +0.00    +0.140 A  
DOCKED: ATOM     22  C   UNL     1     -55.627 -32.191   5.053 -0.09 +0.00    +0.029 A  
DOCKED: ATOM     23  F   UNL     1     -56.392 -30.266   3.906 -0.02 -0.00    -0.204 F  
DOCKED: ATOM     24  C   UNL     1     -55.850 -33.194   5.996 -0.15 +0.00    +0.001 A  
DOCKED: ENDBRANCH   2  18
DOCKED: TORSDOF 5
DOCKED: TER
DOCKED: ENDMDL
________________________________________________________________________________


    FINAL DOCKED STATE:
    ________________________


Run:   251 / 512
Time taken for this run:   0.002s

DOCKED: MODEL        251
DOCKED: USER    Run = 251
DOCKED: USER
DOCKED: USER    Estimated Free Energy of Binding    =  -4.10 kcal/mol  [=(1)+(2)+(3)-(4)]
DOCKED: USER
DOCKED: USER    (1) Final Intermolecular Energy     =  -5.59 kcal/mol
DOCKED: USER        vdW + Hbond + desolv Energy     =  -5.59 kcal/mol
DOCKED: USER        Electrostatic Energy            =  +0.00 kcal/mol
DOCKED: USER        Moving Ligand-Fixed Receptor    =  -5.59 kcal/mol
DOCKED: USER        Moving Ligand-Moving Receptor   =  +0.00 kcal/mol
DOCKED: USER    (2) Final Total Internal Energy     =  -1.35 kcal/mol
DOCKED: USER    (3) Torsional Free Energy           =  +1.49 kcal/mol
DOCKED: USER    (4) Unbound System's Energy         =  -1.35 kcal/mol
DOCKED: USER
DOCKED: USER
DOCKED: REMARK  5 active torsions:
DOCKED: REMARK  status: ('A' for Active; 'I' for Inactive)
DOCKED: REMARK    1  A    between atoms: C_2  and  C_19 
DOCKED: REMARK    2  A    between atoms: C_2  and  C_11 
DOCKED: REMARK    3  A    between atoms: C_19  and  C_20 
DOCKED: REMARK    4  A    between atoms: C_20  and  C_21 
DOCKED: REMARK    5  A    between atoms: C_21  and  N_22 
DOCKED: USER                              x       y       z     vdW  Elec       q    Type
DOCKED: USER                           _______ _______ _______ _____ _____    ______ ____
DOCKED: ROOT
DOCKED: ATOM      1  O   UNL     1     -56.056 -34.865   8.407 -0.03 -0.00    -0.346 OA 
DOCKED: ATOM      2  C   UNL     1     -57.266 -34.343   7.770 -0.12 +0.00    +0.130 C  
DOCKED: ATOM      3  C   UNL     1     -57.891 -35.553   7.139 -0.23 +0.00    +0.004 A  
DOCKED: ATOM      4  C   UNL     1     -57.163 -36.685   7.478 -0.23 +0.00    +0.006 A  
DOCKED: ATOM      5  C   UNL     1     -56.030 -36.310   8.354 -0.15 +0.00    +0.169 C  
DOCKED: ATOM      6  C   UNL     1     -59.020 -35.647   6.339 -0.22 -0.00    -0.001 A  
DOCKED: ATOM      7  C   UNL     1     -57.532 -37.941   7.028 -0.31 +0.00    +0.008 A  
DOCKED: ATOM      8  C   UNL     1     -59.403 -36.906   5.874 -0.23 +0.00    +0.010 A  
DOCKED: ATOM      9  C   UNL     1     -58.663 -38.047   6.218 -0.30 +0.00    +0.068 A  
DOCKED: ATOM     10  N   UNL     1     -59.405 -40.370   5.342 -2.61 -0.00    -0.191 NA 
DOCKED: ATOM     11  C   UNL     1     -59.072 -39.328   5.734 -0.34 +0.00    +0.101 C  
DOCKED: ENDROOT
DOCKED: BRANCH   2  12
DOCKED: ATOM     12  C   UNL     1     -58.144 -33.714   8.845 -0.05 +0.00    +0.038 C  
DOCKED: BRANCH  12  13
DOCKED: ATOM     13  C   UNL     1     -58.046 -34.480  10.163 -0.02 +0.00    +0.038 C  
DOCKED: BRANCH  13  14
DOCKED: ATOM     14  C   UNL     1     -59.355 -35.202  10.478 -0.01 +0.00    +0.251 C  
DOCKED: BRANCH  14  15
DOCKED: ATOM     15  N   UNL     1     -59.107 -36.618  10.722 -0.02 +0.00    +0.141 N  
DOCKED: ATOM     16  C   UNL     1     -58.681 -36.836  12.105 -0.01 +0.00    +0.285 C  
DOCKED: ATOM     17  C   UNL     1     -60.304 -37.409  10.429 -0.02 +0.00    +0.285 C  
DOCKED: ENDBRANCH  14  15
DOCKED: ENDBRANCH  13  14
DOCKED: ENDBRANCH  12  13
DOCKED: ENDBRANCH   2  12
DOCKED: BRANCH   2  18
DOCKED: ATOM     18  C   UNL     1     -56.828 -33.326   6.769 -0.15 +0.00    +0.006 A  
DOCKED: ATOM     19  C   UNL     1     -57.473 -32.091   6.704 -0.12 +0.00    +0.001 A  
DOCKED: ATOM     20  C   UNL     1     -57.063 -31.141   5.767 -0.10 +0.00    +0.029 A  
DOCKED: ATOM     21  C   UNL     1     -56.010 -31.427   4.899 -0.07 +0.00    +0.140 A  
DOCKED: ATOM     22  C   UNL     1     -55.366 -32.662   4.965 -0.10 +0.00    +0.029 A  
DOCKED: ATOM     23  F   UNL     1     -55.616 -30.514   4.002 -0.02 -0.00    -0.204 F  
DOCKED: ATOM     24  C   UNL     1     -55.776 -33.613   5.901 -0.15 +0.00    +0.001 A  
DOCKED: ENDBRANCH   2  18
DOCKED: TORSDOF 5
DOCKED: TER
DOCKED: ENDMDL
________________________________________________________________________________


    FINAL DOCKED STATE:
    ________________________


Run:   252 / 512
Time taken for this run:   0.002s

DOCKED: MODEL        252
DOCKED: USER    Run = 252
DOCKED: USER
DOCKED: USER    Estimated Free Energy of Binding    =  -4.22 kcal/mol  [=(1)+(2)+(3)-(4)]
DOCKED: USER
DOCKED: USER    (1) Final Intermolecular Energy     =  -5.71 kcal/mol
DOCKED: USER        vdW + Hbond + desolv Energy     =  -5.71 kcal/mol
DOCKED: USER        Electrostatic Energy            =  +0.00 kcal/mol
DOCKED: USER        Moving Ligand-Fixed Receptor    =  -5.71 kcal/mol
DOCKED: USER        Moving Ligand-Moving Receptor   =  +0.00 kcal/mol
DOCKED: USER    (2) Final Total Internal Energy     =  -1.01 kcal/mol
DOCKED: USER    (3) Torsional Free Energy           =  +1.49 kcal/mol
DOCKED: USER    (4) Unbound System's Energy         =  -1.01 kcal/mol
DOCKED: USER
DOCKED: USER
DOCKED: REMARK  5 active torsions:
DOCKED: REMARK  status: ('A' for Active; 'I' for Inactive)
DOCKED: REMARK    1  A    between atoms: C_2  and  C_19 
DOCKED: REMARK    2  A    between atoms: C_2  and  C_11 
DOCKED: REMARK    3  A    between atoms: C_19  and  C_20 
DOCKED: REMARK    4  A    between atoms: C_20  and  C_21 
DOCKED: REMARK    5  A    between atoms: C_21  and  N_22 
DOCKED: USER                              x       y       z     vdW  Elec       q    Type
DOCKED: USER                           _______ _______ _______ _____ _____    ______ ____
DOCKED: ROOT
DOCKED: ATOM      1  O   UNL     1     -56.969 -34.319   7.555 -0.05 -0.00    -0.346 OA 
DOCKED: ATOM      2  C   UNL     1     -56.158 -35.422   8.069 -0.13 +0.00    +0.130 C  
DOCKED: ATOM      3  C   UNL     1     -56.813 -36.647   7.498 -0.23 +0.00    +0.004 A  
DOCKED: ATOM      4  C   UNL     1     -57.840 -36.272   6.644 -0.29 +0.00    +0.006 A  
DOCKED: ATOM      5  C   UNL     1     -57.927 -34.795   6.581 -0.19 +0.00    +0.169 C  
DOCKED: ATOM      6  C   UNL     1     -56.516 -37.985   7.709 -0.28 -0.00    -0.001 A  
DOCKED: ATOM      7  C   UNL     1     -58.605 -37.215   5.979 -0.34 +0.00    +0.008 A  
DOCKED: ATOM      8  C   UNL     1     -57.281 -38.949   7.049 -0.38 +0.00    +0.010 A  
DOCKED: ATOM      9  C   UNL     1     -58.320 -38.565   6.188 -0.33 +0.00    +0.068 A  
DOCKED: ATOM     10  N   UNL     1     -59.717 -40.378   4.974 -2.36 -0.00    -0.191 NA 
DOCKED: ATOM     11  C   UNL     1     -59.091 -39.565   5.519 -0.32 +0.00    +0.101 C  
DOCKED: ENDROOT
DOCKED: BRANCH   2  12
DOCKED: ATOM     12  C   UNL     1     -54.725 -35.235   7.583 -0.08 +0.00    +0.038 C  
DOCKED: BRANCH  12  13
DOCKED: ATOM     13  C   UNL     1     -53.725 -35.890   8.534 -0.13 +0.00    +0.038 C  
DOCKED: BRANCH  13  14
DOCKED: ATOM     14  C   UNL     1     -52.478 -36.356   7.783 -0.08 +0.00    +0.251 C  
DOCKED: BRANCH  14  15
DOCKED: ATOM     15  N   UNL     1     -52.248 -37.776   8.016 -0.16 +0.00    +0.141 N  
DOCKED: ATOM     16  C   UNL     1     -50.864 -38.134   7.697 -0.09 +0.00    +0.285 C  
DOCKED: ATOM     17  C   UNL     1     -52.556 -38.128   9.403 -0.08 +0.00    +0.285 C  
DOCKED: ENDBRANCH  14  15
DOCKED: ENDBRANCH  13  14
DOCKED: ENDBRANCH  12  13
DOCKED: ENDBRANCH   2  12
DOCKED: BRANCH   2  18
DOCKED: ATOM     18  C   UNL     1     -56.233 -35.363   9.558 -0.06 +0.00    +0.006 A  
DOCKED: ATOM     19  C   UNL     1     -56.462 -36.527  10.291 -0.07 +0.00    +0.001 A  
DOCKED: ATOM     20  C   UNL     1     -56.533 -36.469  11.684 -0.03 +0.00    +0.029 A  
DOCKED: ATOM     21  C   UNL     1     -56.374 -35.250  12.340 -0.00 +0.00    +0.140 A  
DOCKED: ATOM     22  C   UNL     1     -56.145 -34.087  11.606 -0.00 +0.00    +0.029 A  
DOCKED: ATOM     23  F   UNL     1     -56.440 -35.196  13.677 -0.00 -0.00    -0.204 F  
DOCKED: ATOM     24  C   UNL     1     -56.075 -34.143  10.213 -0.02 +0.00    +0.001 A  
DOCKED: ENDBRANCH   2  18
DOCKED: TORSDOF 5
DOCKED: TER
DOCKED: ENDMDL
________________________________________________________________________________


    FINAL DOCKED STATE:
    ________________________


Run:   253 / 512
Time taken for this run:   0.002s

DOCKED: MODEL        253
DOCKED: USER    Run = 253
DOCKED: USER
DOCKED: USER    Estimated Free Energy of Binding    =  -5.62 kcal/mol  [=(1)+(2)+(3)-(4)]
DOCKED: USER
DOCKED: USER    (1) Final Intermolecular Energy     =  -7.11 kcal/mol
DOCKED: USER        vdW + Hbond + desolv Energy     =  -7.11 kcal/mol
DOCKED: USER        Electrostatic Energy            =  +0.00 kcal/mol
DOCKED: USER        Moving Ligand-Fixed Receptor    =  -7.11 kcal/mol
DOCKED: USER        Moving Ligand-Moving Receptor   =  +0.00 kcal/mol
DOCKED: USER    (2) Final Total Internal Energy     =  -1.54 kcal/mol
DOCKED: USER    (3) Torsional Free Energy           =  +1.49 kcal/mol
DOCKED: USER    (4) Unbound System's Energy         =  -1.54 kcal/mol
DOCKED: USER
DOCKED: USER
DOCKED: REMARK  5 active torsions:
DOCKED: REMARK  status: ('A' for Active; 'I' for Inactive)
DOCKED: REMARK    1  A    between atoms: C_2  and  C_19 
DOCKED: REMARK    2  A    between atoms: C_2  and  C_11 
DOCKED: REMARK    3  A    between atoms: C_19  and  C_20 
DOCKED: REMARK    4  A    between atoms: C_20  and  C_21 
DOCKED: REMARK    5  A    between atoms: C_21  and  N_22 
DOCKED: USER                              x       y       z     vdW  Elec       q    Type
DOCKED: USER                           _______ _______ _______ _____ _____    ______ ____
DOCKED: ROOT
DOCKED: ATOM      1  O   UNL     1     -57.388 -36.049   7.767 -0.06 -0.00    -0.346 OA 
DOCKED: ATOM      2  C   UNL     1     -57.164 -37.494   7.830 -0.23 +0.00    +0.130 C  
DOCKED: ATOM      3  C   UNL     1     -57.724 -38.002   6.534 -0.34 +0.00    +0.004 A  
DOCKED: ATOM      4  C   UNL     1     -58.131 -36.932   5.750 -0.32 +0.00    +0.006 A  
DOCKED: ATOM      5  C   UNL     1     -57.862 -35.660   6.457 -0.24 +0.00    +0.169 C  
DOCKED: ATOM      6  C   UNL     1     -57.852 -39.306   6.079 -0.40 -0.00    -0.001 A  
DOCKED: ATOM      7  C   UNL     1     -58.682 -37.127   4.494 -0.02 +0.00    +0.008 A  
DOCKED: ATOM      8  C   UNL     1     -58.409 -39.519   4.817 -0.46 +0.00    +0.010 A  
DOCKED: ATOM      9  C   UNL     1     -58.821 -38.435   4.029 -0.41 +0.00    +0.068 A  
DOCKED: ATOM     10  N   UNL     1     -59.846 -38.865   1.688 -2.89 -0.00    -0.191 NA 
DOCKED: ATOM     11  C   UNL     1     -59.387 -38.672   2.738 -0.43 +0.00    +0.101 C  
DOCKED: ENDROOT
DOCKED: BRANCH   2  12
DOCKED: ATOM     12  C   UNL     1     -55.667 -37.744   7.969 -0.22 +0.00    +0.038 C  
DOCKED: BRANCH  12  13
DOCKED: ATOM     13  C   UNL     1     -54.925 -36.473   8.377 -0.18 +0.00    +0.038 C  
DOCKED: BRANCH  13  14
DOCKED: ATOM     14  C   UNL     1     -54.783 -36.383   9.895 -0.06 +0.00    +0.251 C  
DOCKED: BRANCH  14  15
DOCKED: ATOM     15  N   UNL     1     -55.308 -35.112  10.379 -0.02 +0.00    +0.141 N  
DOCKED: ATOM     16  C   UNL     1     -55.441 -34.156   9.279 -0.02 +0.00    +0.285 C  
DOCKED: ATOM     17  C   UNL     1     -56.599 -35.306  11.042 -0.01 +0.00    +0.285 C  
DOCKED: ENDBRANCH  14  15
DOCKED: ENDBRANCH  13  14
DOCKED: ENDBRANCH  12  13
DOCKED: ENDBRANCH   2  12
DOCKED: BRANCH   2  18
DOCKED: ATOM     18  C   UNL     1     -57.906 -37.999   9.022 -0.17 +0.00    +0.006 A  
DOCKED: ATOM     19  C   UNL     1     -58.982 -37.272   9.532 -0.09 +0.00    +0.001 A  
DOCKED: ATOM     20  C   UNL     1     -59.676 -37.745  10.646 -0.07 +0.00    +0.029 A  
DOCKED: ATOM     21  C   UNL     1     -59.293 -38.943  11.249 -0.10 +0.00    +0.140 A  
DOCKED: ATOM     22  C   UNL     1     -58.218 -39.669  10.739 -0.16 +0.00    +0.029 A  
DOCKED: ATOM     23  F   UNL     1     -59.961 -39.397  12.318 -0.02 -0.00    -0.204 F  
DOCKED: ATOM     24  C   UNL     1     -57.523 -39.196   9.624 -0.21 +0.00    +0.001 A  
DOCKED: ENDBRANCH   2  18
DOCKED: TORSDOF 5
DOCKED: TER
DOCKED: ENDMDL
________________________________________________________________________________


    FINAL DOCKED STATE:
    ________________________


Run:   254 / 512
Time taken for this run:   0.002s

DOCKED: MODEL        254
DOCKED: USER    Run = 254
DOCKED: USER
DOCKED: USER    Estimated Free Energy of Binding    =  -5.02 kcal/mol  [=(1)+(2)+(3)-(4)]
DOCKED: USER
DOCKED: USER    (1) Final Intermolecular Energy     =  -6.52 kcal/mol
DOCKED: USER        vdW + Hbond + desolv Energy     =  -6.52 kcal/mol
DOCKED: USER        Electrostatic Energy            =  +0.00 kcal/mol
DOCKED: USER        Moving Ligand-Fixed Receptor    =  -6.52 kcal/mol
DOCKED: USER        Moving Ligand-Moving Receptor   =  +0.00 kcal/mol
DOCKED: USER    (2) Final Total Internal Energy     =  -0.86 kcal/mol
DOCKED: USER    (3) Torsional Free Energy           =  +1.49 kcal/mol
DOCKED: USER    (4) Unbound System's Energy         =  -0.86 kcal/mol
DOCKED: USER
DOCKED: USER
DOCKED: REMARK  5 active torsions:
DOCKED: REMARK  status: ('A' for Active; 'I' for Inactive)
DOCKED: REMARK    1  A    between atoms: C_2  and  C_19 
DOCKED: REMARK    2  A    between atoms: C_2  and  C_11 
DOCKED: REMARK    3  A    between atoms: C_19  and  C_20 
DOCKED: REMARK    4  A    between atoms: C_20  and  C_21 
DOCKED: REMARK    5  A    between atoms: C_21  and  N_22 
DOCKED: USER                              x       y       z     vdW  Elec       q    Type
DOCKED: USER                           _______ _______ _______ _____ _____    ______ ____
DOCKED: ROOT
DOCKED: ATOM      1  O   UNL     1     -57.436 -37.456   8.059 -0.07 -0.00    -0.346 OA 
DOCKED: ATOM      2  C   UNL     1     -58.829 -37.873   8.223 -0.15 +0.00    +0.130 C  
DOCKED: ATOM      3  C   UNL     1     -59.276 -38.193   6.826 -0.26 +0.00    +0.004 A  
DOCKED: ATOM      4  C   UNL     1     -58.202 -38.077   5.954 -0.37 +0.00    +0.006 A  
DOCKED: ATOM      5  C   UNL     1     -56.986 -37.690   6.704 -0.14 +0.00    +0.169 C  
DOCKED: ATOM      6  C   UNL     1     -60.529 -38.569   6.365 -0.28 -0.00    -0.001 A  
DOCKED: ATOM      7  C   UNL     1     -58.343 -38.326   4.600 -0.28 +0.00    +0.008 A  
DOCKED: ATOM      8  C   UNL     1     -60.689 -38.819   5.001 -0.37 +0.00    +0.010 A  
DOCKED: ATOM      9  C   UNL     1     -59.601 -38.698   4.123 -0.42 +0.00    +0.068 A  
DOCKED: ATOM     10  N   UNL     1     -59.930 -39.175   1.598 -2.77 -0.00    -0.191 NA 
DOCKED: ATOM     11  C   UNL     1     -59.783 -38.960   2.730 -0.31 +0.00    +0.101 C  
DOCKED: ENDROOT
DOCKED: BRANCH   2  12
DOCKED: ATOM     12  C   UNL     1     -58.865 -39.083   9.150 -0.25 +0.00    +0.038 C  
DOCKED: BRANCH  12  13
DOCKED: ATOM     13  C   UNL     1     -59.897 -38.902  10.262 -0.17 +0.00    +0.038 C  
DOCKED: BRANCH  13  14
DOCKED: ATOM     14  C   UNL     1     -59.468 -39.633  11.532 -0.05 +0.00    +0.251 C  
DOCKED: BRANCH  14  15
DOCKED: ATOM     15  N   UNL     1     -60.638 -40.073  12.283 -0.16 +0.00    +0.141 N  
DOCKED: ATOM     16  C   UNL     1     -60.773 -39.308  13.523 -0.07 +0.00    +0.285 C  
DOCKED: ATOM     17  C   UNL     1     -61.850 -39.944  11.472 -0.08 +0.00    +0.285 C  
DOCKED: ENDBRANCH  14  15
DOCKED: ENDBRANCH  13  14
DOCKED: ENDBRANCH  12  13
DOCKED: ENDBRANCH   2  12
DOCKED: BRANCH   2  18
DOCKED: ATOM     18  C   UNL     1     -59.563 -36.718   8.818 -0.08 +0.00    +0.006 A  
DOCKED: ATOM     19  C   UNL     1     -58.956 -35.939   9.803 -0.04 +0.00    +0.001 A  
DOCKED: ATOM     20  C   UNL     1     -59.643 -34.859  10.358 -0.02 +0.00    +0.029 A  
DOCKED: ATOM     21  C   UNL     1     -60.935 -34.559   9.928 -0.01 +0.00    +0.140 A  
DOCKED: ATOM     22  C   UNL     1     -61.541 -35.338   8.942 -0.06 +0.00    +0.029 A  
DOCKED: ATOM     23  F   UNL     1     -61.594 -33.521  10.460 +0.01 -0.00    -0.204 F  
DOCKED: ATOM     24  C   UNL     1     -60.855 -36.419   8.387 -0.11 +0.00    +0.001 A  
DOCKED: ENDBRANCH   2  18
DOCKED: TORSDOF 5
DOCKED: TER
DOCKED: ENDMDL
________________________________________________________________________________


    FINAL DOCKED STATE:
    ________________________


Run:   255 / 512
Time taken for this run:   0.002s

DOCKED: MODEL        255
DOCKED: USER    Run = 255
DOCKED: USER
DOCKED: USER    Estimated Free Energy of Binding    =  -4.83 kcal/mol  [=(1)+(2)+(3)-(4)]
DOCKED: USER
DOCKED: USER    (1) Final Intermolecular Energy     =  -6.32 kcal/mol
DOCKED: USER        vdW + Hbond + desolv Energy     =  -6.32 kcal/mol
DOCKED: USER        Electrostatic Energy            =  +0.00 kcal/mol
DOCKED: USER        Moving Ligand-Fixed Receptor    =  -6.32 kcal/mol
DOCKED: USER        Moving Ligand-Moving Receptor   =  +0.00 kcal/mol
DOCKED: USER    (2) Final Total Internal Energy     =  -1.02 kcal/mol
DOCKED: USER    (3) Torsional Free Energy           =  +1.49 kcal/mol
DOCKED: USER    (4) Unbound System's Energy         =  -1.02 kcal/mol
DOCKED: USER
DOCKED: USER
DOCKED: REMARK  5 active torsions:
DOCKED: REMARK  status: ('A' for Active; 'I' for Inactive)
DOCKED: REMARK    1  A    between atoms: C_2  and  C_19 
DOCKED: REMARK    2  A    between atoms: C_2  and  C_11 
DOCKED: REMARK    3  A    between atoms: C_19  and  C_20 
DOCKED: REMARK    4  A    between atoms: C_20  and  C_21 
DOCKED: REMARK    5  A    between atoms: C_21  and  N_22 
DOCKED: USER                              x       y       z     vdW  Elec       q    Type
DOCKED: USER                           _______ _______ _______ _____ _____    ______ ____
DOCKED: ROOT
DOCKED: ATOM      1  O   UNL     1     -59.764 -38.305   8.490 -0.04 -0.00    -0.346 OA 
DOCKED: ATOM      2  C   UNL     1     -58.955 -37.250   7.877 -0.14 +0.00    +0.130 C  
DOCKED: ATOM      3  C   UNL     1     -59.040 -37.540   6.407 -0.30 +0.00    +0.004 A  
DOCKED: ATOM      4  C   UNL     1     -59.911 -38.598   6.189 -0.30 +0.00    +0.006 A  
DOCKED: ATOM      5  C   UNL     1     -60.463 -39.068   7.479 -0.15 +0.00    +0.169 C  
DOCKED: ATOM      6  C   UNL     1     -58.408 -36.909   5.346 -0.30 -0.00    -0.001 A  
DOCKED: ATOM      7  C   UNL     1     -60.174 -39.064   4.912 -0.41 +0.00    +0.008 A  
DOCKED: ATOM      8  C   UNL     1     -58.659 -37.369   4.052 -0.15 +0.00    +0.010 A  
DOCKED: ATOM      9  C   UNL     1     -59.538 -38.441   3.837 -0.41 +0.00    +0.068 A  
DOCKED: ATOM     10  N   UNL     1     -59.987 -39.267   1.422 -2.78 -0.00    -0.191 NA 
DOCKED: ATOM     11  C   UNL     1     -59.785 -38.897   2.505 -0.29 +0.00    +0.101 C  
DOCKED: ENDROOT
DOCKED: BRANCH   2  12
DOCKED: ATOM     12  C   UNL     1     -59.557 -35.901   8.253 -0.12 +0.00    +0.038 C  
DOCKED: BRANCH  12  13
DOCKED: ATOM     13  C   UNL     1     -58.541 -34.773   8.086 -0.12 +0.00    +0.038 C  
DOCKED: BRANCH  13  14
DOCKED: ATOM     14  C   UNL     1     -58.054 -34.266   9.442 -0.02 +0.00    +0.251 C  
DOCKED: BRANCH  14  15
DOCKED: ATOM     15  N   UNL     1     -57.497 -32.925   9.312 -0.01 +0.00    +0.141 N  
DOCKED: ATOM     16  C   UNL     1     -56.052 -32.986   9.091 -0.01 +0.00    +0.285 C  
DOCKED: ATOM     17  C   UNL     1     -58.148 -32.200   8.220 -0.03 +0.00    +0.285 C  
DOCKED: ENDBRANCH  14  15
DOCKED: ENDBRANCH  13  14
DOCKED: ENDBRANCH  12  13
DOCKED: ENDBRANCH   2  12
DOCKED: BRANCH   2  18
DOCKED: ATOM     18  C   UNL     1     -57.572 -37.392   8.419 -0.18 +0.00    +0.006 A  
DOCKED: ATOM     19  C   UNL     1     -57.375 -37.602   9.783 -0.13 +0.00    +0.001 A  
DOCKED: ATOM     20  C   UNL     1     -56.081 -37.734  10.288 -0.12 +0.00    +0.029 A  
DOCKED: ATOM     21  C   UNL     1     -54.986 -37.657   9.428 +0.02 +0.00    +0.140 A  
DOCKED: ATOM     22  C   UNL     1     -55.183 -37.448   8.064 -0.09 +0.00    +0.029 A  
DOCKED: ATOM     23  F   UNL     1     -53.744 -37.786   9.913 -0.03 -0.00    -0.204 F  
DOCKED: ATOM     24  C   UNL     1     -56.478 -37.315   7.558 -0.23 +0.00    +0.001 A  
DOCKED: ENDBRANCH   2  18
DOCKED: TORSDOF 5
DOCKED: TER
DOCKED: ENDMDL
________________________________________________________________________________


    FINAL DOCKED STATE:
    ________________________


Run:   256 / 512
Time taken for this run:   0.002s

DOCKED: MODEL        256
DOCKED: USER    Run = 256
DOCKED: USER
DOCKED: USER    Estimated Free Energy of Binding    =  -4.37 kcal/mol  [=(1)+(2)+(3)-(4)]
DOCKED: USER
DOCKED: USER    (1) Final Intermolecular Energy     =  -5.87 kcal/mol
DOCKED: USER        vdW + Hbond + desolv Energy     =  -5.87 kcal/mol
DOCKED: USER        Electrostatic Energy            =  +0.00 kcal/mol
DOCKED: USER        Moving Ligand-Fixed Receptor    =  -5.87 kcal/mol
DOCKED: USER        Moving Ligand-Moving Receptor   =  +0.00 kcal/mol
DOCKED: USER    (2) Final Total Internal Energy     =  -1.17 kcal/mol
DOCKED: USER    (3) Torsional Free Energy           =  +1.49 kcal/mol
DOCKED: USER    (4) Unbound System's Energy         =  -1.17 kcal/mol
DOCKED: USER
DOCKED: USER
DOCKED: REMARK  5 active torsions:
DOCKED: REMARK  status: ('A' for Active; 'I' for Inactive)
DOCKED: REMARK    1  A    between atoms: C_2  and  C_19 
DOCKED: REMARK    2  A    between atoms: C_2  and  C_11 
DOCKED: REMARK    3  A    between atoms: C_19  and  C_20 
DOCKED: REMARK    4  A    between atoms: C_20  and  C_21 
DOCKED: REMARK    5  A    between atoms: C_21  and  N_22 
DOCKED: USER                              x       y       z     vdW  Elec       q    Type
DOCKED: USER                           _______ _______ _______ _____ _____    ______ ____
DOCKED: ROOT
DOCKED: ATOM      1  O   UNL     1     -58.408 -38.588   8.920 -0.06 -0.00    -0.346 OA 
DOCKED: ATOM      2  C   UNL     1     -58.173 -37.279   8.311 -0.14 +0.00    +0.130 C  
DOCKED: ATOM      3  C   UNL     1     -58.463 -37.502   6.855 -0.28 +0.00    +0.004 A  
DOCKED: ATOM      4  C   UNL     1     -58.930 -38.794   6.665 -0.31 +0.00    +0.006 A  
DOCKED: ATOM      5  C   UNL     1     -58.992 -39.502   7.963 -0.10 +0.00    +0.169 C  
DOCKED: ATOM      6  C   UNL     1     -58.336 -36.627   5.786 -0.32 -0.00    -0.001 A  
DOCKED: ATOM      7  C   UNL     1     -59.279 -39.257   5.408 -0.43 +0.00    +0.008 A  
DOCKED: ATOM      8  C   UNL     1     -58.680 -37.079   4.511 +0.01 +0.00    +0.010 A  
DOCKED: ATOM      9  C   UNL     1     -59.150 -38.388   4.323 -0.41 +0.00    +0.068 A  
DOCKED: ATOM     10  N   UNL     1     -59.784 -39.194   1.944 -2.40 -0.00    -0.191 NA 
DOCKED: ATOM     11  C   UNL     1     -59.499 -38.833   3.011 -0.45 +0.00    +0.101 C  
DOCKED: ENDROOT
DOCKED: BRANCH   2  12
DOCKED: ATOM     12  C   UNL     1     -59.115 -36.270   8.957 -0.09 +0.00    +0.038 C  
DOCKED: BRANCH  12  13
DOCKED: ATOM     13  C   UNL     1     -59.806 -36.860  10.185 -0.06 +0.00    +0.038 C  
DOCKED: BRANCH  13  14
DOCKED: ATOM     14  C   UNL     1     -58.847 -36.933  11.372 -0.02 +0.00    +0.251 C  
DOCKED: BRANCH  14  15
DOCKED: ATOM     15  N   UNL     1     -59.589 -36.895  12.627 -0.01 +0.00    +0.141 N  
DOCKED: ATOM     16  C   UNL     1     -60.339 -35.644  12.745 +0.00 +0.00    +0.285 C  
DOCKED: ATOM     17  C   UNL     1     -60.494 -38.041  12.724 -0.01 +0.00    +0.285 C  
DOCKED: ENDBRANCH  14  15
DOCKED: ENDBRANCH  13  14
DOCKED: ENDBRANCH  12  13
DOCKED: ENDBRANCH   2  12
DOCKED: BRANCH   2  18
DOCKED: ATOM     18  C   UNL     1     -56.746 -36.926   8.572 -0.17 +0.00    +0.006 A  
DOCKED: ATOM     19  C   UNL     1     -56.434 -35.762   9.273 -0.08 +0.00    +0.001 A  
DOCKED: ATOM     20  C   UNL     1     -55.099 -35.433   9.516 -0.06 +0.00    +0.029 A  
DOCKED: ATOM     21  C   UNL     1     -54.081 -36.268   9.059 -0.10 +0.00    +0.140 A  
DOCKED: ATOM     22  C   UNL     1     -54.395 -37.432   8.358 -0.16 +0.00    +0.029 A  
DOCKED: ATOM     23  F   UNL     1     -52.801 -35.953   9.294 -0.01 -0.00    -0.204 F  
DOCKED: ATOM     24  C   UNL     1     -55.729 -37.761   8.113 -0.20 +0.00    +0.001 A  
DOCKED: ENDBRANCH   2  18
DOCKED: TORSDOF 5
DOCKED: TER
DOCKED: ENDMDL
________________________________________________________________________________


    FINAL DOCKED STATE:
    ________________________


Run:   257 / 512
Time taken for this run:   0.002s

DOCKED: MODEL        257
DOCKED: USER    Run = 257
DOCKED: USER
DOCKED: USER    Estimated Free Energy of Binding    =  -4.41 kcal/mol  [=(1)+(2)+(3)-(4)]
DOCKED: USER
DOCKED: USER    (1) Final Intermolecular Energy     =  -5.91 kcal/mol
DOCKED: USER        vdW + Hbond + desolv Energy     =  -5.91 kcal/mol
DOCKED: USER        Electrostatic Energy            =  +0.00 kcal/mol
DOCKED: USER        Moving Ligand-Fixed Receptor    =  -5.91 kcal/mol
DOCKED: USER        Moving Ligand-Moving Receptor   =  +0.00 kcal/mol
DOCKED: USER    (2) Final Total Internal Energy     =  -1.38 kcal/mol
DOCKED: USER    (3) Torsional Free Energy           =  +1.49 kcal/mol
DOCKED: USER    (4) Unbound System's Energy         =  -1.38 kcal/mol
DOCKED: USER
DOCKED: USER
DOCKED: REMARK  5 active torsions:
DOCKED: REMARK  status: ('A' for Active; 'I' for Inactive)
DOCKED: REMARK    1  A    between atoms: C_2  and  C_19 
DOCKED: REMARK    2  A    between atoms: C_2  and  C_11 
DOCKED: REMARK    3  A    between atoms: C_19  and  C_20 
DOCKED: REMARK    4  A    between atoms: C_20  and  C_21 
DOCKED: REMARK    5  A    between atoms: C_21  and  N_22 
DOCKED: USER                              x       y       z     vdW  Elec       q    Type
DOCKED: USER                           _______ _______ _______ _____ _____    ______ ____
DOCKED: ROOT
DOCKED: ATOM      1  O   UNL     1     -56.872 -33.803   7.276 -0.05 -0.00    -0.346 OA 
DOCKED: ATOM      2  C   UNL     1     -58.319 -33.688   7.467 -0.13 +0.00    +0.130 C  
DOCKED: ATOM      3  C   UNL     1     -58.847 -35.021   7.023 -0.22 +0.00    +0.004 A  
DOCKED: ATOM      4  C   UNL     1     -57.789 -35.862   6.710 -0.27 +0.00    +0.006 A  
DOCKED: ATOM      5  C   UNL     1     -56.505 -35.160   6.935 -0.17 +0.00    +0.169 C  
DOCKED: ATOM      6  C   UNL     1     -60.159 -35.458   6.914 -0.22 -0.00    -0.001 A  
DOCKED: ATOM      7  C   UNL     1     -58.003 -37.159   6.277 -0.33 +0.00    +0.008 A  
DOCKED: ATOM      8  C   UNL     1     -60.392 -36.762   6.474 -0.23 +0.00    +0.010 A  
DOCKED: ATOM      9  C   UNL     1     -59.319 -37.609   6.158 -0.26 +0.00    +0.068 A  
DOCKED: ATOM     10  N   UNL     1     -59.785 -40.026   5.349 -2.56 -0.00    -0.191 NA 
DOCKED: ATOM     11  C   UNL     1     -59.576 -38.941   5.711 -0.36 +0.00    +0.101 C  
DOCKED: ENDROOT
DOCKED: BRANCH   2  12
DOCKED: ATOM     12  C   UNL     1     -58.590 -33.403   8.940 -0.05 +0.00    +0.038 C  
DOCKED: BRANCH  12  13
DOCKED: ATOM     13  C   UNL     1     -58.788 -34.696   9.730 -0.03 +0.00    +0.038 C  
DOCKED: BRANCH  13  14
DOCKED: ATOM     14  C   UNL     1     -57.458 -35.217  10.272 -0.01 +0.00    +0.251 C  
DOCKED: BRANCH  14  15
DOCKED: ATOM     15  N   UNL     1     -57.556 -36.640  10.575 -0.03 +0.00    +0.141 N  
DOCKED: ATOM     16  C   UNL     1     -58.947 -37.018  10.830 -0.02 +0.00    +0.285 C  
DOCKED: ATOM     17  C   UNL     1     -57.006 -37.439   9.480 -0.07 +0.00    +0.285 C  
DOCKED: ENDBRANCH  14  15
DOCKED: ENDBRANCH  13  14
DOCKED: ENDBRANCH  12  13
DOCKED: ENDBRANCH   2  12
DOCKED: BRANCH   2  18
DOCKED: ATOM     18  C   UNL     1     -58.785 -32.561   6.607 -0.18 +0.00    +0.006 A  
DOCKED: ATOM     19  C   UNL     1     -57.879 -31.894   5.783 -0.08 +0.00    +0.001 A  
DOCKED: ATOM     20  C   UNL     1     -58.316 -30.840   4.979 -0.14 +0.00    +0.029 A  
DOCKED: ATOM     21  C   UNL     1     -59.656 -30.456   4.999 -0.12 +0.00    +0.140 A  
DOCKED: ATOM     22  C   UNL     1     -60.561 -31.124   5.824 -0.16 +0.00    +0.029 A  
DOCKED: ATOM     23  F   UNL     1     -60.075 -29.446   4.226 -0.03 -0.00    -0.204 F  
DOCKED: ATOM     24  C   UNL     1     -60.125 -32.178   6.629 -0.20 +0.00    +0.001 A  
DOCKED: ENDBRANCH   2  18
DOCKED: TORSDOF 5
DOCKED: TER
DOCKED: ENDMDL
________________________________________________________________________________


    FINAL DOCKED STATE:
    ________________________


Run:   258 / 512
Time taken for this run:   0.002s

DOCKED: MODEL        258
DOCKED: USER    Run = 258
DOCKED: USER
DOCKED: USER    Estimated Free Energy of Binding    =  -4.27 kcal/mol  [=(1)+(2)+(3)-(4)]
DOCKED: USER
DOCKED: USER    (1) Final Intermolecular Energy     =  -5.76 kcal/mol
DOCKED: USER        vdW + Hbond + desolv Energy     =  -5.76 kcal/mol
DOCKED: USER        Electrostatic Energy            =  +0.00 kcal/mol
DOCKED: USER        Moving Ligand-Fixed Receptor    =  -5.76 kcal/mol
DOCKED: USER        Moving Ligand-Moving Receptor   =  +0.00 kcal/mol
DOCKED: USER    (2) Final Total Internal Energy     =  -1.42 kcal/mol
DOCKED: USER    (3) Torsional Free Energy           =  +1.49 kcal/mol
DOCKED: USER    (4) Unbound System's Energy         =  -1.42 kcal/mol
DOCKED: USER
DOCKED: USER
DOCKED: REMARK  5 active torsions:
DOCKED: REMARK  status: ('A' for Active; 'I' for Inactive)
DOCKED: REMARK    1  A    between atoms: C_2  and  C_19 
DOCKED: REMARK    2  A    between atoms: C_2  and  C_11 
DOCKED: REMARK    3  A    between atoms: C_19  and  C_20 
DOCKED: REMARK    4  A    between atoms: C_20  and  C_21 
DOCKED: REMARK    5  A    between atoms: C_21  and  N_22 
DOCKED: USER                              x       y       z     vdW  Elec       q    Type
DOCKED: USER                           _______ _______ _______ _____ _____    ______ ____
DOCKED: ROOT
DOCKED: ATOM      1  O   UNL     1     -54.632 -36.392   8.624 -0.09 -0.00    -0.346 OA 
DOCKED: ATOM      2  C   UNL     1     -55.696 -35.446   8.286 -0.12 +0.00    +0.130 C  
DOCKED: ATOM      3  C   UNL     1     -56.719 -36.292   7.584 -0.21 +0.00    +0.004 A  
DOCKED: ATOM      4  C   UNL     1     -56.327 -37.623   7.616 -0.23 +0.00    +0.006 A  
DOCKED: ATOM      5  C   UNL     1     -55.043 -37.750   8.341 -0.09 +0.00    +0.169 C  
DOCKED: ATOM      6  C   UNL     1     -57.908 -35.915   6.977 -0.25 -0.00    -0.001 A  
DOCKED: ATOM      7  C   UNL     1     -57.102 -38.616   7.042 -0.35 +0.00    +0.008 A  
DOCKED: ATOM      8  C   UNL     1     -58.698 -36.905   6.389 -0.30 +0.00    +0.010 A  
DOCKED: ATOM      9  C   UNL     1     -58.297 -38.249   6.423 -0.31 +0.00    +0.068 A  
DOCKED: ATOM     10  N   UNL     1     -59.789 -40.061   5.327 -2.54 -0.00    -0.191 NA 
DOCKED: ATOM     11  C   UNL     1     -59.119 -39.248   5.818 -0.36 +0.00    +0.101 C  
DOCKED: ENDROOT
DOCKED: BRANCH   2  12
DOCKED: ATOM     12  C   UNL     1     -56.221 -34.828   9.576 -0.05 +0.00    +0.038 C  
DOCKED: BRANCH  12  13
DOCKED: ATOM     13  C   UNL     1     -55.640 -35.526  10.804 -0.03 +0.00    +0.038 C  
DOCKED: BRANCH  13  14
DOCKED: ATOM     14  C   UNL     1     -56.709 -36.339  11.532 -0.02 +0.00    +0.251 C  
DOCKED: BRANCH  14  15
DOCKED: ATOM     15  N   UNL     1     -57.374 -37.248  10.605 -0.05 +0.00    +0.141 N  
DOCKED: ATOM     16  C   UNL     1     -57.256 -38.632  11.066 -0.11 +0.00    +0.285 C  
DOCKED: ATOM     17  C   UNL     1     -58.782 -36.883  10.446 -0.02 +0.00    +0.285 C  
DOCKED: ENDBRANCH  14  15
DOCKED: ENDBRANCH  13  14
DOCKED: ENDBRANCH  12  13
DOCKED: ENDBRANCH   2  12
DOCKED: BRANCH   2  18
DOCKED: ATOM     18  C   UNL     1     -55.092 -34.409   7.399 -0.13 +0.00    +0.006 A  
DOCKED: ATOM     19  C   UNL     1     -53.707 -34.341   7.249 -0.11 +0.00    +0.001 A  
DOCKED: ATOM     20  C   UNL     1     -53.144 -33.371   6.420 -0.08 +0.00    +0.029 A  
DOCKED: ATOM     21  C   UNL     1     -53.965 -32.471   5.741 -0.06 +0.00    +0.140 A  
DOCKED: ATOM     22  C   UNL     1     -55.350 -32.540   5.891 -0.11 +0.00    +0.029 A  
DOCKED: ATOM     23  F   UNL     1     -53.424 -31.541   4.944 -0.00 -0.00    -0.204 F  
DOCKED: ATOM     24  C   UNL     1     -55.914 -33.510   6.721 -0.15 +0.00    +0.001 A  
DOCKED: ENDBRANCH   2  18
DOCKED: TORSDOF 5
DOCKED: TER
DOCKED: ENDMDL
________________________________________________________________________________


    FINAL DOCKED STATE:
    ________________________


Run:   259 / 512
Time taken for this run:   0.002s

DOCKED: MODEL        259
DOCKED: USER    Run = 259
DOCKED: USER
DOCKED: USER    Estimated Free Energy of Binding    =  -3.69 kcal/mol  [=(1)+(2)+(3)-(4)]
DOCKED: USER
DOCKED: USER    (1) Final Intermolecular Energy     =  -5.19 kcal/mol
DOCKED: USER        vdW + Hbond + desolv Energy     =  -5.19 kcal/mol
DOCKED: USER        Electrostatic Energy            =  +0.00 kcal/mol
DOCKED: USER        Moving Ligand-Fixed Receptor    =  -5.19 kcal/mol
DOCKED: USER        Moving Ligand-Moving Receptor   =  +0.00 kcal/mol
DOCKED: USER    (2) Final Total Internal Energy     =  -1.51 kcal/mol
DOCKED: USER    (3) Torsional Free Energy           =  +1.49 kcal/mol
DOCKED: USER    (4) Unbound System's Energy         =  -1.51 kcal/mol
DOCKED: USER
DOCKED: USER
DOCKED: REMARK  5 active torsions:
DOCKED: REMARK  status: ('A' for Active; 'I' for Inactive)
DOCKED: REMARK    1  A    between atoms: C_2  and  C_19 
DOCKED: REMARK    2  A    between atoms: C_2  and  C_11 
DOCKED: REMARK    3  A    between atoms: C_19  and  C_20 
DOCKED: REMARK    4  A    between atoms: C_20  and  C_21 
DOCKED: REMARK    5  A    between atoms: C_21  and  N_22 
DOCKED: USER                              x       y       z     vdW  Elec       q    Type
DOCKED: USER                           _______ _______ _______ _____ _____    ______ ____
DOCKED: ROOT
DOCKED: ATOM      1  O   UNL     1     -56.691 -34.323   8.332 -0.02 -0.00    -0.346 OA 
DOCKED: ATOM      2  C   UNL     1     -55.729 -35.425   8.383 -0.11 +0.00    +0.130 C  
DOCKED: ATOM      3  C   UNL     1     -56.465 -36.574   7.757 -0.20 +0.00    +0.004 A  
DOCKED: ATOM      4  C   UNL     1     -57.698 -36.141   7.290 -0.23 +0.00    +0.006 A  
DOCKED: ATOM      5  C   UNL     1     -57.855 -34.693   7.558 -0.14 +0.00    +0.169 C  
DOCKED: ATOM      6  C   UNL     1     -56.071 -37.895   7.604 -0.18 -0.00    -0.001 A  
DOCKED: ATOM      7  C   UNL     1     -58.575 -37.007   6.661 -0.28 +0.00    +0.008 A  
DOCKED: ATOM      8  C   UNL     1     -56.947 -38.782   6.976 -0.35 +0.00    +0.010 A  
DOCKED: ATOM      9  C   UNL     1     -58.192 -38.340   6.507 -0.31 +0.00    +0.068 A  
DOCKED: ATOM     10  N   UNL     1     -59.792 -40.012   5.341 -2.56 -0.00    -0.191 NA 
DOCKED: ATOM     11  C   UNL     1     -59.075 -39.262   5.864 -0.35 +0.00    +0.101 C  
DOCKED: ENDROOT
DOCKED: BRANCH   2  12
DOCKED: ATOM     12  C   UNL     1     -54.487 -35.018   7.598 -0.11 +0.00    +0.038 C  
DOCKED: BRANCH  12  13
DOCKED: ATOM     13  C   UNL     1     -53.925 -33.688   8.096 -0.06 +0.00    +0.038 C  
DOCKED: BRANCH  13  14
DOCKED: ATOM     14  C   UNL     1     -54.520 -32.514   7.320 -0.03 +0.00    +0.251 C  
DOCKED: BRANCH  14  15
DOCKED: ATOM     15  N   UNL     1     -55.084 -31.533   8.238 -0.01 +0.00    +0.141 N  
DOCKED: ATOM     16  C   UNL     1     -56.499 -31.303   7.943 -0.01 +0.00    +0.285 C  
DOCKED: ATOM     17  C   UNL     1     -54.919 -31.970   9.625 -0.00 +0.00    +0.285 C  
DOCKED: ENDBRANCH  14  15
DOCKED: ENDBRANCH  13  14
DOCKED: ENDBRANCH  12  13
DOCKED: ENDBRANCH   2  12
DOCKED: BRANCH   2  18
DOCKED: ATOM     18  C   UNL     1     -55.405 -35.655   9.821 -0.06 +0.00    +0.006 A  
DOCKED: ATOM     19  C   UNL     1     -54.257 -36.365  10.171 -0.08 +0.00    +0.001 A  
DOCKED: ATOM     20  C   UNL     1     -53.955 -36.580  11.517 -0.04 +0.00    +0.029 A  
DOCKED: ATOM     21  C   UNL     1     -54.800 -36.085  12.509 -0.01 +0.00    +0.140 A  
DOCKED: ATOM     22  C   UNL     1     -55.948 -35.375  12.158 -0.01 +0.00    +0.029 A  
DOCKED: ATOM     23  F   UNL     1     -54.510 -36.290  13.800 +0.00 -0.00    -0.204 F  
DOCKED: ATOM     24  C   UNL     1     -56.251 -35.160  10.812 -0.02 +0.00    +0.001 A  
DOCKED: ENDBRANCH   2  18
DOCKED: TORSDOF 5
DOCKED: TER
DOCKED: ENDMDL
________________________________________________________________________________


    FINAL DOCKED STATE:
    ________________________


Run:   260 / 512
Time taken for this run:   0.002s

DOCKED: MODEL        260
DOCKED: USER    Run = 260
DOCKED: USER
DOCKED: USER    Estimated Free Energy of Binding    =  -5.60 kcal/mol  [=(1)+(2)+(3)-(4)]
DOCKED: USER
DOCKED: USER    (1) Final Intermolecular Energy     =  -7.10 kcal/mol
DOCKED: USER        vdW + Hbond + desolv Energy     =  -7.10 kcal/mol
DOCKED: USER        Electrostatic Energy            =  +0.00 kcal/mol
DOCKED: USER        Moving Ligand-Fixed Receptor    =  -7.10 kcal/mol
DOCKED: USER        Moving Ligand-Moving Receptor   =  +0.00 kcal/mol
DOCKED: USER    (2) Final Total Internal Energy     =  -1.29 kcal/mol
DOCKED: USER    (3) Torsional Free Energy           =  +1.49 kcal/mol
DOCKED: USER    (4) Unbound System's Energy         =  -1.29 kcal/mol
DOCKED: USER
DOCKED: USER
DOCKED: REMARK  5 active torsions:
DOCKED: REMARK  status: ('A' for Active; 'I' for Inactive)
DOCKED: REMARK    1  A    between atoms: C_2  and  C_19 
DOCKED: REMARK    2  A    between atoms: C_2  and  C_11 
DOCKED: REMARK    3  A    between atoms: C_19  and  C_20 
DOCKED: REMARK    4  A    between atoms: C_20  and  C_21 
DOCKED: REMARK    5  A    between atoms: C_21  and  N_22 
DOCKED: USER                              x       y       z     vdW  Elec       q    Type
DOCKED: USER                           _______ _______ _______ _____ _____    ______ ____
DOCKED: ROOT
DOCKED: ATOM      1  O   UNL     1     -57.659 -36.529   7.529 -0.07 -0.00    -0.346 OA 
DOCKED: ATOM      2  C   UNL     1     -58.381 -37.779   7.773 -0.18 +0.00    +0.130 C  
DOCKED: ATOM      3  C   UNL     1     -58.860 -38.190   6.411 -0.32 +0.00    +0.004 A  
DOCKED: ATOM      4  C   UNL     1     -58.363 -37.313   5.457 -0.35 +0.00    +0.006 A  
DOCKED: ATOM      5  C   UNL     1     -57.522 -36.284   6.110 -0.18 +0.00    +0.169 C  
DOCKED: ATOM      6  C   UNL     1     -59.663 -39.260   6.044 -0.32 -0.00    -0.001 A  
DOCKED: ATOM      7  C   UNL     1     -58.651 -37.471   4.113 -0.22 +0.00    +0.008 A  
DOCKED: ATOM      8  C   UNL     1     -59.966 -39.431   4.692 -0.43 +0.00    +0.010 A  
DOCKED: ATOM      9  C   UNL     1     -59.463 -38.541   3.732 -0.43 +0.00    +0.068 A  
DOCKED: ATOM     10  N   UNL     1     -60.042 -38.890   1.230 -3.24 -0.00    -0.191 NA 
DOCKED: ATOM     11  C   UNL     1     -59.783 -38.733   2.352 -0.28 +0.00    +0.101 C  
DOCKED: ENDROOT
DOCKED: BRANCH   2  12
DOCKED: ATOM     12  C   UNL     1     -57.414 -38.783   8.390 -0.29 +0.00    +0.038 C  
DOCKED: BRANCH  12  13
DOCKED: ATOM     13  C   UNL     1     -56.869 -38.282   9.726 -0.15 +0.00    +0.038 C  
DOCKED: BRANCH  13  14
DOCKED: ATOM     14  C   UNL     1     -55.802 -37.209   9.517 -0.10 +0.00    +0.251 C  
DOCKED: BRANCH  14  15
DOCKED: ATOM     15  N   UNL     1     -55.847 -36.232  10.598 -0.04 +0.00    +0.141 N  
DOCKED: ATOM     16  C   UNL     1     -56.455 -34.982  10.140 -0.01 +0.00    +0.285 C  
DOCKED: ATOM     17  C   UNL     1     -56.585 -36.765  11.745 -0.02 +0.00    +0.285 C  
DOCKED: ENDBRANCH  14  15
DOCKED: ENDBRANCH  13  14
DOCKED: ENDBRANCH  12  13
DOCKED: ENDBRANCH   2  12
DOCKED: BRANCH   2  18
DOCKED: ATOM     18  C   UNL     1     -59.498 -37.461   8.711 -0.11 +0.00    +0.006 A  
DOCKED: ATOM     19  C   UNL     1     -59.849 -38.370   9.709 -0.14 +0.00    +0.001 A  
DOCKED: ATOM     20  C   UNL     1     -60.894 -38.072  10.585 -0.08 +0.00    +0.029 A  
DOCKED: ATOM     21  C   UNL     1     -61.584 -36.867  10.463 -0.01 +0.00    +0.140 A  
DOCKED: ATOM     22  C   UNL     1     -61.231 -35.959   9.465 -0.05 +0.00    +0.029 A  
DOCKED: ATOM     23  F   UNL     1     -62.585 -36.581  11.305 +0.01 -0.00    -0.204 F  
DOCKED: ATOM     24  C   UNL     1     -60.187 -36.256   8.588 -0.09 +0.00    +0.001 A  
DOCKED: ENDBRANCH   2  18
DOCKED: TORSDOF 5
DOCKED: TER
DOCKED: ENDMDL
________________________________________________________________________________


    FINAL DOCKED STATE:
    ________________________


Run:   261 / 512
Time taken for this run:   0.002s

DOCKED: MODEL        261
DOCKED: USER    Run = 261
DOCKED: USER
DOCKED: USER    Estimated Free Energy of Binding    =  -3.70 kcal/mol  [=(1)+(2)+(3)-(4)]
DOCKED: USER
DOCKED: USER    (1) Final Intermolecular Energy     =  -5.19 kcal/mol
DOCKED: USER        vdW + Hbond + desolv Energy     =  -5.19 kcal/mol
DOCKED: USER        Electrostatic Energy            =  +0.00 kcal/mol
DOCKED: USER        Moving Ligand-Fixed Receptor    =  -5.19 kcal/mol
DOCKED: USER        Moving Ligand-Moving Receptor   =  +0.00 kcal/mol
DOCKED: USER    (2) Final Total Internal Energy     =  -1.47 kcal/mol
DOCKED: USER    (3) Torsional Free Energy           =  +1.49 kcal/mol
DOCKED: USER    (4) Unbound System's Energy         =  -1.47 kcal/mol
DOCKED: USER
DOCKED: USER
DOCKED: REMARK  5 active torsions:
DOCKED: REMARK  status: ('A' for Active; 'I' for Inactive)
DOCKED: REMARK    1  A    between atoms: C_2  and  C_19 
DOCKED: REMARK    2  A    between atoms: C_2  and  C_11 
DOCKED: REMARK    3  A    between atoms: C_19  and  C_20 
DOCKED: REMARK    4  A    between atoms: C_20  and  C_21 
DOCKED: REMARK    5  A    between atoms: C_21  and  N_22 
DOCKED: USER                              x       y       z     vdW  Elec       q    Type
DOCKED: USER                           _______ _______ _______ _____ _____    ______ ____
DOCKED: ROOT
DOCKED: ATOM      1  O   UNL     1     -52.196 -33.014   2.097 +0.00 -0.00    -0.346 OA 
DOCKED: ATOM      2  C   UNL     1     -53.040 -33.916   1.312 -0.14 +0.00    +0.130 C  
DOCKED: ATOM      3  C   UNL     1     -52.748 -35.272   1.886 -0.22 +0.00    +0.004 A  
DOCKED: ATOM      4  C   UNL     1     -51.897 -35.145   2.975 -0.13 +0.00    +0.006 A  
DOCKED: ATOM      5  C   UNL     1     -51.582 -33.717   3.202 -0.05 +0.00    +0.169 C  
DOCKED: ATOM      6  C   UNL     1     -53.207 -36.518   1.483 -0.32 -0.00    -0.001 A  
DOCKED: ATOM      7  C   UNL     1     -51.475 -36.251   3.692 -0.16 +0.00    +0.008 A  
DOCKED: ATOM      8  C   UNL     1     -52.787 -37.643   2.194 -0.30 +0.00    +0.010 A  
DOCKED: ATOM      9  C   UNL     1     -51.926 -37.510   3.293 -0.19 +0.00    +0.068 A  
DOCKED: ATOM     10  N   UNL     1     -51.169 -39.619   4.594 -1.99 -0.00    -0.191 NA 
DOCKED: ATOM     11  C   UNL     1     -51.508 -38.673   4.010 -0.25 +0.00    +0.101 C  
DOCKED: ENDROOT
DOCKED: BRANCH   2  12
DOCKED: ATOM     12  C   UNL     1     -54.494 -33.496   1.492 -0.25 +0.00    +0.038 C  
DOCKED: BRANCH  12  13
DOCKED: ATOM     13  C   UNL     1     -54.600 -32.050   1.972 -0.15 +0.00    +0.038 C  
DOCKED: BRANCH  13  14
DOCKED: ATOM     14  C   UNL     1     -55.416 -31.205   0.995 -0.15 +0.00    +0.251 C  
DOCKED: BRANCH  14  15
DOCKED: ATOM     15  N   UNL     1     -54.531 -30.451   0.115 -0.14 +0.00    +0.141 N  
DOCKED: ATOM     16  C   UNL     1     -53.197 -30.331   0.705 -0.06 +0.00    +0.285 C  
DOCKED: ATOM     17  C   UNL     1     -54.450 -31.085  -1.201 -0.14 +0.00    +0.285 C  
DOCKED: ENDBRANCH  14  15
DOCKED: ENDBRANCH  13  14
DOCKED: ENDBRANCH  12  13
DOCKED: ENDBRANCH   2  12
DOCKED: BRANCH   2  18
DOCKED: ATOM     18  C   UNL     1     -52.614 -33.783  -0.112 -0.15 +0.00    +0.006 A  
DOCKED: ATOM     19  C   UNL     1     -53.405 -34.317  -1.129 -0.04 +0.00    +0.001 A  
DOCKED: ATOM     20  C   UNL     1     -53.005 -34.192  -2.460 -0.19 +0.00    +0.029 A  
DOCKED: ATOM     21  C   UNL     1     -51.817 -33.534  -2.772 -0.10 +0.00    +0.140 A  
DOCKED: ATOM     22  C   UNL     1     -51.026 -32.999  -1.755 -0.03 +0.00    +0.029 A  
DOCKED: ATOM     23  F   UNL     1     -51.434 -33.413  -4.050 -0.01 -0.00    -0.204 F  
DOCKED: ATOM     24  C   UNL     1     -51.425 -33.124  -0.423 -0.04 +0.00    +0.001 A  
DOCKED: ENDBRANCH   2  18
DOCKED: TORSDOF 5
DOCKED: TER
DOCKED: ENDMDL
________________________________________________________________________________


    FINAL DOCKED STATE:
    ________________________


Run:   262 / 512
Time taken for this run:   0.002s

DOCKED: MODEL        262
DOCKED: USER    Run = 262
DOCKED: USER
DOCKED: USER    Estimated Free Energy of Binding    =  -4.67 kcal/mol  [=(1)+(2)+(3)-(4)]
DOCKED: USER
DOCKED: USER    (1) Final Intermolecular Energy     =  -6.17 kcal/mol
DOCKED: USER        vdW + Hbond + desolv Energy     =  -6.17 kcal/mol
DOCKED: USER        Electrostatic Energy            =  +0.00 kcal/mol
DOCKED: USER        Moving Ligand-Fixed Receptor    =  -6.17 kcal/mol
DOCKED: USER        Moving Ligand-Moving Receptor   =  +0.00 kcal/mol
DOCKED: USER    (2) Final Total Internal Energy     =  -1.50 kcal/mol
DOCKED: USER    (3) Torsional Free Energy           =  +1.49 kcal/mol
DOCKED: USER    (4) Unbound System's Energy         =  -1.50 kcal/mol
DOCKED: USER
DOCKED: USER
DOCKED: REMARK  5 active torsions:
DOCKED: REMARK  status: ('A' for Active; 'I' for Inactive)
DOCKED: REMARK    1  A    between atoms: C_2  and  C_19 
DOCKED: REMARK    2  A    between atoms: C_2  and  C_11 
DOCKED: REMARK    3  A    between atoms: C_19  and  C_20 
DOCKED: REMARK    4  A    between atoms: C_20  and  C_21 
DOCKED: REMARK    5  A    between atoms: C_21  and  N_22 
DOCKED: USER                              x       y       z     vdW  Elec       q    Type
DOCKED: USER                           _______ _______ _______ _____ _____    ______ ____
DOCKED: ROOT
DOCKED: ATOM      1  O   UNL     1     -53.605 -30.695  -0.466 -0.02 -0.00    -0.346 OA 
DOCKED: ATOM      2  C   UNL     1     -54.938 -30.371   0.043 -0.21 +0.00    +0.130 C  
DOCKED: ATOM      3  C   UNL     1     -55.521 -29.480  -1.016 -0.28 +0.00    +0.004 A  
DOCKED: ATOM      4  C   UNL     1     -54.643 -29.392  -2.087 -0.26 +0.00    +0.006 A  
DOCKED: ATOM      5  C   UNL     1     -53.442 -30.216  -1.821 -0.13 +0.00    +0.169 C  
DOCKED: ATOM      6  C   UNL     1     -56.736 -28.811  -1.034 -0.08 -0.00    -0.001 A  
DOCKED: ATOM      7  C   UNL     1     -54.944 -28.633  -3.205 -0.15 +0.00    +0.008 A  
DOCKED: ATOM      8  C   UNL     1     -57.053 -28.038  -2.153 -0.38 +0.00    +0.010 A  
DOCKED: ATOM      9  C   UNL     1     -56.161 -27.950  -3.233 -0.26 +0.00    +0.068 A  
DOCKED: ATOM     10  N   UNL     1     -56.782 -26.511  -5.296 -2.43 -0.00    -0.191 NA 
DOCKED: ATOM     11  C   UNL     1     -56.503 -27.156  -4.370 -0.26 +0.00    +0.101 C  
DOCKED: ENDROOT
DOCKED: BRANCH   2  12
DOCKED: ATOM     12  C   UNL     1     -55.716 -31.670   0.220 -0.25 +0.00    +0.038 C  
DOCKED: BRANCH  12  13
DOCKED: ATOM     13  C   UNL     1     -54.824 -32.783   0.765 -0.23 +0.00    +0.038 C  
DOCKED: BRANCH  13  14
DOCKED: ATOM     14  C   UNL     1     -54.929 -32.877   2.286 -0.09 +0.00    +0.251 C  
DOCKED: BRANCH  14  15
DOCKED: ATOM     15  N   UNL     1     -53.696 -32.411   2.909 -0.07 +0.00    +0.141 N  
DOCKED: ATOM     16  C   UNL     1     -53.542 -32.992   4.244 -0.08 +0.00    +0.285 C  
DOCKED: ATOM     17  C   UNL     1     -52.539 -32.743   2.075 -0.02 +0.00    +0.285 C  
DOCKED: ENDBRANCH  14  15
DOCKED: ENDBRANCH  13  14
DOCKED: ENDBRANCH  12  13
DOCKED: ENDBRANCH   2  12
DOCKED: BRANCH   2  18
DOCKED: ATOM     18  C   UNL     1     -54.749 -29.675   1.350 -0.19 +0.00    +0.006 A  
DOCKED: ATOM     19  C   UNL     1     -53.470 -29.310   1.766 -0.15 +0.00    +0.001 A  
DOCKED: ATOM     20  C   UNL     1     -53.294 -28.659   2.988 -0.06 +0.00    +0.029 A  
DOCKED: ATOM     21  C   UNL     1     -54.398 -28.374   3.791 -0.11 +0.00    +0.140 A  
DOCKED: ATOM     22  C   UNL     1     -55.677 -28.739   3.373 -0.19 +0.00    +0.029 A  
DOCKED: ATOM     23  F   UNL     1     -54.229 -27.748   4.962 -0.05 -0.00    -0.204 F  
DOCKED: ATOM     24  C   UNL     1     -55.854 -29.390   2.152 -0.23 +0.00    +0.001 A  
DOCKED: ENDBRANCH   2  18
DOCKED: TORSDOF 5
DOCKED: TER
DOCKED: ENDMDL
________________________________________________________________________________


    FINAL DOCKED STATE:
    ________________________


Run:   263 / 512
Time taken for this run:   0.002s

DOCKED: MODEL        263
DOCKED: USER    Run = 263
DOCKED: USER
DOCKED: USER    Estimated Free Energy of Binding    =  -4.91 kcal/mol  [=(1)+(2)+(3)-(4)]
DOCKED: USER
DOCKED: USER    (1) Final Intermolecular Energy     =  -6.40 kcal/mol
DOCKED: USER        vdW + Hbond + desolv Energy     =  -6.40 kcal/mol
DOCKED: USER        Electrostatic Energy            =  +0.00 kcal/mol
DOCKED: USER        Moving Ligand-Fixed Receptor    =  -6.40 kcal/mol
DOCKED: USER        Moving Ligand-Moving Receptor   =  +0.00 kcal/mol
DOCKED: USER    (2) Final Total Internal Energy     =  -1.00 kcal/mol
DOCKED: USER    (3) Torsional Free Energy           =  +1.49 kcal/mol
DOCKED: USER    (4) Unbound System's Energy         =  -1.00 kcal/mol
DOCKED: USER
DOCKED: USER
DOCKED: REMARK  5 active torsions:
DOCKED: REMARK  status: ('A' for Active; 'I' for Inactive)
DOCKED: REMARK    1  A    between atoms: C_2  and  C_19 
DOCKED: REMARK    2  A    between atoms: C_2  and  C_11 
DOCKED: REMARK    3  A    between atoms: C_19  and  C_20 
DOCKED: REMARK    4  A    between atoms: C_20  and  C_21 
DOCKED: REMARK    5  A    between atoms: C_21  and  N_22 
DOCKED: USER                              x       y       z     vdW  Elec       q    Type
DOCKED: USER                           _______ _______ _______ _____ _____    ______ ____
DOCKED: ROOT
DOCKED: ATOM      1  O   UNL     1     -57.354 -35.618   7.760 -0.06 -0.00    -0.346 OA 
DOCKED: ATOM      2  C   UNL     1     -57.316 -37.051   8.052 -0.18 +0.00    +0.130 C  
DOCKED: ATOM      3  C   UNL     1     -57.865 -37.686   6.808 -0.31 +0.00    +0.004 A  
DOCKED: ATOM      4  C   UNL     1     -58.094 -36.710   5.848 -0.31 +0.00    +0.006 A  
DOCKED: ATOM      5  C   UNL     1     -57.705 -35.384   6.377 -0.21 +0.00    +0.169 C  
DOCKED: ATOM      6  C   UNL     1     -58.131 -39.021   6.542 -0.36 -0.00    -0.001 A  
DOCKED: ATOM      7  C   UNL     1     -58.597 -37.032   4.599 -0.03 +0.00    +0.008 A  
DOCKED: ATOM      8  C   UNL     1     -58.643 -39.362   5.289 -0.46 +0.00    +0.010 A  
DOCKED: ATOM      9  C   UNL     1     -58.874 -38.372   4.322 -0.40 +0.00    +0.068 A  
DOCKED: ATOM     10  N   UNL     1     -59.820 -39.038   2.004 -2.44 -0.00    -0.191 NA 
DOCKED: ATOM     11  C   UNL     1     -59.396 -38.739   3.044 -0.50 +0.00    +0.101 C  
DOCKED: ENDROOT
DOCKED: BRANCH   2  12
DOCKED: ATOM     12  C   UNL     1     -55.871 -37.448   8.332 -0.24 +0.00    +0.038 C  
DOCKED: BRANCH  12  13
DOCKED: ATOM     13  C   UNL     1     -55.111 -36.325   9.035 -0.15 +0.00    +0.038 C  
DOCKED: BRANCH  13  14
DOCKED: ATOM     14  C   UNL     1     -53.887 -35.900   8.226 -0.08 +0.00    +0.251 C  
DOCKED: BRANCH  14  15
DOCKED: ATOM     15  N   UNL     1     -52.715 -36.659   8.643 -0.10 +0.00    +0.141 N  
DOCKED: ATOM     16  C   UNL     1     -52.309 -37.598   7.596 -0.07 +0.00    +0.285 C  
DOCKED: ATOM     17  C   UNL     1     -51.609 -35.760   8.974 -0.02 +0.00    +0.285 C  
DOCKED: ENDBRANCH  14  15
DOCKED: ENDBRANCH  13  14
DOCKED: ENDBRANCH  12  13
DOCKED: ENDBRANCH   2  12
DOCKED: BRANCH   2  18
DOCKED: ATOM     18  C   UNL     1     -58.178 -37.276   9.249 -0.11 +0.00    +0.006 A  
DOCKED: ATOM     19  C   UNL     1     -57.619 -37.772  10.427 -0.11 +0.00    +0.001 A  
DOCKED: ATOM     20  C   UNL     1     -58.427 -37.982  11.545 -0.08 +0.00    +0.029 A  
DOCKED: ATOM     21  C   UNL     1     -59.790 -37.696  11.485 -0.03 +0.00    +0.140 A  
DOCKED: ATOM     22  C   UNL     1     -60.348 -37.200  10.307 -0.05 +0.00    +0.029 A  
DOCKED: ATOM     23  F   UNL     1     -60.564 -37.896  12.559 +0.01 -0.00    -0.204 F  
DOCKED: ATOM     24  C   UNL     1     -59.541 -36.990   9.187 -0.08 +0.00    +0.001 A  
DOCKED: ENDBRANCH   2  18
DOCKED: TORSDOF 5
DOCKED: TER
DOCKED: ENDMDL
________________________________________________________________________________


    FINAL DOCKED STATE:
    ________________________


Run:   264 / 512
Time taken for this run:   0.002s

DOCKED: MODEL        264
DOCKED: USER    Run = 264
DOCKED: USER
DOCKED: USER    Estimated Free Energy of Binding    =  -4.39 kcal/mol  [=(1)+(2)+(3)-(4)]
DOCKED: USER
DOCKED: USER    (1) Final Intermolecular Energy     =  -5.88 kcal/mol
DOCKED: USER        vdW + Hbond + desolv Energy     =  -5.88 kcal/mol
DOCKED: USER        Electrostatic Energy            =  +0.00 kcal/mol
DOCKED: USER        Moving Ligand-Fixed Receptor    =  -5.88 kcal/mol
DOCKED: USER        Moving Ligand-Moving Receptor   =  +0.00 kcal/mol
DOCKED: USER    (2) Final Total Internal Energy     =  -1.23 kcal/mol
DOCKED: USER    (3) Torsional Free Energy           =  +1.49 kcal/mol
DOCKED: USER    (4) Unbound System's Energy         =  -1.23 kcal/mol
DOCKED: USER
DOCKED: USER
DOCKED: REMARK  5 active torsions:
DOCKED: REMARK  status: ('A' for Active; 'I' for Inactive)
DOCKED: REMARK    1  A    between atoms: C_2  and  C_19 
DOCKED: REMARK    2  A    between atoms: C_2  and  C_11 
DOCKED: REMARK    3  A    between atoms: C_19  and  C_20 
DOCKED: REMARK    4  A    between atoms: C_20  and  C_21 
DOCKED: REMARK    5  A    between atoms: C_21  and  N_22 
DOCKED: USER                              x       y       z     vdW  Elec       q    Type
DOCKED: USER                           _______ _______ _______ _____ _____    ______ ____
DOCKED: ROOT
DOCKED: ATOM      1  O   UNL     1     -56.912 -33.972   7.283 -0.05 -0.00    -0.346 OA 
DOCKED: ATOM      2  C   UNL     1     -58.339 -33.988   7.607 -0.13 +0.00    +0.130 C  
DOCKED: ATOM      3  C   UNL     1     -58.796 -35.343   7.152 -0.21 +0.00    +0.004 A  
DOCKED: ATOM      4  C   UNL     1     -57.706 -36.079   6.708 -0.27 +0.00    +0.006 A  
DOCKED: ATOM      5  C   UNL     1     -56.469 -35.279   6.848 -0.15 +0.00    +0.169 C  
DOCKED: ATOM      6  C   UNL     1     -60.072 -35.886   7.142 -0.21 -0.00    -0.001 A  
DOCKED: ATOM      7  C   UNL     1     -57.853 -37.372   6.237 -0.33 +0.00    +0.008 A  
DOCKED: ATOM      8  C   UNL     1     -60.238 -37.188   6.666 -0.23 +0.00    +0.010 A  
DOCKED: ATOM      9  C   UNL     1     -59.134 -37.927   6.216 -0.27 +0.00    +0.068 A  
DOCKED: ATOM     10  N   UNL     1     -59.475 -40.343   5.344 -2.59 -0.00    -0.191 NA 
DOCKED: ATOM     11  C   UNL     1     -59.322 -39.259   5.735 -0.37 +0.00    +0.101 C  
DOCKED: ENDROOT
DOCKED: BRANCH   2  12
DOCKED: ATOM     12  C   UNL     1     -58.494 -33.783   9.110 -0.04 +0.00    +0.038 C  
DOCKED: BRANCH  12  13
DOCKED: ATOM     13  C   UNL     1     -58.223 -32.333   9.505 -0.02 +0.00    +0.038 C  
DOCKED: BRANCH  13  14
DOCKED: ATOM     14  C   UNL     1     -56.744 -31.988   9.347 -0.01 +0.00    +0.251 C  
DOCKED: BRANCH  14  15
DOCKED: ATOM     15  N   UNL     1     -55.992 -32.426  10.517 -0.00 +0.00    +0.141 N  
DOCKED: ATOM     16  C   UNL     1     -56.859 -32.482  11.695 +0.00 +0.00    +0.285 C  
DOCKED: ATOM     17  C   UNL     1     -55.378 -33.732  10.276 -0.00 +0.00    +0.285 C  
DOCKED: ENDBRANCH  14  15
DOCKED: ENDBRANCH  13  14
DOCKED: ENDBRANCH  12  13
DOCKED: ENDBRANCH   2  12
DOCKED: BRANCH   2  18
DOCKED: ATOM     18  C   UNL     1     -58.973 -32.873   6.844 -0.18 +0.00    +0.006 A  
DOCKED: ATOM     19  C   UNL     1     -60.357 -32.710   6.870 -0.21 +0.00    +0.001 A  
DOCKED: ATOM     20  C   UNL     1     -60.949 -31.668   6.156 -0.17 +0.00    +0.029 A  
DOCKED: ATOM     21  C   UNL     1     -60.156 -30.791   5.417 -0.11 +0.00    +0.140 A  
DOCKED: ATOM     22  C   UNL     1     -58.771 -30.954   5.391 -0.16 +0.00    +0.029 A  
DOCKED: ATOM     23  F   UNL     1     -60.724 -29.789   4.733 -0.03 -0.00    -0.204 F  
DOCKED: ATOM     24  C   UNL     1     -58.178 -31.997   6.106 -0.14 +0.00    +0.001 A  
DOCKED: ENDBRANCH   2  18
DOCKED: TORSDOF 5
DOCKED: TER
DOCKED: ENDMDL
________________________________________________________________________________


    FINAL DOCKED STATE:
    ________________________


Run:   265 / 512
Time taken for this run:   0.002s

DOCKED: MODEL        265
DOCKED: USER    Run = 265
DOCKED: USER
DOCKED: USER    Estimated Free Energy of Binding    =  -3.66 kcal/mol  [=(1)+(2)+(3)-(4)]
DOCKED: USER
DOCKED: USER    (1) Final Intermolecular Energy     =  -5.15 kcal/mol
DOCKED: USER        vdW + Hbond + desolv Energy     =  -5.15 kcal/mol
DOCKED: USER        Electrostatic Energy            =  +0.00 kcal/mol
DOCKED: USER        Moving Ligand-Fixed Receptor    =  -5.15 kcal/mol
DOCKED: USER        Moving Ligand-Moving Receptor   =  +0.00 kcal/mol
DOCKED: USER    (2) Final Total Internal Energy     =  -1.07 kcal/mol
DOCKED: USER    (3) Torsional Free Energy           =  +1.49 kcal/mol
DOCKED: USER    (4) Unbound System's Energy         =  -1.07 kcal/mol
DOCKED: USER
DOCKED: USER
DOCKED: REMARK  5 active torsions:
DOCKED: REMARK  status: ('A' for Active; 'I' for Inactive)
DOCKED: REMARK    1  A    between atoms: C_2  and  C_19 
DOCKED: REMARK    2  A    between atoms: C_2  and  C_11 
DOCKED: REMARK    3  A    between atoms: C_19  and  C_20 
DOCKED: REMARK    4  A    between atoms: C_20  and  C_21 
DOCKED: REMARK    5  A    between atoms: C_21  and  N_22 
DOCKED: USER                              x       y       z     vdW  Elec       q    Type
DOCKED: USER                           _______ _______ _______ _____ _____    ______ ____
DOCKED: ROOT
DOCKED: ATOM      1  O   UNL     1     -53.659 -29.848   0.894 -0.05 -0.00    -0.346 OA 
DOCKED: ATOM      2  C   UNL     1     -54.842 -30.192   0.103 -0.20 +0.00    +0.130 C  
DOCKED: ATOM      3  C   UNL     1     -54.763 -29.271  -1.080 -0.26 +0.00    +0.004 A  
DOCKED: ATOM      4  C   UNL     1     -53.582 -28.543  -1.027 -0.13 +0.00    +0.006 A  
DOCKED: ATOM      5  C   UNL     1     -52.803 -28.935   0.169 -0.12 +0.00    +0.169 C  
DOCKED: ATOM      6  C   UNL     1     -55.658 -29.099  -2.125 -0.20 -0.00    -0.001 A  
DOCKED: ATOM      7  C   UNL     1     -53.259 -27.622  -2.009 -0.17 +0.00    +0.008 A  
DOCKED: ATOM      8  C   UNL     1     -55.349 -28.170  -3.120 -0.29 +0.00    +0.010 A  
DOCKED: ATOM      9  C   UNL     1     -54.155 -27.436  -3.062 -0.24 +0.00    +0.068 A  
DOCKED: ATOM     10  N   UNL     1     -53.610 -25.723  -4.928 -0.79 -0.00    -0.191 NA 
DOCKED: ATOM     11  C   UNL     1     -53.855 -26.491  -4.091 -0.28 +0.00    +0.101 C  
DOCKED: ENDROOT
DOCKED: BRANCH   2  12
DOCKED: ATOM     12  C   UNL     1     -54.753 -31.663  -0.283 -0.22 +0.00    +0.038 C  
DOCKED: BRANCH  12  13
DOCKED: ATOM     13  C   UNL     1     -53.347 -32.215  -0.058 -0.12 +0.00    +0.038 C  
DOCKED: BRANCH  13  14
DOCKED: ATOM     14  C   UNL     1     -53.320 -33.733  -0.221 -0.15 +0.00    +0.251 C  
DOCKED: BRANCH  14  15
DOCKED: ATOM     15  N   UNL     1     -53.364 -34.384   1.083 -0.18 +0.00    +0.141 N  
DOCKED: ATOM     16  C   UNL     1     -53.257 -33.395   2.157 -0.08 +0.00    +0.285 C  
DOCKED: ATOM     17  C   UNL     1     -54.596 -35.161   1.230 -0.23 +0.00    +0.285 C  
DOCKED: ENDBRANCH  14  15
DOCKED: ENDBRANCH  13  14
DOCKED: ENDBRANCH  12  13
DOCKED: ENDBRANCH   2  12
DOCKED: BRANCH   2  18
DOCKED: ATOM     18  C   UNL     1     -56.033 -29.931   0.964 -0.27 +0.00    +0.006 A  
DOCKED: ATOM     19  C   UNL     1     -56.392 -30.848   1.952 -0.22 +0.00    +0.001 A  
DOCKED: ATOM     20  C   UNL     1     -57.506 -30.603   2.756 -0.17 +0.00    +0.029 A  
DOCKED: ATOM     21  C   UNL     1     -58.258 -29.444   2.571 -0.20 +0.00    +0.140 A  
DOCKED: ATOM     22  C   UNL     1     -57.898 -28.528   1.583 -0.32 +0.00    +0.029 A  
DOCKED: ATOM     23  F   UNL     1     -59.327 -29.209   3.344 -0.03 -0.00    -0.204 F  
DOCKED: ATOM     24  C   UNL     1     -56.784 -28.772   0.778 -0.22 +0.00    +0.001 A  
DOCKED: ENDBRANCH   2  18
DOCKED: TORSDOF 5
DOCKED: TER
DOCKED: ENDMDL
________________________________________________________________________________


    FINAL DOCKED STATE:
    ________________________


Run:   266 / 512
Time taken for this run:   0.002s

DOCKED: MODEL        266
DOCKED: USER    Run = 266
DOCKED: USER
DOCKED: USER    Estimated Free Energy of Binding    =  -4.03 kcal/mol  [=(1)+(2)+(3)-(4)]
DOCKED: USER
DOCKED: USER    (1) Final Intermolecular Energy     =  -5.52 kcal/mol
DOCKED: USER        vdW + Hbond + desolv Energy     =  -5.52 kcal/mol
DOCKED: USER        Electrostatic Energy            =  +0.00 kcal/mol
DOCKED: USER        Moving Ligand-Fixed Receptor    =  -5.52 kcal/mol
DOCKED: USER        Moving Ligand-Moving Receptor   =  +0.00 kcal/mol
DOCKED: USER    (2) Final Total Internal Energy     =  -1.45 kcal/mol
DOCKED: USER    (3) Torsional Free Energy           =  +1.49 kcal/mol
DOCKED: USER    (4) Unbound System's Energy         =  -1.45 kcal/mol
DOCKED: USER
DOCKED: USER
DOCKED: REMARK  5 active torsions:
DOCKED: REMARK  status: ('A' for Active; 'I' for Inactive)
DOCKED: REMARK    1  A    between atoms: C_2  and  C_19 
DOCKED: REMARK    2  A    between atoms: C_2  and  C_11 
DOCKED: REMARK    3  A    between atoms: C_19  and  C_20 
DOCKED: REMARK    4  A    between atoms: C_20  and  C_21 
DOCKED: REMARK    5  A    between atoms: C_21  and  N_22 
DOCKED: USER                              x       y       z     vdW  Elec       q    Type
DOCKED: USER                           _______ _______ _______ _____ _____    ______ ____
DOCKED: ROOT
DOCKED: ATOM      1  O   UNL     1     -55.653 -35.514   8.700 -0.05 -0.00    -0.346 OA 
DOCKED: ATOM      2  C   UNL     1     -56.727 -34.808   8.000 -0.11 +0.00    +0.130 C  
DOCKED: ATOM      3  C   UNL     1     -57.446 -35.895   7.255 -0.22 +0.00    +0.004 A  
DOCKED: ATOM      4  C   UNL     1     -56.902 -37.127   7.586 -0.25 +0.00    +0.006 A  
DOCKED: ATOM      5  C   UNL     1     -55.809 -36.946   8.568 -0.16 +0.00    +0.169 C  
DOCKED: ATOM      6  C   UNL     1     -58.505 -35.801   6.364 -0.27 -0.00    -0.001 A  
DOCKED: ATOM      7  C   UNL     1     -57.390 -38.301   7.039 -0.34 +0.00    +0.008 A  
DOCKED: ATOM      8  C   UNL     1     -59.006 -36.976   5.800 -0.31 +0.00    +0.010 A  
DOCKED: ATOM      9  C   UNL     1     -58.452 -38.219   6.137 -0.32 +0.00    +0.068 A  
DOCKED: ATOM     10  N   UNL     1     -59.409 -40.381   5.076 -2.44 -0.00    -0.191 NA 
DOCKED: ATOM     11  C   UNL     1     -58.979 -39.411   5.551 -0.36 +0.00    +0.101 C  
DOCKED: ENDROOT
DOCKED: BRANCH   2  12
DOCKED: ATOM     12  C   UNL     1     -57.605 -34.117   9.036 -0.05 +0.00    +0.038 C  
DOCKED: BRANCH  12  13
DOCKED: ATOM     13  C   UNL     1     -57.273 -34.586  10.451 -0.02 +0.00    +0.038 C  
DOCKED: BRANCH  13  14
DOCKED: ATOM     14  C   UNL     1     -58.125 -35.791  10.844 -0.01 +0.00    +0.251 C  
DOCKED: BRANCH  14  15
DOCKED: ATOM     15  N   UNL     1     -59.257 -35.930   9.936 -0.02 +0.00    +0.141 N  
DOCKED: ATOM     16  C   UNL     1     -59.623 -37.339   9.779 -0.02 +0.00    +0.285 C  
DOCKED: ATOM     17  C   UNL     1     -60.403 -35.159  10.418 -0.00 +0.00    +0.285 C  
DOCKED: ENDBRANCH  14  15
DOCKED: ENDBRANCH  13  14
DOCKED: ENDBRANCH  12  13
DOCKED: ENDBRANCH   2  12
DOCKED: BRANCH   2  18
DOCKED: ATOM     18  C   UNL     1     -56.078 -33.814   7.095 -0.14 +0.00    +0.006 A  
DOCKED: ATOM     19  C   UNL     1     -55.018 -34.204   6.277 -0.07 +0.00    +0.001 A  
DOCKED: ATOM     20  C   UNL     1     -54.412 -33.274   5.432 -0.13 +0.00    +0.029 A  
DOCKED: ATOM     21  C   UNL     1     -54.866 -31.956   5.406 -0.07 +0.00    +0.140 A  
DOCKED: ATOM     22  C   UNL     1     -55.926 -31.566   6.224 -0.07 +0.00    +0.029 A  
DOCKED: ATOM     23  F   UNL     1     -54.285 -31.063   4.593 -0.00 -0.00    -0.204 F  
DOCKED: ATOM     24  C   UNL     1     -56.533 -32.496   7.070 -0.09 +0.00    +0.001 A  
DOCKED: ENDBRANCH   2  18
DOCKED: TORSDOF 5
DOCKED: TER
DOCKED: ENDMDL
________________________________________________________________________________


    FINAL DOCKED STATE:
    ________________________


Run:   267 / 512
Time taken for this run:   0.002s

DOCKED: MODEL        267
DOCKED: USER    Run = 267
DOCKED: USER
DOCKED: USER    Estimated Free Energy of Binding    =  -3.96 kcal/mol  [=(1)+(2)+(3)-(4)]
DOCKED: USER
DOCKED: USER    (1) Final Intermolecular Energy     =  -5.46 kcal/mol
DOCKED: USER        vdW + Hbond + desolv Energy     =  -5.46 kcal/mol
DOCKED: USER        Electrostatic Energy            =  +0.00 kcal/mol
DOCKED: USER        Moving Ligand-Fixed Receptor    =  -5.46 kcal/mol
DOCKED: USER        Moving Ligand-Moving Receptor   =  +0.00 kcal/mol
DOCKED: USER    (2) Final Total Internal Energy     =  -1.17 kcal/mol
DOCKED: USER    (3) Torsional Free Energy           =  +1.49 kcal/mol
DOCKED: USER    (4) Unbound System's Energy         =  -1.17 kcal/mol
DOCKED: USER
DOCKED: USER
DOCKED: REMARK  5 active torsions:
DOCKED: REMARK  status: ('A' for Active; 'I' for Inactive)
DOCKED: REMARK    1  A    between atoms: C_2  and  C_19 
DOCKED: REMARK    2  A    between atoms: C_2  and  C_11 
DOCKED: REMARK    3  A    between atoms: C_19  and  C_20 
DOCKED: REMARK    4  A    between atoms: C_20  and  C_21 
DOCKED: REMARK    5  A    between atoms: C_21  and  N_22 
DOCKED: USER                              x       y       z     vdW  Elec       q    Type
DOCKED: USER                           _______ _______ _______ _____ _____    ______ ____
DOCKED: ROOT
DOCKED: ATOM      1  O   UNL     1     -55.935 -34.389   7.333 -0.07 -0.00    -0.346 OA 
DOCKED: ATOM      2  C   UNL     1     -55.555 -35.513   8.190 -0.13 +0.00    +0.130 C  
DOCKED: ATOM      3  C   UNL     1     -56.431 -36.637   7.719 -0.21 +0.00    +0.004 A  
DOCKED: ATOM      4  C   UNL     1     -57.167 -36.226   6.618 -0.21 +0.00    +0.006 A  
DOCKED: ATOM      5  C   UNL     1     -56.826 -34.825   6.280 -0.14 +0.00    +0.169 C  
DOCKED: ATOM      6  C   UNL     1     -56.557 -37.925   8.218 -0.25 -0.00    -0.001 A  
DOCKED: ATOM      7  C   UNL     1     -58.054 -37.079   5.983 -0.33 +0.00    +0.008 A  
DOCKED: ATOM      8  C   UNL     1     -57.450 -38.797   7.592 -0.33 +0.00    +0.010 A  
DOCKED: ATOM      9  C   UNL     1     -58.194 -38.376   6.480 -0.31 +0.00    +0.068 A  
DOCKED: ATOM     10  N   UNL     1     -59.838 -40.021   5.338 -2.52 -0.00    -0.191 NA 
DOCKED: ATOM     11  C   UNL     1     -59.101 -39.283   5.851 -0.33 +0.00    +0.101 C  
DOCKED: ENDROOT
DOCKED: BRANCH   2  12
DOCKED: ATOM     12  C   UNL     1     -54.070 -35.792   7.989 -0.11 +0.00    +0.038 C  
DOCKED: BRANCH  12  13
DOCKED: ATOM     13  C   UNL     1     -53.709 -37.215   8.412 -0.20 +0.00    +0.038 C  
DOCKED: BRANCH  13  14
DOCKED: ATOM     14  C   UNL     1     -52.579 -37.212   9.440 -0.08 +0.00    +0.251 C  
DOCKED: BRANCH  14  15
DOCKED: ATOM     15  N   UNL     1     -53.104 -36.931  10.771 -0.05 +0.00    +0.141 N  
DOCKED: ATOM     16  C   UNL     1     -53.815 -38.096  11.301 -0.06 +0.00    +0.285 C  
DOCKED: ATOM     17  C   UNL     1     -52.025 -36.539  11.679 -0.01 +0.00    +0.285 C  
DOCKED: ENDBRANCH  14  15
DOCKED: ENDBRANCH  13  14
DOCKED: ENDBRANCH  12  13
DOCKED: ENDBRANCH   2  12
DOCKED: BRANCH   2  18
DOCKED: ATOM     18  C   UNL     1     -55.840 -35.104   9.597 -0.05 +0.00    +0.006 A  
DOCKED: ATOM     19  C   UNL     1     -57.129 -35.231  10.112 -0.03 +0.00    +0.001 A  
DOCKED: ATOM     20  C   UNL     1     -57.394 -34.848  11.428 -0.01 +0.00    +0.029 A  
DOCKED: ATOM     21  C   UNL     1     -56.370 -34.340  12.225 -0.00 +0.00    +0.140 A  
DOCKED: ATOM     22  C   UNL     1     -55.081 -34.213  11.710 -0.01 +0.00    +0.029 A  
DOCKED: ATOM     23  F   UNL     1     -56.624 -33.974  13.489 +0.00 -0.00    -0.204 F  
DOCKED: ATOM     24  C   UNL     1     -54.815 -34.595  10.394 -0.02 +0.00    +0.001 A  
DOCKED: ENDBRANCH   2  18
DOCKED: TORSDOF 5
DOCKED: TER
DOCKED: ENDMDL
________________________________________________________________________________


    FINAL DOCKED STATE:
    ________________________


Run:   268 / 512
Time taken for this run:   0.002s

DOCKED: MODEL        268
DOCKED: USER    Run = 268
DOCKED: USER
DOCKED: USER    Estimated Free Energy of Binding    =  -3.71 kcal/mol  [=(1)+(2)+(3)-(4)]
DOCKED: USER
DOCKED: USER    (1) Final Intermolecular Energy     =  -5.20 kcal/mol
DOCKED: USER        vdW + Hbond + desolv Energy     =  -5.20 kcal/mol
DOCKED: USER        Electrostatic Energy            =  +0.00 kcal/mol
DOCKED: USER        Moving Ligand-Fixed Receptor    =  -5.20 kcal/mol
DOCKED: USER        Moving Ligand-Moving Receptor   =  +0.00 kcal/mol
DOCKED: USER    (2) Final Total Internal Energy     =  -0.99 kcal/mol
DOCKED: USER    (3) Torsional Free Energy           =  +1.49 kcal/mol
DOCKED: USER    (4) Unbound System's Energy         =  -0.99 kcal/mol
DOCKED: USER
DOCKED: USER
DOCKED: REMARK  5 active torsions:
DOCKED: REMARK  status: ('A' for Active; 'I' for Inactive)
DOCKED: REMARK    1  A    between atoms: C_2  and  C_19 
DOCKED: REMARK    2  A    between atoms: C_2  and  C_11 
DOCKED: REMARK    3  A    between atoms: C_19  and  C_20 
DOCKED: REMARK    4  A    between atoms: C_20  and  C_21 
DOCKED: REMARK    5  A    between atoms: C_21  and  N_22 
DOCKED: USER                              x       y       z     vdW  Elec       q    Type
DOCKED: USER                           _______ _______ _______ _____ _____    ______ ____
DOCKED: ROOT
DOCKED: ATOM      1  O   UNL     1     -51.323 -25.838  -1.141 -0.05 -0.00    -0.346 OA 
DOCKED: ATOM      2  C   UNL     1     -51.355 -27.255  -1.504 -0.09 +0.00    +0.130 C  
DOCKED: ATOM      3  C   UNL     1     -52.608 -27.389  -2.320 -0.14 +0.00    +0.004 A  
DOCKED: ATOM      4  C   UNL     1     -53.182 -26.139  -2.503 -0.24 +0.00    +0.006 A  
DOCKED: ATOM      5  C   UNL     1     -52.356 -25.105  -1.841 -0.19 +0.00    +0.169 C  
DOCKED: ATOM      6  C   UNL     1     -53.187 -28.525  -2.868 -0.15 -0.00    -0.001 A  
DOCKED: ATOM      7  C   UNL     1     -54.350 -25.982  -3.230 -0.22 +0.00    +0.008 A  
DOCKED: ATOM      8  C   UNL     1     -54.366 -28.383  -3.601 -0.25 +0.00    +0.010 A  
DOCKED: ATOM      9  C   UNL     1     -54.945 -27.118  -3.781 -0.35 +0.00    +0.068 A  
DOCKED: ATOM     10  N   UNL     1     -57.132 -26.889  -5.150 -2.55 -0.00    -0.191 NA 
DOCKED: ATOM     11  C   UNL     1     -56.151 -26.992  -4.535 -0.39 +0.00    +0.101 C  
DOCKED: ENDROOT
DOCKED: BRANCH   2  12
DOCKED: ATOM     12  C   UNL     1     -50.094 -27.580  -2.295 -0.03 +0.00    +0.038 C  
DOCKED: BRANCH  12  13
DOCKED: ATOM     13  C   UNL     1     -50.216 -27.130  -3.749 -0.03 +0.00    +0.038 C  
DOCKED: BRANCH  13  14
DOCKED: ATOM     14  C   UNL     1     -50.604 -28.297  -4.655 -0.00 +0.00    +0.251 C  
DOCKED: BRANCH  14  15
DOCKED: ATOM     15  N   UNL     1     -49.452 -28.741  -5.430 -0.00 +0.00    +0.141 N  
DOCKED: ATOM     16  C   UNL     1     -49.249 -30.182  -5.274 +0.00 +0.00    +0.285 C  
DOCKED: ATOM     17  C   UNL     1     -49.620 -28.403  -6.844 +0.01 +0.00    +0.285 C  
DOCKED: ENDBRANCH  14  15
DOCKED: ENDBRANCH  13  14
DOCKED: ENDBRANCH  12  13
DOCKED: ENDBRANCH   2  12
DOCKED: BRANCH   2  18
DOCKED: ATOM     18  C   UNL     1     -51.406 -28.030  -0.229 -0.11 +0.00    +0.006 A  
DOCKED: ATOM     19  C   UNL     1     -52.629 -28.491   0.257 -0.14 +0.00    +0.001 A  
DOCKED: ATOM     20  C   UNL     1     -52.675 -29.216   1.449 -0.12 +0.00    +0.029 A  
DOCKED: ATOM     21  C   UNL     1     -51.500 -29.478   2.152 -0.05 +0.00    +0.140 A  
DOCKED: ATOM     22  C   UNL     1     -50.278 -29.016   1.664 -0.04 +0.00    +0.029 A  
DOCKED: ATOM     23  F   UNL     1     -51.545 -30.174   3.295 -0.00 -0.00    -0.204 F  
DOCKED: ATOM     24  C   UNL     1     -50.230 -28.291   0.473 -0.06 +0.00    +0.001 A  
DOCKED: ENDBRANCH   2  18
DOCKED: TORSDOF 5
DOCKED: TER
DOCKED: ENDMDL
________________________________________________________________________________


    FINAL DOCKED STATE:
    ________________________


Run:   269 / 512
Time taken for this run:   0.002s

DOCKED: MODEL        269
DOCKED: USER    Run = 269
DOCKED: USER
DOCKED: USER    Estimated Free Energy of Binding    =  -4.09 kcal/mol  [=(1)+(2)+(3)-(4)]
DOCKED: USER
DOCKED: USER    (1) Final Intermolecular Energy     =  -5.58 kcal/mol
DOCKED: USER        vdW + Hbond + desolv Energy     =  -5.58 kcal/mol
DOCKED: USER        Electrostatic Energy            =  +0.00 kcal/mol
DOCKED: USER        Moving Ligand-Fixed Receptor    =  -5.58 kcal/mol
DOCKED: USER        Moving Ligand-Moving Receptor   =  +0.00 kcal/mol
DOCKED: USER    (2) Final Total Internal Energy     =  -1.50 kcal/mol
DOCKED: USER    (3) Torsional Free Energy           =  +1.49 kcal/mol
DOCKED: USER    (4) Unbound System's Energy         =  -1.50 kcal/mol
DOCKED: USER
DOCKED: USER
DOCKED: REMARK  5 active torsions:
DOCKED: REMARK  status: ('A' for Active; 'I' for Inactive)
DOCKED: REMARK    1  A    between atoms: C_2  and  C_19 
DOCKED: REMARK    2  A    between atoms: C_2  and  C_11 
DOCKED: REMARK    3  A    between atoms: C_19  and  C_20 
DOCKED: REMARK    4  A    between atoms: C_20  and  C_21 
DOCKED: REMARK    5  A    between atoms: C_21  and  N_22 
DOCKED: USER                              x       y       z     vdW  Elec       q    Type
DOCKED: USER                           _______ _______ _______ _____ _____    ______ ____
DOCKED: ROOT
DOCKED: ATOM      1  O   UNL     1     -61.269 -33.814   7.514 -0.07 -0.00    -0.346 OA 
DOCKED: ATOM      2  C   UNL     1     -59.836 -33.788   7.215 -0.20 +0.00    +0.130 C  
DOCKED: ATOM      3  C   UNL     1     -59.532 -35.196   6.792 -0.23 +0.00    +0.004 A  
DOCKED: ATOM      4  C   UNL     1     -60.706 -35.934   6.746 -0.20 +0.00    +0.006 A  
DOCKED: ATOM      5  C   UNL     1     -61.854 -35.076   7.118 -0.18 +0.00    +0.169 C  
DOCKED: ATOM      6  C   UNL     1     -58.315 -35.774   6.463 -0.28 -0.00    -0.001 A  
DOCKED: ATOM      7  C   UNL     1     -60.705 -37.268   6.377 -0.24 +0.00    +0.008 A  
DOCKED: ATOM      8  C   UNL     1     -58.296 -37.120   6.093 -0.34 +0.00    +0.010 A  
DOCKED: ATOM      9  C   UNL     1     -59.485 -37.863   6.049 -0.26 +0.00    +0.068 A  
DOCKED: ATOM     10  N   UNL     1     -59.416 -40.357   5.352 -2.60 -0.00    -0.191 NA 
DOCKED: ATOM     11  C   UNL     1     -59.447 -39.238   5.665 -0.37 +0.00    +0.101 C  
DOCKED: ENDROOT
DOCKED: BRANCH   2  12
DOCKED: ATOM     12  C   UNL     1     -59.593 -32.770   6.108 -0.15 +0.00    +0.038 C  
DOCKED: BRANCH  12  13
DOCKED: ATOM     13  C   UNL     1     -60.671 -31.688   6.099 -0.20 +0.00    +0.038 C  
DOCKED: BRANCH  13  14
DOCKED: ATOM     14  C   UNL     1     -60.420 -30.653   7.194 -0.05 +0.00    +0.251 C  
DOCKED: BRANCH  14  15
DOCKED: ATOM     15  N   UNL     1     -61.441 -30.752   8.230 -0.03 +0.00    +0.141 N  
DOCKED: ATOM     16  C   UNL     1     -61.449 -29.549   9.064 +0.00 +0.00    +0.285 C  
DOCKED: ATOM     17  C   UNL     1     -62.761 -30.964   7.634 -0.02 +0.00    +0.285 C  
DOCKED: ENDBRANCH  14  15
DOCKED: ENDBRANCH  13  14
DOCKED: ENDBRANCH  12  13
DOCKED: ENDBRANCH   2  12
DOCKED: BRANCH   2  18
DOCKED: ATOM     18  C   UNL     1     -59.135 -33.394   8.473 -0.06 +0.00    +0.006 A  
DOCKED: ATOM     19  C   UNL     1     -59.851 -33.284   9.664 -0.02 +0.00    +0.001 A  
DOCKED: ATOM     20  C   UNL     1     -59.195 -32.915  10.839 -0.00 +0.00    +0.029 A  
DOCKED: ATOM     21  C   UNL     1     -57.825 -32.658  10.821 -0.00 +0.00    +0.140 A  
DOCKED: ATOM     22  C   UNL     1     -57.109 -32.769   9.629 -0.01 +0.00    +0.029 A  
DOCKED: ATOM     23  F   UNL     1     -57.194 -32.306  11.949 +0.00 -0.00    -0.204 F  
DOCKED: ATOM     24  C   UNL     1     -57.765 -33.137   8.453 -0.05 +0.00    +0.001 A  
DOCKED: ENDBRANCH   2  18
DOCKED: TORSDOF 5
DOCKED: TER
DOCKED: ENDMDL
________________________________________________________________________________


    FINAL DOCKED STATE:
    ________________________


Run:   270 / 512
Time taken for this run:   0.002s

DOCKED: MODEL        270
DOCKED: USER    Run = 270
DOCKED: USER
DOCKED: USER    Estimated Free Energy of Binding    =  -3.42 kcal/mol  [=(1)+(2)+(3)-(4)]
DOCKED: USER
DOCKED: USER    (1) Final Intermolecular Energy     =  -4.91 kcal/mol
DOCKED: USER        vdW + Hbond + desolv Energy     =  -4.91 kcal/mol
DOCKED: USER        Electrostatic Energy            =  +0.00 kcal/mol
DOCKED: USER        Moving Ligand-Fixed Receptor    =  -4.91 kcal/mol
DOCKED: USER        Moving Ligand-Moving Receptor   =  +0.00 kcal/mol
DOCKED: USER    (2) Final Total Internal Energy     =  -1.47 kcal/mol
DOCKED: USER    (3) Torsional Free Energy           =  +1.49 kcal/mol
DOCKED: USER    (4) Unbound System's Energy         =  -1.47 kcal/mol
DOCKED: USER
DOCKED: USER
DOCKED: REMARK  5 active torsions:
DOCKED: REMARK  status: ('A' for Active; 'I' for Inactive)
DOCKED: REMARK    1  A    between atoms: C_2  and  C_19 
DOCKED: REMARK    2  A    between atoms: C_2  and  C_11 
DOCKED: REMARK    3  A    between atoms: C_19  and  C_20 
DOCKED: REMARK    4  A    between atoms: C_20  and  C_21 
DOCKED: REMARK    5  A    between atoms: C_21  and  N_22 
DOCKED: USER                              x       y       z     vdW  Elec       q    Type
DOCKED: USER                           _______ _______ _______ _____ _____    ______ ____
DOCKED: ROOT
DOCKED: ATOM      1  O   UNL     1     -51.007 -35.758  -0.518 -0.00 -0.00    -0.346 OA 
DOCKED: ATOM      2  C   UNL     1     -50.042 -36.839  -0.723 -0.08 +0.00    +0.130 C  
DOCKED: ATOM      3  C   UNL     1     -50.375 -37.828   0.356 -0.12 +0.00    +0.004 A  
DOCKED: ATOM      4  C   UNL     1     -51.500 -37.403   1.048 -0.19 +0.00    +0.006 A  
DOCKED: ATOM      5  C   UNL     1     -51.991 -36.130   0.475 -0.12 +0.00    +0.169 C  
DOCKED: ATOM      6  C   UNL     1     -49.739 -39.014   0.692 -0.11 -0.00    -0.001 A  
DOCKED: ATOM      7  C   UNL     1     -52.024 -38.142   2.095 -0.32 +0.00    +0.008 A  
DOCKED: ATOM      8  C   UNL     1     -50.253 -39.768   1.748 -0.22 +0.00    +0.010 A  
DOCKED: ATOM      9  C   UNL     1     -51.390 -39.334   2.446 -0.30 +0.00    +0.068 A  
DOCKED: ATOM     10  N   UNL     1     -52.320 -40.760   4.399 -2.65 -0.00    -0.191 NA 
DOCKED: ATOM     11  C   UNL     1     -51.903 -40.120   3.523 -0.38 +0.00    +0.101 C  
DOCKED: ENDROOT
DOCKED: BRANCH   2  12
DOCKED: ATOM     12  C   UNL     1     -50.239 -37.402  -2.126 -0.12 +0.00    +0.038 C  
DOCKED: BRANCH  12  13
DOCKED: ATOM     13  C   UNL     1     -51.103 -36.477  -2.981 -0.13 +0.00    +0.038 C  
DOCKED: BRANCH  13  14
DOCKED: ATOM     14  C   UNL     1     -50.342 -36.003  -4.217 -0.08 +0.00    +0.251 C  
DOCKED: BRANCH  14  15
DOCKED: ATOM     15  N   UNL     1     -50.006 -34.589  -4.095 -0.02 +0.00    +0.141 N  
DOCKED: ATOM     16  C   UNL     1     -50.759 -33.973  -3.002 -0.03 +0.00    +0.285 C  
DOCKED: ATOM     17  C   UNL     1     -48.568 -34.417  -3.881 +0.00 +0.00    +0.285 C  
DOCKED: ENDBRANCH  14  15
DOCKED: ENDBRANCH  13  14
DOCKED: ENDBRANCH  12  13
DOCKED: ENDBRANCH   2  12
DOCKED: BRANCH   2  18
DOCKED: ATOM     18  C   UNL     1     -48.681 -36.245  -0.568 -0.01 +0.00    +0.006 A  
DOCKED: ATOM     19  C   UNL     1     -47.558 -36.958  -0.985 -0.01 +0.00    +0.001 A  
DOCKED: ATOM     20  C   UNL     1     -46.287 -36.402  -0.839 -0.00 +0.00    +0.029 A  
DOCKED: ATOM     21  C   UNL     1     -46.141 -35.134  -0.278 -0.00 +0.00    +0.140 A  
DOCKED: ATOM     22  C   UNL     1     -47.265 -34.421   0.138 -0.00 +0.00    +0.029 A  
DOCKED: ATOM     23  F   UNL     1     -44.921 -34.599  -0.140 +0.00 -0.00    -0.204 F  
DOCKED: ATOM     24  C   UNL     1     -48.537 -34.977  -0.007 -0.00 +0.00    +0.001 A  
DOCKED: ENDBRANCH   2  18
DOCKED: TORSDOF 5
DOCKED: TER
DOCKED: ENDMDL
________________________________________________________________________________


    FINAL DOCKED STATE:
    ________________________


Run:   271 / 512
Time taken for this run:   0.002s

DOCKED: MODEL        271
DOCKED: USER    Run = 271
DOCKED: USER
DOCKED: USER    Estimated Free Energy of Binding    =  -4.50 kcal/mol  [=(1)+(2)+(3)-(4)]
DOCKED: USER
DOCKED: USER    (1) Final Intermolecular Energy     =  -5.99 kcal/mol
DOCKED: USER        vdW + Hbond + desolv Energy     =  -5.99 kcal/mol
DOCKED: USER        Electrostatic Energy            =  +0.00 kcal/mol
DOCKED: USER        Moving Ligand-Fixed Receptor    =  -5.99 kcal/mol
DOCKED: USER        Moving Ligand-Moving Receptor   =  +0.00 kcal/mol
DOCKED: USER    (2) Final Total Internal Energy     =  -1.29 kcal/mol
DOCKED: USER    (3) Torsional Free Energy           =  +1.49 kcal/mol
DOCKED: USER    (4) Unbound System's Energy         =  -1.29 kcal/mol
DOCKED: USER
DOCKED: USER
DOCKED: REMARK  5 active torsions:
DOCKED: REMARK  status: ('A' for Active; 'I' for Inactive)
DOCKED: REMARK    1  A    between atoms: C_2  and  C_19 
DOCKED: REMARK    2  A    between atoms: C_2  and  C_11 
DOCKED: REMARK    3  A    between atoms: C_19  and  C_20 
DOCKED: REMARK    4  A    between atoms: C_20  and  C_21 
DOCKED: REMARK    5  A    between atoms: C_21  and  N_22 
DOCKED: USER                              x       y       z     vdW  Elec       q    Type
DOCKED: USER                           _______ _______ _______ _____ _____    ______ ____
DOCKED: ROOT
DOCKED: ATOM      1  O   UNL     1     -57.727 -38.984   9.392 -0.09 -0.00    -0.346 OA 
DOCKED: ATOM      2  C   UNL     1     -57.583 -37.597   8.946 -0.14 +0.00    +0.130 C  
DOCKED: ATOM      3  C   UNL     1     -57.935 -37.651   7.487 -0.25 +0.00    +0.004 A  
DOCKED: ATOM      4  C   UNL     1     -58.350 -38.932   7.154 -0.30 +0.00    +0.006 A  
DOCKED: ATOM      5  C   UNL     1     -58.315 -39.800   8.352 -0.18 +0.00    +0.169 C  
DOCKED: ATOM      6  C   UNL     1     -57.900 -36.644   6.534 -0.31 -0.00    -0.001 A  
DOCKED: ATOM      7  C   UNL     1     -58.739 -39.251   5.864 -0.37 +0.00    +0.008 A  
DOCKED: ATOM      8  C   UNL     1     -58.285 -36.950   5.228 -0.26 +0.00    +0.010 A  
DOCKED: ATOM      9  C   UNL     1     -58.703 -38.247   4.895 -0.38 +0.00    +0.068 A  
DOCKED: ATOM     10  N   UNL     1     -59.416 -38.781   2.462 -1.95 -0.00    -0.191 NA 
DOCKED: ATOM     11  C   UNL     1     -59.095 -38.542   3.553 -0.52 +0.00    +0.101 C  
DOCKED: ENDROOT
DOCKED: BRANCH   2  12
DOCKED: ATOM     12  C   UNL     1     -58.539 -36.728   9.755 -0.07 +0.00    +0.038 C  
DOCKED: BRANCH  12  13
DOCKED: ATOM     13  C   UNL     1     -59.922 -36.672   9.110 -0.08 +0.00    +0.038 C  
DOCKED: BRANCH  13  14
DOCKED: ATOM     14  C   UNL     1     -60.509 -35.265   9.190 -0.02 +0.00    +0.251 C  
DOCKED: BRANCH  14  15
DOCKED: ATOM     15  N   UNL     1     -61.188 -34.927   7.944 -0.10 +0.00    +0.141 N  
DOCKED: ATOM     16  C   UNL     1     -60.246 -34.349   6.983 -0.16 +0.00    +0.285 C  
DOCKED: ATOM     17  C   UNL     1     -61.835 -36.109   7.372 -0.10 +0.00    +0.285 C  
DOCKED: ENDBRANCH  14  15
DOCKED: ENDBRANCH  13  14
DOCKED: ENDBRANCH  12  13
DOCKED: ENDBRANCH   2  12
DOCKED: BRANCH   2  18
DOCKED: ATOM     18  C   UNL     1     -56.164 -37.206   9.188 -0.16 +0.00    +0.006 A  
DOCKED: ATOM     19  C   UNL     1     -55.801 -36.612  10.396 -0.08 +0.00    +0.001 A  
DOCKED: ATOM     20  C   UNL     1     -54.474 -36.247  10.621 -0.06 +0.00    +0.029 A  
DOCKED: ATOM     21  C   UNL     1     -53.511 -36.476   9.639 -0.07 +0.00    +0.140 A  
DOCKED: ATOM     22  C   UNL     1     -53.874 -37.070   8.431 -0.16 +0.00    +0.029 A  
DOCKED: ATOM     23  F   UNL     1     -52.236 -36.127   9.856 -0.00 -0.00    -0.204 F  
DOCKED: ATOM     24  C   UNL     1     -55.202 -37.436   8.205 -0.16 +0.00    +0.001 A  
DOCKED: ENDBRANCH   2  18
DOCKED: TORSDOF 5
DOCKED: TER
DOCKED: ENDMDL
________________________________________________________________________________


    FINAL DOCKED STATE:
    ________________________


Run:   272 / 512
Time taken for this run:   0.002s

DOCKED: MODEL        272
DOCKED: USER    Run = 272
DOCKED: USER
DOCKED: USER    Estimated Free Energy of Binding    =  -4.22 kcal/mol  [=(1)+(2)+(3)-(4)]
DOCKED: USER
DOCKED: USER    (1) Final Intermolecular Energy     =  -5.71 kcal/mol
DOCKED: USER        vdW + Hbond + desolv Energy     =  -5.71 kcal/mol
DOCKED: USER        Electrostatic Energy            =  +0.00 kcal/mol
DOCKED: USER        Moving Ligand-Fixed Receptor    =  -5.71 kcal/mol
DOCKED: USER        Moving Ligand-Moving Receptor   =  +0.00 kcal/mol
DOCKED: USER    (2) Final Total Internal Energy     =  -1.39 kcal/mol
DOCKED: USER    (3) Torsional Free Energy           =  +1.49 kcal/mol
DOCKED: USER    (4) Unbound System's Energy         =  -1.39 kcal/mol
DOCKED: USER
DOCKED: USER
DOCKED: REMARK  5 active torsions:
DOCKED: REMARK  status: ('A' for Active; 'I' for Inactive)
DOCKED: REMARK    1  A    between atoms: C_2  and  C_19 
DOCKED: REMARK    2  A    between atoms: C_2  and  C_11 
DOCKED: REMARK    3  A    between atoms: C_19  and  C_20 
DOCKED: REMARK    4  A    between atoms: C_20  and  C_21 
DOCKED: REMARK    5  A    between atoms: C_21  and  N_22 
DOCKED: USER                              x       y       z     vdW  Elec       q    Type
DOCKED: USER                           _______ _______ _______ _____ _____    ______ ____
DOCKED: ROOT
DOCKED: ATOM      1  O   UNL     1     -55.279 -36.033   8.797 -0.06 -0.00    -0.346 OA 
DOCKED: ATOM      2  C   UNL     1     -56.274 -35.202   8.118 -0.12 +0.00    +0.130 C  
DOCKED: ATOM      3  C   UNL     1     -57.090 -36.187   7.332 -0.22 +0.00    +0.004 A  
DOCKED: ATOM      4  C   UNL     1     -56.669 -37.477   7.621 -0.26 +0.00    +0.006 A  
DOCKED: ATOM      5  C   UNL     1     -55.572 -37.437   8.614 -0.16 +0.00    +0.169 C  
DOCKED: ATOM      6  C   UNL     1     -58.128 -35.960   6.441 -0.29 -0.00    -0.001 A  
DOCKED: ATOM      7  C   UNL     1     -57.265 -38.579   7.031 -0.36 +0.00    +0.008 A  
DOCKED: ATOM      8  C   UNL     1     -58.736 -37.061   5.834 -0.33 +0.00    +0.010 A  
DOCKED: ATOM      9  C   UNL     1     -58.307 -38.363   6.128 -0.33 +0.00    +0.068 A  
DOCKED: ATOM     10  N   UNL     1     -59.460 -40.384   4.987 -2.39 -0.00    -0.191 NA 
DOCKED: ATOM     11  C   UNL     1     -58.942 -39.477   5.498 -0.36 +0.00    +0.101 C  
DOCKED: ENDROOT
DOCKED: BRANCH   2  12
DOCKED: ATOM     12  C   UNL     1     -57.090 -34.466   9.175 -0.05 +0.00    +0.038 C  
DOCKED: BRANCH  12  13
DOCKED: ATOM     13  C   UNL     1     -57.983 -35.426   9.957 -0.04 +0.00    +0.038 C  
DOCKED: BRANCH  13  14
DOCKED: ATOM     14  C   UNL     1     -59.459 -35.177   9.650 -0.01 +0.00    +0.251 C  
DOCKED: BRANCH  14  15
DOCKED: ATOM     15  N   UNL     1     -60.150 -36.441   9.422 -0.03 +0.00    +0.141 N  
DOCKED: ATOM     16  C   UNL     1     -59.461 -37.536  10.108 -0.03 +0.00    +0.285 C  
DOCKED: ATOM     17  C   UNL     1     -61.541 -36.356   9.871 -0.00 +0.00    +0.285 C  
DOCKED: ENDBRANCH  14  15
DOCKED: ENDBRANCH  13  14
DOCKED: ENDBRANCH  12  13
DOCKED: ENDBRANCH   2  12
DOCKED: BRANCH   2  18
DOCKED: ATOM     18  C   UNL     1     -55.526 -34.244   7.252 -0.14 +0.00    +0.006 A  
DOCKED: ATOM     19  C   UNL     1     -54.148 -34.382   7.090 -0.11 +0.00    +0.001 A  
DOCKED: ATOM     20  C   UNL     1     -53.449 -33.485   6.280 -0.09 +0.00    +0.029 A  
DOCKED: ATOM     21  C   UNL     1     -54.129 -32.454   5.634 -0.07 +0.00    +0.140 A  
DOCKED: ATOM     22  C   UNL     1     -55.507 -32.317   5.796 -0.10 +0.00    +0.029 A  
DOCKED: ATOM     23  F   UNL     1     -53.459 -31.595   4.855 -0.00 -0.00    -0.204 F  
DOCKED: ATOM     24  C   UNL     1     -56.207 -33.213   6.607 -0.14 +0.00    +0.001 A  
DOCKED: ENDBRANCH   2  18
DOCKED: TORSDOF 5
DOCKED: TER
DOCKED: ENDMDL
________________________________________________________________________________


    FINAL DOCKED STATE:
    ________________________


Run:   273 / 512
Time taken for this run:   0.002s

DOCKED: MODEL        273
DOCKED: USER    Run = 273
DOCKED: USER
DOCKED: USER    Estimated Free Energy of Binding    =  -3.91 kcal/mol  [=(1)+(2)+(3)-(4)]
DOCKED: USER
DOCKED: USER    (1) Final Intermolecular Energy     =  -5.40 kcal/mol
DOCKED: USER        vdW + Hbond + desolv Energy     =  -5.40 kcal/mol
DOCKED: USER        Electrostatic Energy            =  +0.00 kcal/mol
DOCKED: USER        Moving Ligand-Fixed Receptor    =  -5.40 kcal/mol
DOCKED: USER        Moving Ligand-Moving Receptor   =  +0.00 kcal/mol
DOCKED: USER    (2) Final Total Internal Energy     =  -1.42 kcal/mol
DOCKED: USER    (3) Torsional Free Energy           =  +1.49 kcal/mol
DOCKED: USER    (4) Unbound System's Energy         =  -1.42 kcal/mol
DOCKED: USER
DOCKED: USER
DOCKED: REMARK  5 active torsions:
DOCKED: REMARK  status: ('A' for Active; 'I' for Inactive)
DOCKED: REMARK    1  A    between atoms: C_2  and  C_19 
DOCKED: REMARK    2  A    between atoms: C_2  and  C_11 
DOCKED: REMARK    3  A    between atoms: C_19  and  C_20 
DOCKED: REMARK    4  A    between atoms: C_20  and  C_21 
DOCKED: REMARK    5  A    between atoms: C_21  and  N_22 
DOCKED: USER                              x       y       z     vdW  Elec       q    Type
DOCKED: USER                           _______ _______ _______ _____ _____    ______ ____
DOCKED: ROOT
DOCKED: ATOM      1  O   UNL     1     -59.448 -33.784   7.805 -0.04 -0.00    -0.346 OA 
DOCKED: ATOM      2  C   UNL     1     -58.063 -34.218   7.623 -0.13 +0.00    +0.130 C  
DOCKED: ATOM      3  C   UNL     1     -58.191 -35.610   7.075 -0.23 +0.00    +0.004 A  
DOCKED: ATOM      4  C   UNL     1     -59.529 -35.905   6.858 -0.23 +0.00    +0.006 A  
DOCKED: ATOM      5  C   UNL     1     -60.367 -34.742   7.230 -0.18 +0.00    +0.169 C  
DOCKED: ATOM      6  C   UNL     1     -57.201 -36.537   6.781 -0.25 -0.00    -0.001 A  
DOCKED: ATOM      7  C   UNL     1     -59.924 -37.130   6.348 -0.25 +0.00    +0.008 A  
DOCKED: ATOM      8  C   UNL     1     -57.583 -37.778   6.269 -0.32 +0.00    +0.010 A  
DOCKED: ATOM      9  C   UNL     1     -58.938 -38.073   6.053 -0.30 +0.00    +0.068 A  
DOCKED: ATOM     10  N   UNL     1     -59.612 -40.385   5.098 -2.44 -0.00    -0.191 NA 
DOCKED: ATOM     11  C   UNL     1     -59.310 -39.348   5.527 -0.38 +0.00    +0.101 C  
DOCKED: ENDROOT
DOCKED: BRANCH   2  12
DOCKED: ATOM     12  C   UNL     1     -57.380 -33.260   6.655 -0.16 +0.00    +0.038 C  
DOCKED: BRANCH  12  13
DOCKED: ATOM     13  C   UNL     1     -58.359 -32.216   6.121 -0.15 +0.00    +0.038 C  
DOCKED: BRANCH  13  14
DOCKED: ATOM     14  C   UNL     1     -58.254 -30.911   6.909 -0.05 +0.00    +0.251 C  
DOCKED: BRANCH  14  15
DOCKED: ATOM     15  N   UNL     1     -59.560 -30.525   7.428 -0.03 +0.00    +0.141 N  
DOCKED: ATOM     16  C   UNL     1     -60.624 -31.279   6.762 -0.09 +0.00    +0.285 C  
DOCKED: ATOM     17  C   UNL     1     -59.621 -30.733   8.876 -0.01 +0.00    +0.285 C  
DOCKED: ENDBRANCH  14  15
DOCKED: ENDBRANCH  13  14
DOCKED: ENDBRANCH  12  13
DOCKED: ENDBRANCH   2  12
DOCKED: BRANCH   2  18
DOCKED: ATOM     18  C   UNL     1     -57.413 -34.180   8.966 -0.05 +0.00    +0.006 A  
DOCKED: ATOM     19  C   UNL     1     -58.077 -33.595  10.044 -0.02 +0.00    +0.001 A  
DOCKED: ATOM     20  C   UNL     1     -57.469 -33.560  11.300 -0.00 +0.00    +0.029 A  
DOCKED: ATOM     21  C   UNL     1     -56.199 -34.108  11.475 -0.00 +0.00    +0.140 A  
DOCKED: ATOM     22  C   UNL     1     -55.536 -34.693  10.396 -0.02 +0.00    +0.029 A  
DOCKED: ATOM     23  F   UNL     1     -55.616 -34.075  12.680 -0.00 -0.00    -0.204 F  
DOCKED: ATOM     24  C   UNL     1     -56.143 -34.728   9.140 -0.05 +0.00    +0.001 A  
DOCKED: ENDBRANCH   2  18
DOCKED: TORSDOF 5
DOCKED: TER
DOCKED: ENDMDL
________________________________________________________________________________


    FINAL DOCKED STATE:
    ________________________


Run:   274 / 512
Time taken for this run:   0.002s

DOCKED: MODEL        274
DOCKED: USER    Run = 274
DOCKED: USER
DOCKED: USER    Estimated Free Energy of Binding    =  -3.50 kcal/mol  [=(1)+(2)+(3)-(4)]
DOCKED: USER
DOCKED: USER    (1) Final Intermolecular Energy     =  -4.99 kcal/mol
DOCKED: USER        vdW + Hbond + desolv Energy     =  -4.99 kcal/mol
DOCKED: USER        Electrostatic Energy            =  +0.00 kcal/mol
DOCKED: USER        Moving Ligand-Fixed Receptor    =  -4.99 kcal/mol
DOCKED: USER        Moving Ligand-Moving Receptor   =  +0.00 kcal/mol
DOCKED: USER    (2) Final Total Internal Energy     =  -1.37 kcal/mol
DOCKED: USER    (3) Torsional Free Energy           =  +1.49 kcal/mol
DOCKED: USER    (4) Unbound System's Energy         =  -1.37 kcal/mol
DOCKED: USER
DOCKED: USER
DOCKED: REMARK  5 active torsions:
DOCKED: REMARK  status: ('A' for Active; 'I' for Inactive)
DOCKED: REMARK    1  A    between atoms: C_2  and  C_19 
DOCKED: REMARK    2  A    between atoms: C_2  and  C_11 
DOCKED: REMARK    3  A    between atoms: C_19  and  C_20 
DOCKED: REMARK    4  A    between atoms: C_20  and  C_21 
DOCKED: REMARK    5  A    between atoms: C_21  and  N_22 
DOCKED: USER                              x       y       z     vdW  Elec       q    Type
DOCKED: USER                           _______ _______ _______ _____ _____    ______ ____
DOCKED: ROOT
DOCKED: ATOM      1  O   UNL     1     -51.683 -26.126  -0.552 -0.08 -0.00    -0.346 OA 
DOCKED: ATOM      2  C   UNL     1     -51.417 -27.325  -1.348 -0.09 +0.00    +0.130 C  
DOCKED: ATOM      3  C   UNL     1     -52.538 -27.350  -2.347 -0.14 +0.00    +0.004 A  
DOCKED: ATOM      4  C   UNL     1     -53.314 -26.208  -2.206 -0.23 +0.00    +0.006 A  
DOCKED: ATOM      5  C   UNL     1     -52.762 -25.355  -1.130 -0.05 +0.00    +0.169 C  
DOCKED: ATOM      6  C   UNL     1     -52.840 -28.301  -3.310 -0.12 -0.00    -0.001 A  
DOCKED: ATOM      7  C   UNL     1     -54.415 -25.981  -3.014 -0.25 +0.00    +0.008 A  
DOCKED: ATOM      8  C   UNL     1     -53.949 -28.088  -4.130 -0.23 +0.00    +0.010 A  
DOCKED: ATOM      9  C   UNL     1     -54.732 -26.934  -3.983 -0.34 +0.00    +0.068 A  
DOCKED: ATOM     10  N   UNL     1     -56.782 -26.567  -5.525 -2.55 -0.00    -0.191 NA 
DOCKED: ATOM     11  C   UNL     1     -55.863 -26.732  -4.833 -0.40 +0.00    +0.101 C  
DOCKED: ENDROOT
DOCKED: BRANCH   2  12
DOCKED: ATOM     12  C   UNL     1     -50.046 -27.177  -1.999 -0.03 +0.00    +0.038 C  
DOCKED: BRANCH  12  13
DOCKED: ATOM     13  C   UNL     1     -48.965 -26.888  -0.960 -0.02 +0.00    +0.038 C  
DOCKED: BRANCH  13  14
DOCKED: ATOM     14  C   UNL     1     -48.910 -25.399  -0.624 -0.01 +0.00    +0.251 C  
DOCKED: BRANCH  14  15
DOCKED: ATOM     15  N   UNL     1     -48.658 -25.208   0.799 -0.02 +0.00    +0.141 N  
DOCKED: ATOM     16  C   UNL     1     -49.536 -26.065   1.598 -0.05 +0.00    +0.285 C  
DOCKED: ATOM     17  C   UNL     1     -47.256 -25.484   1.116 -0.00 +0.00    +0.285 C  
DOCKED: ENDBRANCH  14  15
DOCKED: ENDBRANCH  13  14
DOCKED: ENDBRANCH  12  13
DOCKED: ENDBRANCH   2  12
DOCKED: BRANCH   2  18
DOCKED: ATOM     18  C   UNL     1     -51.446 -28.487  -0.412 -0.09 +0.00    +0.006 A  
DOCKED: ATOM     19  C   UNL     1     -50.833 -29.686  -0.771 -0.02 +0.00    +0.001 A  
DOCKED: ATOM     20  C   UNL     1     -50.862 -30.772   0.105 -0.01 +0.00    +0.029 A  
DOCKED: ATOM     21  C   UNL     1     -51.501 -30.656   1.339 -0.02 +0.00    +0.140 A  
DOCKED: ATOM     22  C   UNL     1     -52.113 -29.455   1.697 -0.09 +0.00    +0.029 A  
DOCKED: ATOM     23  F   UNL     1     -51.527 -31.697   2.180 +0.00 -0.00    -0.204 F  
DOCKED: ATOM     24  C   UNL     1     -52.086 -28.369   0.821 -0.12 +0.00    +0.001 A  
DOCKED: ENDBRANCH   2  18
DOCKED: TORSDOF 5
DOCKED: TER
DOCKED: ENDMDL
________________________________________________________________________________


    FINAL DOCKED STATE:
    ________________________


Run:   275 / 512
Time taken for this run:   0.002s

DOCKED: MODEL        275
DOCKED: USER    Run = 275
DOCKED: USER
DOCKED: USER    Estimated Free Energy of Binding    =  -4.08 kcal/mol  [=(1)+(2)+(3)-(4)]
DOCKED: USER
DOCKED: USER    (1) Final Intermolecular Energy     =  -5.57 kcal/mol
DOCKED: USER        vdW + Hbond + desolv Energy     =  -5.57 kcal/mol
DOCKED: USER        Electrostatic Energy            =  +0.00 kcal/mol
DOCKED: USER        Moving Ligand-Fixed Receptor    =  -5.57 kcal/mol
DOCKED: USER        Moving Ligand-Moving Receptor   =  +0.00 kcal/mol
DOCKED: USER    (2) Final Total Internal Energy     =  -1.24 kcal/mol
DOCKED: USER    (3) Torsional Free Energy           =  +1.49 kcal/mol
DOCKED: USER    (4) Unbound System's Energy         =  -1.24 kcal/mol
DOCKED: USER
DOCKED: USER
DOCKED: REMARK  5 active torsions:
DOCKED: REMARK  status: ('A' for Active; 'I' for Inactive)
DOCKED: REMARK    1  A    between atoms: C_2  and  C_19 
DOCKED: REMARK    2  A    between atoms: C_2  and  C_11 
DOCKED: REMARK    3  A    between atoms: C_19  and  C_20 
DOCKED: REMARK    4  A    between atoms: C_20  and  C_21 
DOCKED: REMARK    5  A    between atoms: C_21  and  N_22 
DOCKED: USER                              x       y       z     vdW  Elec       q    Type
DOCKED: USER                           _______ _______ _______ _____ _____    ______ ____
DOCKED: ROOT
DOCKED: ATOM      1  O   UNL     1     -60.899 -33.812   7.675 -0.06 -0.00    -0.346 OA 
DOCKED: ATOM      2  C   UNL     1     -59.479 -33.842   7.323 -0.18 +0.00    +0.130 C  
DOCKED: ATOM      3  C   UNL     1     -59.252 -35.253   6.863 -0.23 +0.00    +0.004 A  
DOCKED: ATOM      4  C   UNL     1     -60.459 -35.939   6.848 -0.22 +0.00    +0.006 A  
DOCKED: ATOM      5  C   UNL     1     -61.553 -35.039   7.278 -0.18 +0.00    +0.169 C  
DOCKED: ATOM      6  C   UNL     1     -58.075 -35.877   6.478 -0.28 -0.00    -0.001 A  
DOCKED: ATOM      7  C   UNL     1     -60.530 -37.264   6.454 -0.24 +0.00    +0.008 A  
DOCKED: ATOM      8  C   UNL     1     -58.129 -37.215   6.083 -0.34 +0.00    +0.010 A  
DOCKED: ATOM      9  C   UNL     1     -59.350 -37.904   6.071 -0.27 +0.00    +0.068 A  
DOCKED: ATOM     10  N   UNL     1     -59.417 -40.385   5.326 -2.61 -0.00    -0.191 NA 
DOCKED: ATOM     11  C   UNL     1     -59.387 -39.272   5.661 -0.37 +0.00    +0.101 C  
DOCKED: ENDROOT
DOCKED: BRANCH   2  12
DOCKED: ATOM     12  C   UNL     1     -59.231 -32.813   6.226 -0.17 +0.00    +0.038 C  
DOCKED: BRANCH  12  13
DOCKED: ATOM     13  C   UNL     1     -58.881 -31.447   6.812 -0.13 +0.00    +0.038 C  
DOCKED: BRANCH  13  14
DOCKED: ATOM     14  C   UNL     1     -59.682 -30.337   6.135 -0.08 +0.00    +0.251 C  
DOCKED: BRANCH  14  15
DOCKED: ATOM     15  N   UNL     1     -60.427 -29.571   7.128 -0.03 +0.00    +0.141 N  
DOCKED: ATOM     16  C   UNL     1     -61.797 -30.073   7.244 -0.02 +0.00    +0.285 C  
DOCKED: ATOM     17  C   UNL     1     -59.756 -29.622   8.428 -0.00 +0.00    +0.285 C  
DOCKED: ENDBRANCH  14  15
DOCKED: ENDBRANCH  13  14
DOCKED: ENDBRANCH  12  13
DOCKED: ENDBRANCH   2  12
DOCKED: BRANCH   2  18
DOCKED: ATOM     18  C   UNL     1     -58.715 -33.504   8.560 -0.06 +0.00    +0.006 A  
DOCKED: ATOM     19  C   UNL     1     -59.394 -33.102   9.710 -0.02 +0.00    +0.001 A  
DOCKED: ATOM     20  C   UNL     1     -58.679 -32.786  10.866 -0.00 +0.00    +0.029 A  
DOCKED: ATOM     21  C   UNL     1     -57.288 -32.872  10.870 -0.00 +0.00    +0.140 A  
DOCKED: ATOM     22  C   UNL     1     -56.610 -33.275   9.720 -0.02 +0.00    +0.029 A  
DOCKED: ATOM     23  F   UNL     1     -56.602 -32.571  11.981 -0.00 -0.00    -0.204 F  
DOCKED: ATOM     24  C   UNL     1     -57.324 -33.591   8.563 -0.05 +0.00    +0.001 A  
DOCKED: ENDBRANCH   2  18
DOCKED: TORSDOF 5
DOCKED: TER
DOCKED: ENDMDL
________________________________________________________________________________


    FINAL DOCKED STATE:
    ________________________


Run:   276 / 512
Time taken for this run:   0.002s

DOCKED: MODEL        276
DOCKED: USER    Run = 276
DOCKED: USER
DOCKED: USER    Estimated Free Energy of Binding    =  -3.97 kcal/mol  [=(1)+(2)+(3)-(4)]
DOCKED: USER
DOCKED: USER    (1) Final Intermolecular Energy     =  -5.46 kcal/mol
DOCKED: USER        vdW + Hbond + desolv Energy     =  -5.46 kcal/mol
DOCKED: USER        Electrostatic Energy            =  +0.00 kcal/mol
DOCKED: USER        Moving Ligand-Fixed Receptor    =  -5.46 kcal/mol
DOCKED: USER        Moving Ligand-Moving Receptor   =  +0.00 kcal/mol
DOCKED: USER    (2) Final Total Internal Energy     =  -1.41 kcal/mol
DOCKED: USER    (3) Torsional Free Energy           =  +1.49 kcal/mol
DOCKED: USER    (4) Unbound System's Energy         =  -1.41 kcal/mol
DOCKED: USER
DOCKED: USER
DOCKED: REMARK  5 active torsions:
DOCKED: REMARK  status: ('A' for Active; 'I' for Inactive)
DOCKED: REMARK    1  A    between atoms: C_2  and  C_19 
DOCKED: REMARK    2  A    between atoms: C_2  and  C_11 
DOCKED: REMARK    3  A    between atoms: C_19  and  C_20 
DOCKED: REMARK    4  A    between atoms: C_20  and  C_21 
DOCKED: REMARK    5  A    between atoms: C_21  and  N_22 
DOCKED: USER                              x       y       z     vdW  Elec       q    Type
DOCKED: USER                           _______ _______ _______ _____ _____    ______ ____
DOCKED: ROOT
DOCKED: ATOM      1  O   UNL     1     -60.323 -33.667   7.578 -0.07 -0.00    -0.346 OA 
DOCKED: ATOM      2  C   UNL     1     -58.899 -33.981   7.702 -0.13 +0.00    +0.130 C  
DOCKED: ATOM      3  C   UNL     1     -58.803 -35.404   7.233 -0.21 +0.00    +0.004 A  
DOCKED: ATOM      4  C   UNL     1     -60.042 -35.830   6.776 -0.21 +0.00    +0.006 A  
DOCKED: ATOM      5  C   UNL     1     -61.027 -34.732   6.897 -0.19 +0.00    +0.169 C  
DOCKED: ATOM      6  C   UNL     1     -57.704 -36.250   7.202 -0.24 -0.00    -0.001 A  
DOCKED: ATOM      7  C   UNL     1     -60.226 -37.109   6.279 -0.23 +0.00    +0.008 A  
DOCKED: ATOM      8  C   UNL     1     -57.875 -37.545   6.708 -0.31 +0.00    +0.010 A  
DOCKED: ATOM      9  C   UNL     1     -59.129 -37.972   6.249 -0.27 +0.00    +0.068 A  
DOCKED: ATOM     10  N   UNL     1     -59.410 -40.379   5.334 -2.61 -0.00    -0.191 NA 
DOCKED: ATOM     11  C   UNL     1     -59.285 -39.300   5.745 -0.35 +0.00    +0.101 C  
DOCKED: ENDROOT
DOCKED: BRANCH   2  12
DOCKED: ATOM     12  C   UNL     1     -58.113 -33.013   6.827 -0.17 +0.00    +0.038 C  
DOCKED: BRANCH  12  13
DOCKED: ATOM     13  C   UNL     1     -59.037 -32.223   5.902 -0.12 +0.00    +0.038 C  
DOCKED: BRANCH  13  14
DOCKED: ATOM     14  C   UNL     1     -59.017 -30.735   6.247 -0.09 +0.00    +0.251 C  
DOCKED: BRANCH  14  15
DOCKED: ATOM     15  N   UNL     1     -60.299 -30.329   6.813 -0.06 +0.00    +0.141 N  
DOCKED: ATOM     16  C   UNL     1     -61.381 -31.167   6.294 -0.10 +0.00    +0.285 C  
DOCKED: ATOM     17  C   UNL     1     -60.261 -30.396   8.275 -0.01 +0.00    +0.285 C  
DOCKED: ENDBRANCH  14  15
DOCKED: ENDBRANCH  13  14
DOCKED: ENDBRANCH  12  13
DOCKED: ENDBRANCH   2  12
DOCKED: BRANCH   2  18
DOCKED: ATOM     18  C   UNL     1     -58.541 -33.818   9.142 -0.04 +0.00    +0.006 A  
DOCKED: ATOM     19  C   UNL     1     -58.060 -32.595   9.605 -0.02 +0.00    +0.001 A  
DOCKED: ATOM     20  C   UNL     1     -57.725 -32.444  10.952 -0.00 +0.00    +0.029 A  
DOCKED: ATOM     21  C   UNL     1     -57.871 -33.515  11.831 -0.00 +0.00    +0.140 A  
DOCKED: ATOM     22  C   UNL     1     -58.353 -34.739  11.366 -0.00 +0.00    +0.029 A  
DOCKED: ATOM     23  F   UNL     1     -57.551 -33.370  13.124 +0.00 -0.00    -0.204 F  
DOCKED: ATOM     24  C   UNL     1     -58.688 -34.891  10.020 -0.03 +0.00    +0.001 A  
DOCKED: ENDBRANCH   2  18
DOCKED: TORSDOF 5
DOCKED: TER
DOCKED: ENDMDL
________________________________________________________________________________


    FINAL DOCKED STATE:
    ________________________


Run:   277 / 512
Time taken for this run:   0.002s

DOCKED: MODEL        277
DOCKED: USER    Run = 277
DOCKED: USER
DOCKED: USER    Estimated Free Energy of Binding    =  -4.72 kcal/mol  [=(1)+(2)+(3)-(4)]
DOCKED: USER
DOCKED: USER    (1) Final Intermolecular Energy     =  -6.21 kcal/mol
DOCKED: USER        vdW + Hbond + desolv Energy     =  -6.21 kcal/mol
DOCKED: USER        Electrostatic Energy            =  +0.00 kcal/mol
DOCKED: USER        Moving Ligand-Fixed Receptor    =  -6.21 kcal/mol
DOCKED: USER        Moving Ligand-Moving Receptor   =  +0.00 kcal/mol
DOCKED: USER    (2) Final Total Internal Energy     =  -1.05 kcal/mol
DOCKED: USER    (3) Torsional Free Energy           =  +1.49 kcal/mol
DOCKED: USER    (4) Unbound System's Energy         =  -1.05 kcal/mol
DOCKED: USER
DOCKED: USER
DOCKED: REMARK  5 active torsions:
DOCKED: REMARK  status: ('A' for Active; 'I' for Inactive)
DOCKED: REMARK    1  A    between atoms: C_2  and  C_19 
DOCKED: REMARK    2  A    between atoms: C_2  and  C_11 
DOCKED: REMARK    3  A    between atoms: C_19  and  C_20 
DOCKED: REMARK    4  A    between atoms: C_20  and  C_21 
DOCKED: REMARK    5  A    between atoms: C_21  and  N_22 
DOCKED: USER                              x       y       z     vdW  Elec       q    Type
DOCKED: USER                           _______ _______ _______ _____ _____    ______ ____
DOCKED: ROOT
DOCKED: ATOM      1  O   UNL     1     -58.485 -36.221   8.967 -0.01 -0.00    -0.346 OA 
DOCKED: ATOM      2  C   UNL     1     -57.888 -37.557   8.927 -0.13 +0.00    +0.130 C  
DOCKED: ATOM      3  C   UNL     1     -58.144 -38.023   7.523 -0.26 +0.00    +0.004 A  
DOCKED: ATOM      4  C   UNL     1     -58.736 -37.003   6.792 -0.26 +0.00    +0.006 A  
DOCKED: ATOM      5  C   UNL     1     -58.899 -35.804   7.645 -0.14 +0.00    +0.169 C  
DOCKED: ATOM      6  C   UNL     1     -57.865 -39.249   6.936 -0.35 -0.00    -0.001 A  
DOCKED: ATOM      7  C   UNL     1     -59.072 -37.172   5.460 -0.29 +0.00    +0.008 A  
DOCKED: ATOM      8  C   UNL     1     -58.202 -39.437   5.594 -0.40 +0.00    +0.010 A  
DOCKED: ATOM      9  C   UNL     1     -58.802 -38.403   4.860 -0.39 +0.00    +0.068 A  
DOCKED: ATOM     10  N   UNL     1     -59.409 -38.782   2.370 -1.98 -0.00    -0.191 NA 
DOCKED: ATOM     11  C   UNL     1     -59.138 -38.612   3.487 -0.52 +0.00    +0.101 C  
DOCKED: ENDROOT
DOCKED: BRANCH   2  12
DOCKED: ATOM     12  C   UNL     1     -56.403 -37.432   9.249 -0.18 +0.00    +0.038 C  
DOCKED: BRANCH  12  13
DOCKED: ATOM     13  C   UNL     1     -55.574 -37.233   7.982 -0.19 +0.00    +0.038 C  
DOCKED: BRANCH  13  14
DOCKED: ATOM     14  C   UNL     1     -54.469 -36.202   8.205 -0.07 +0.00    +0.251 C  
DOCKED: BRANCH  14  15
DOCKED: ATOM     15  N   UNL     1     -53.811 -36.433   9.486 -0.08 +0.00    +0.141 N  
DOCKED: ATOM     16  C   UNL     1     -53.150 -37.738   9.499 -0.07 +0.00    +0.285 C  
DOCKED: ATOM     17  C   UNL     1     -52.843 -35.371   9.767 -0.02 +0.00    +0.285 C  
DOCKED: ENDBRANCH  14  15
DOCKED: ENDBRANCH  13  14
DOCKED: ENDBRANCH  12  13
DOCKED: ENDBRANCH   2  12
DOCKED: BRANCH   2  18
DOCKED: ATOM     18  C   UNL     1     -58.593 -38.381   9.951 -0.15 +0.00    +0.006 A  
DOCKED: ATOM     19  C   UNL     1     -57.885 -38.905  11.032 -0.19 +0.00    +0.001 A  
DOCKED: ATOM     20  C   UNL     1     -58.546 -39.675  11.990 -0.18 +0.00    +0.029 A  
DOCKED: ATOM     21  C   UNL     1     -59.913 -39.921  11.865 -0.02 +0.00    +0.140 A  
DOCKED: ATOM     22  C   UNL     1     -60.620 -39.396  10.784 -0.13 +0.00    +0.029 A  
DOCKED: ATOM     23  F   UNL     1     -60.547 -40.659  12.785 -0.06 -0.00    -0.204 F  
DOCKED: ATOM     24  C   UNL     1     -59.960 -38.626   9.825 -0.15 +0.00    +0.001 A  
DOCKED: ENDBRANCH   2  18
DOCKED: TORSDOF 5
DOCKED: TER
DOCKED: ENDMDL
________________________________________________________________________________


    FINAL DOCKED STATE:
    ________________________


Run:   278 / 512
Time taken for this run:   0.002s

DOCKED: MODEL        278
DOCKED: USER    Run = 278
DOCKED: USER
DOCKED: USER    Estimated Free Energy of Binding    =  -4.05 kcal/mol  [=(1)+(2)+(3)-(4)]
DOCKED: USER
DOCKED: USER    (1) Final Intermolecular Energy     =  -5.55 kcal/mol
DOCKED: USER        vdW + Hbond + desolv Energy     =  -5.55 kcal/mol
DOCKED: USER        Electrostatic Energy            =  +0.00 kcal/mol
DOCKED: USER        Moving Ligand-Fixed Receptor    =  -5.55 kcal/mol
DOCKED: USER        Moving Ligand-Moving Receptor   =  +0.00 kcal/mol
DOCKED: USER    (2) Final Total Internal Energy     =  -1.25 kcal/mol
DOCKED: USER    (3) Torsional Free Energy           =  +1.49 kcal/mol
DOCKED: USER    (4) Unbound System's Energy         =  -1.25 kcal/mol
DOCKED: USER
DOCKED: USER
DOCKED: REMARK  5 active torsions:
DOCKED: REMARK  status: ('A' for Active; 'I' for Inactive)
DOCKED: REMARK    1  A    between atoms: C_2  and  C_19 
DOCKED: REMARK    2  A    between atoms: C_2  and  C_11 
DOCKED: REMARK    3  A    between atoms: C_19  and  C_20 
DOCKED: REMARK    4  A    between atoms: C_20  and  C_21 
DOCKED: REMARK    5  A    between atoms: C_21  and  N_22 
DOCKED: USER                              x       y       z     vdW  Elec       q    Type
DOCKED: USER                           _______ _______ _______ _____ _____    ______ ____
DOCKED: ROOT
DOCKED: ATOM      1  O   UNL     1     -59.106 -33.537   7.385 -0.07 -0.00    -0.346 OA 
DOCKED: ATOM      2  C   UNL     1     -57.763 -34.121   7.389 -0.14 +0.00    +0.130 C  
DOCKED: ATOM      3  C   UNL     1     -57.990 -35.545   6.973 -0.24 +0.00    +0.004 A  
DOCKED: ATOM      4  C   UNL     1     -59.327 -35.732   6.653 -0.24 +0.00    +0.006 A  
DOCKED: ATOM      5  C   UNL     1     -60.065 -34.460   6.819 -0.20 +0.00    +0.169 C  
DOCKED: ATOM      6  C   UNL     1     -57.082 -36.590   6.875 -0.23 -0.00    -0.001 A  
DOCKED: ATOM      7  C   UNL     1     -59.802 -36.962   6.231 -0.24 +0.00    +0.008 A  
DOCKED: ATOM      8  C   UNL     1     -57.547 -37.838   6.455 -0.33 +0.00    +0.010 A  
DOCKED: ATOM      9  C   UNL     1     -58.900 -38.022   6.134 -0.29 +0.00    +0.068 A  
DOCKED: ATOM     10  N   UNL     1     -59.729 -40.349   5.353 -2.55 -0.00    -0.191 NA 
DOCKED: ATOM     11  C   UNL     1     -59.357 -39.306   5.704 -0.36 +0.00    +0.101 C  
DOCKED: ENDROOT
DOCKED: BRANCH   2  12
DOCKED: ATOM     12  C   UNL     1     -56.898 -33.345   6.403 -0.16 +0.00    +0.038 C  
DOCKED: BRANCH  12  13
DOCKED: ATOM     13  C   UNL     1     -55.524 -33.993   6.239 -0.17 +0.00    +0.038 C  
DOCKED: BRANCH  13  14
DOCKED: ATOM     14  C   UNL     1     -54.408 -32.964   6.411 -0.07 +0.00    +0.251 C  
DOCKED: BRANCH  14  15
DOCKED: ATOM     15  N   UNL     1     -53.403 -33.457   7.345 -0.05 +0.00    +0.141 N  
DOCKED: ATOM     16  C   UNL     1     -53.614 -32.889   8.678 -0.01 +0.00    +0.285 C  
DOCKED: ATOM     17  C   UNL     1     -53.429 -34.919   7.407 -0.05 +0.00    +0.285 C  
DOCKED: ENDBRANCH  14  15
DOCKED: ENDBRANCH  13  14
DOCKED: ENDBRANCH  12  13
DOCKED: ENDBRANCH   2  12
DOCKED: BRANCH   2  18
DOCKED: ATOM     18  C   UNL     1     -57.238 -33.997   8.780 -0.05 +0.00    +0.006 A  
DOCKED: ATOM     19  C   UNL     1     -57.105 -35.132   9.578 -0.04 +0.00    +0.001 A  
DOCKED: ATOM     20  C   UNL     1     -56.614 -35.015  10.879 -0.01 +0.00    +0.029 A  
DOCKED: ATOM     21  C   UNL     1     -56.255 -33.764  11.379 -0.00 +0.00    +0.140 A  
DOCKED: ATOM     22  C   UNL     1     -56.388 -32.629  10.580 -0.00 +0.00    +0.029 A  
DOCKED: ATOM     23  F   UNL     1     -55.782 -33.652  12.627 -0.00 -0.00    -0.204 F  
DOCKED: ATOM     24  C   UNL     1     -56.880 -32.745   9.279 -0.02 +0.00    +0.001 A  
DOCKED: ENDBRANCH   2  18
DOCKED: TORSDOF 5
DOCKED: TER
DOCKED: ENDMDL
________________________________________________________________________________


    FINAL DOCKED STATE:
    ________________________


Run:   279 / 512
Time taken for this run:   0.002s

DOCKED: MODEL        279
DOCKED: USER    Run = 279
DOCKED: USER
DOCKED: USER    Estimated Free Energy of Binding    =  -3.79 kcal/mol  [=(1)+(2)+(3)-(4)]
DOCKED: USER
DOCKED: USER    (1) Final Intermolecular Energy     =  -5.28 kcal/mol
DOCKED: USER        vdW + Hbond + desolv Energy     =  -5.28 kcal/mol
DOCKED: USER        Electrostatic Energy            =  +0.00 kcal/mol
DOCKED: USER        Moving Ligand-Fixed Receptor    =  -5.28 kcal/mol
DOCKED: USER        Moving Ligand-Moving Receptor   =  +0.00 kcal/mol
DOCKED: USER    (2) Final Total Internal Energy     =  -1.36 kcal/mol
DOCKED: USER    (3) Torsional Free Energy           =  +1.49 kcal/mol
DOCKED: USER    (4) Unbound System's Energy         =  -1.36 kcal/mol
DOCKED: USER
DOCKED: USER
DOCKED: REMARK  5 active torsions:
DOCKED: REMARK  status: ('A' for Active; 'I' for Inactive)
DOCKED: REMARK    1  A    between atoms: C_2  and  C_19 
DOCKED: REMARK    2  A    between atoms: C_2  and  C_11 
DOCKED: REMARK    3  A    between atoms: C_19  and  C_20 
DOCKED: REMARK    4  A    between atoms: C_20  and  C_21 
DOCKED: REMARK    5  A    between atoms: C_21  and  N_22 
DOCKED: USER                              x       y       z     vdW  Elec       q    Type
DOCKED: USER                           _______ _______ _______ _____ _____    ______ ____
DOCKED: ROOT
DOCKED: ATOM      1  O   UNL     1     -55.172 -36.436   8.850 -0.08 -0.00    -0.346 OA 
DOCKED: ATOM      2  C   UNL     1     -56.431 -35.694   8.782 -0.10 +0.00    +0.130 C  
DOCKED: ATOM      3  C   UNL     1     -57.327 -36.579   7.965 -0.19 +0.00    +0.004 A  
DOCKED: ATOM      4  C   UNL     1     -56.675 -37.771   7.684 -0.27 +0.00    +0.006 A  
DOCKED: ATOM      5  C   UNL     1     -55.328 -37.764   8.297 -0.11 +0.00    +0.169 C  
DOCKED: ATOM      6  C   UNL     1     -58.619 -36.351   7.515 -0.19 -0.00    -0.001 A  
DOCKED: ATOM      7  C   UNL     1     -57.286 -38.770   6.945 -0.38 +0.00    +0.008 A  
DOCKED: ATOM      8  C   UNL     1     -59.248 -37.347   6.765 -0.25 +0.00    +0.010 A  
DOCKED: ATOM      9  C   UNL     1     -58.584 -38.550   6.482 -0.29 +0.00    +0.068 A  
DOCKED: ATOM     10  N   UNL     1     -59.782 -40.380   5.092 -2.42 -0.00    -0.191 NA 
DOCKED: ATOM     11  C   UNL     1     -59.244 -39.559   5.715 -0.25 +0.00    +0.101 C  
DOCKED: ENDROOT
DOCKED: BRANCH   2  12
DOCKED: ATOM     12  C   UNL     1     -56.943 -35.480  10.202 -0.04 +0.00    +0.038 C  
DOCKED: BRANCH  12  13
DOCKED: ATOM     13  C   UNL     1     -55.816 -35.058  11.143 -0.02 +0.00    +0.038 C  
DOCKED: BRANCH  13  14
DOCKED: ATOM     14  C   UNL     1     -55.510 -36.154  12.161 -0.01 +0.00    +0.251 C  
DOCKED: BRANCH  14  15
DOCKED: ATOM     15  N   UNL     1     -55.307 -37.431  11.486 -0.07 +0.00    +0.141 N  
DOCKED: ATOM     16  C   UNL     1     -53.971 -37.957  11.770 -0.06 +0.00    +0.285 C  
DOCKED: ATOM     17  C   UNL     1     -56.330 -38.397  11.890 -0.08 +0.00    +0.285 C  
DOCKED: ENDBRANCH  14  15
DOCKED: ENDBRANCH  13  14
DOCKED: ENDBRANCH  12  13
DOCKED: ENDBRANCH   2  12
DOCKED: BRANCH   2  18
DOCKED: ATOM     18  C   UNL     1     -56.134 -34.392   8.116 -0.10 +0.00    +0.006 A  
DOCKED: ATOM     19  C   UNL     1     -55.354 -34.363   6.961 -0.15 +0.00    +0.001 A  
DOCKED: ATOM     20  C   UNL     1     -55.077 -33.145   6.339 -0.12 +0.00    +0.029 A  
DOCKED: ATOM     21  C   UNL     1     -55.580 -31.959   6.872 -0.05 +0.00    +0.140 A  
DOCKED: ATOM     22  C   UNL     1     -56.361 -31.989   8.027 -0.03 +0.00    +0.029 A  
DOCKED: ATOM     23  F   UNL     1     -55.316 -30.790   6.273 -0.00 -0.00    -0.204 F  
DOCKED: ATOM     24  C   UNL     1     -56.638 -33.207   8.650 -0.04 +0.00    +0.001 A  
DOCKED: ENDBRANCH   2  18
DOCKED: TORSDOF 5
DOCKED: TER
DOCKED: ENDMDL
________________________________________________________________________________


    FINAL DOCKED STATE:
    ________________________


Run:   280 / 512
Time taken for this run:   0.002s

DOCKED: MODEL        280
DOCKED: USER    Run = 280
DOCKED: USER
DOCKED: USER    Estimated Free Energy of Binding    =  -3.86 kcal/mol  [=(1)+(2)+(3)-(4)]
DOCKED: USER
DOCKED: USER    (1) Final Intermolecular Energy     =  -5.35 kcal/mol
DOCKED: USER        vdW + Hbond + desolv Energy     =  -5.35 kcal/mol
DOCKED: USER        Electrostatic Energy            =  +0.00 kcal/mol
DOCKED: USER        Moving Ligand-Fixed Receptor    =  -5.35 kcal/mol
DOCKED: USER        Moving Ligand-Moving Receptor   =  +0.00 kcal/mol
DOCKED: USER    (2) Final Total Internal Energy     =  -1.30 kcal/mol
DOCKED: USER    (3) Torsional Free Energy           =  +1.49 kcal/mol
DOCKED: USER    (4) Unbound System's Energy         =  -1.30 kcal/mol
DOCKED: USER
DOCKED: USER
DOCKED: REMARK  5 active torsions:
DOCKED: REMARK  status: ('A' for Active; 'I' for Inactive)
DOCKED: REMARK    1  A    between atoms: C_2  and  C_19 
DOCKED: REMARK    2  A    between atoms: C_2  and  C_11 
DOCKED: REMARK    3  A    between atoms: C_19  and  C_20 
DOCKED: REMARK    4  A    between atoms: C_20  and  C_21 
DOCKED: REMARK    5  A    between atoms: C_21  and  N_22 
DOCKED: USER                              x       y       z     vdW  Elec       q    Type
DOCKED: USER                           _______ _______ _______ _____ _____    ______ ____
DOCKED: ROOT
DOCKED: ATOM      1  O   UNL     1     -52.852 -30.258  -0.914 -0.01 -0.00    -0.346 OA 
DOCKED: ATOM      2  C   UNL     1     -52.210 -30.363  -2.225 -0.06 +0.00    +0.130 C  
DOCKED: ATOM      3  C   UNL     1     -53.109 -29.570  -3.129 -0.15 +0.00    +0.004 A  
DOCKED: ATOM      4  C   UNL     1     -54.114 -28.973  -2.382 -0.23 +0.00    +0.006 A  
DOCKED: ATOM      5  C   UNL     1     -53.946 -29.313  -0.951 -0.17 +0.00    +0.169 C  
DOCKED: ATOM      6  C   UNL     1     -53.036 -29.383  -4.502 -0.16 -0.00    -0.001 A  
DOCKED: ATOM      7  C   UNL     1     -55.078 -28.177  -2.977 -0.32 +0.00    +0.008 A  
DOCKED: ATOM      8  C   UNL     1     -54.003 -28.586  -5.117 -0.20 +0.00    +0.010 A  
DOCKED: ATOM      9  C   UNL     1     -55.018 -27.986  -4.358 -0.19 +0.00    +0.068 A  
DOCKED: ATOM     10  N   UNL     1     -56.795 -26.509  -5.531 -2.55 -0.00    -0.191 NA 
DOCKED: ATOM     11  C   UNL     1     -55.999 -27.172  -5.005 -0.29 +0.00    +0.101 C  
DOCKED: ENDROOT
DOCKED: BRANCH   2  12
DOCKED: ATOM     12  C   UNL     1     -50.806 -29.778  -2.123 -0.02 +0.00    +0.038 C  
DOCKED: BRANCH  12  13
DOCKED: ATOM     13  C   UNL     1     -50.845 -28.291  -1.777 -0.04 +0.00    +0.038 C  
DOCKED: BRANCH  13  14
DOCKED: ATOM     14  C   UNL     1     -50.097 -28.010  -0.476 -0.03 +0.00    +0.251 C  
DOCKED: BRANCH  14  15
DOCKED: ATOM     15  N   UNL     1     -49.785 -29.258   0.210 -0.01 +0.00    +0.141 N  
DOCKED: ATOM     16  C   UNL     1     -48.503 -29.156   0.910 -0.00 +0.00    +0.285 C  
DOCKED: ATOM     17  C   UNL     1     -50.850 -29.609   1.151 -0.03 +0.00    +0.285 C  
DOCKED: ENDBRANCH  14  15
DOCKED: ENDBRANCH  13  14
DOCKED: ENDBRANCH  12  13
DOCKED: ENDBRANCH   2  12
DOCKED: BRANCH   2  18
DOCKED: ATOM     18  C   UNL     1     -52.166 -31.813  -2.575 -0.08 +0.00    +0.006 A  
DOCKED: ATOM     19  C   UNL     1     -53.351 -32.512  -2.799 -0.23 +0.00    +0.001 A  
DOCKED: ATOM     20  C   UNL     1     -53.308 -33.868  -3.126 -0.23 +0.00    +0.029 A  
DOCKED: ATOM     21  C   UNL     1     -52.081 -34.522  -3.228 -0.18 +0.00    +0.140 A  
DOCKED: ATOM     22  C   UNL     1     -50.896 -33.822  -3.003 -0.05 +0.00    +0.029 A  
DOCKED: ATOM     23  F   UNL     1     -52.040 -35.823  -3.543 -0.11 -0.00    -0.204 F  
DOCKED: ATOM     24  C   UNL     1     -50.938 -32.466  -2.676 -0.02 +0.00    +0.001 A  
DOCKED: ENDBRANCH   2  18
DOCKED: TORSDOF 5
DOCKED: TER
DOCKED: ENDMDL
________________________________________________________________________________


    FINAL DOCKED STATE:
    ________________________


Run:   281 / 512
Time taken for this run:   0.002s

DOCKED: MODEL        281
DOCKED: USER    Run = 281
DOCKED: USER
DOCKED: USER    Estimated Free Energy of Binding    =  -3.42 kcal/mol  [=(1)+(2)+(3)-(4)]
DOCKED: USER
DOCKED: USER    (1) Final Intermolecular Energy     =  -4.91 kcal/mol
DOCKED: USER        vdW + Hbond + desolv Energy     =  -4.91 kcal/mol
DOCKED: USER        Electrostatic Energy            =  +0.00 kcal/mol
DOCKED: USER        Moving Ligand-Fixed Receptor    =  -4.91 kcal/mol
DOCKED: USER        Moving Ligand-Moving Receptor   =  +0.00 kcal/mol
DOCKED: USER    (2) Final Total Internal Energy     =  -1.34 kcal/mol
DOCKED: USER    (3) Torsional Free Energy           =  +1.49 kcal/mol
DOCKED: USER    (4) Unbound System's Energy         =  -1.34 kcal/mol
DOCKED: USER
DOCKED: USER
DOCKED: REMARK  5 active torsions:
DOCKED: REMARK  status: ('A' for Active; 'I' for Inactive)
DOCKED: REMARK    1  A    between atoms: C_2  and  C_19 
DOCKED: REMARK    2  A    between atoms: C_2  and  C_11 
DOCKED: REMARK    3  A    between atoms: C_19  and  C_20 
DOCKED: REMARK    4  A    between atoms: C_20  and  C_21 
DOCKED: REMARK    5  A    between atoms: C_21  and  N_22 
DOCKED: USER                              x       y       z     vdW  Elec       q    Type
DOCKED: USER                           _______ _______ _______ _____ _____    ______ ____
DOCKED: ROOT
DOCKED: ATOM      1  O   UNL     1     -51.031 -25.425  -1.712 -0.02 -0.00    -0.346 OA 
DOCKED: ATOM      2  C   UNL     1     -50.807 -25.478  -3.158 -0.07 +0.00    +0.130 C  
DOCKED: ATOM      3  C   UNL     1     -52.140 -25.885  -3.714 -0.15 +0.00    +0.004 A  
DOCKED: ATOM      4  C   UNL     1     -53.073 -25.952  -2.690 -0.22 +0.00    +0.006 A  
DOCKED: ATOM      5  C   UNL     1     -52.436 -25.586  -1.405 -0.17 +0.00    +0.169 C  
DOCKED: ATOM      6  C   UNL     1     -52.501 -26.163  -5.025 -0.19 -0.00    -0.001 A  
DOCKED: ATOM      7  C   UNL     1     -54.390 -26.301  -2.936 -0.32 +0.00    +0.008 A  
DOCKED: ATOM      8  C   UNL     1     -53.824 -26.521  -5.289 -0.30 +0.00    +0.010 A  
DOCKED: ATOM      9  C   UNL     1     -54.764 -26.589  -4.249 -0.35 +0.00    +0.068 A  
DOCKED: ATOM     10  N   UNL     1     -57.213 -27.251  -4.775 -2.50 -0.00    -0.191 NA 
DOCKED: ATOM     11  C   UNL     1     -56.114 -26.955  -4.539 -0.40 +0.00    +0.101 C  
DOCKED: ENDROOT
DOCKED: BRANCH   2  12
DOCKED: ATOM     12  C   UNL     1     -50.364 -24.097  -3.628 -0.11 +0.00    +0.038 C  
DOCKED: BRANCH  12  13
DOCKED: ATOM     13  C   UNL     1     -48.864 -23.893  -3.422 -0.04 +0.00    +0.038 C  
DOCKED: BRANCH  13  14
DOCKED: ATOM     14  C   UNL     1     -48.531 -23.721  -1.942 +0.00 +0.00    +0.251 C  
DOCKED: BRANCH  14  15
DOCKED: ATOM     15  N   UNL     1     -47.087 -23.759  -1.739 -0.00 +0.00    +0.141 N  
DOCKED: ATOM     16  C   UNL     1     -46.729 -24.805  -0.779 +0.00 +0.00    +0.285 C  
DOCKED: ATOM     17  C   UNL     1     -46.394 -23.978  -3.010 +0.00 +0.00    +0.285 C  
DOCKED: ENDBRANCH  14  15
DOCKED: ENDBRANCH  13  14
DOCKED: ENDBRANCH  12  13
DOCKED: ENDBRANCH   2  12
DOCKED: BRANCH   2  18
DOCKED: ATOM     18  C   UNL     1     -49.741 -26.495  -3.397 -0.02 +0.00    +0.006 A  
DOCKED: ATOM     19  C   UNL     1     -49.242 -27.244  -2.332 -0.01 +0.00    +0.001 A  
DOCKED: ATOM     20  C   UNL     1     -48.245 -28.195  -2.557 -0.00 +0.00    +0.029 A  
DOCKED: ATOM     21  C   UNL     1     -47.750 -28.395  -3.845 -0.00 +0.00    +0.140 A  
DOCKED: ATOM     22  C   UNL     1     -48.251 -27.645  -4.909 -0.00 +0.00    +0.029 A  
DOCKED: ATOM     23  F   UNL     1     -46.795 -29.309  -4.061 +0.00 -0.00    -0.204 F  
DOCKED: ATOM     24  C   UNL     1     -49.247 -26.694  -4.685 -0.02 +0.00    +0.001 A  
DOCKED: ENDBRANCH   2  18
DOCKED: TORSDOF 5
DOCKED: TER
DOCKED: ENDMDL
________________________________________________________________________________


    FINAL DOCKED STATE:
    ________________________


Run:   282 / 512
Time taken for this run:   0.002s

DOCKED: MODEL        282
DOCKED: USER    Run = 282
DOCKED: USER
DOCKED: USER    Estimated Free Energy of Binding    =  -5.89 kcal/mol  [=(1)+(2)+(3)-(4)]
DOCKED: USER
DOCKED: USER    (1) Final Intermolecular Energy     =  -7.39 kcal/mol
DOCKED: USER        vdW + Hbond + desolv Energy     =  -7.39 kcal/mol
DOCKED: USER        Electrostatic Energy            =  +0.00 kcal/mol
DOCKED: USER        Moving Ligand-Fixed Receptor    =  -7.39 kcal/mol
DOCKED: USER        Moving Ligand-Moving Receptor   =  +0.00 kcal/mol
DOCKED: USER    (2) Final Total Internal Energy     =  -1.31 kcal/mol
DOCKED: USER    (3) Torsional Free Energy           =  +1.49 kcal/mol
DOCKED: USER    (4) Unbound System's Energy         =  -1.31 kcal/mol
DOCKED: USER
DOCKED: USER
DOCKED: REMARK  5 active torsions:
DOCKED: REMARK  status: ('A' for Active; 'I' for Inactive)
DOCKED: REMARK    1  A    between atoms: C_2  and  C_19 
DOCKED: REMARK    2  A    between atoms: C_2  and  C_11 
DOCKED: REMARK    3  A    between atoms: C_19  and  C_20 
DOCKED: REMARK    4  A    between atoms: C_20  and  C_21 
DOCKED: REMARK    5  A    between atoms: C_21  and  N_22 
DOCKED: USER                              x       y       z     vdW  Elec       q    Type
DOCKED: USER                           _______ _______ _______ _____ _____    ______ ____
DOCKED: ROOT
DOCKED: ATOM      1  O   UNL     1     -57.330 -38.749   7.868 -0.16 -0.00    -0.346 OA 
DOCKED: ATOM      2  C   UNL     1     -58.736 -38.347   7.944 -0.19 +0.00    +0.130 C  
DOCKED: ATOM      3  C   UNL     1     -59.197 -38.384   6.516 -0.30 +0.00    +0.004 A  
DOCKED: ATOM      4  C   UNL     1     -58.179 -38.869   5.708 -0.43 +0.00    +0.006 A  
DOCKED: ATOM      5  C   UNL     1     -56.995 -39.196   6.534 -0.27 +0.00    +0.169 C  
DOCKED: ATOM      6  C   UNL     1     -60.424 -38.026   5.976 -0.30 -0.00    -0.001 A  
DOCKED: ATOM      7  C   UNL     1     -58.348 -39.010   4.341 -0.34 +0.00    +0.008 A  
DOCKED: ATOM      8  C   UNL     1     -60.609 -38.158   4.599 -0.27 +0.00    +0.010 A  
DOCKED: ATOM      9  C   UNL     1     -59.576 -38.648   3.786 -0.42 +0.00    +0.068 A  
DOCKED: ATOM     10  N   UNL     1     -59.953 -38.885   1.233 -3.17 -0.00    -0.191 NA 
DOCKED: ATOM     11  C   UNL     1     -59.784 -38.778   2.378 -0.28 +0.00    +0.101 C  
DOCKED: ENDROOT
DOCKED: BRANCH   2  12
DOCKED: ATOM     12  C   UNL     1     -59.475 -39.341   8.832 -0.26 +0.00    +0.038 C  
DOCKED: BRANCH  12  13
DOCKED: ATOM     13  C   UNL     1     -59.023 -39.232  10.287 -0.21 +0.00    +0.038 C  
DOCKED: BRANCH  13  14
DOCKED: ATOM     14  C   UNL     1     -57.664 -39.900  10.492 -0.11 +0.00    +0.251 C  
DOCKED: BRANCH  14  15
DOCKED: ATOM     15  N   UNL     1     -57.081 -39.484  11.762 -0.18 +0.00    +0.141 N  
DOCKED: ATOM     16  C   UNL     1     -55.876 -38.683  11.540 -0.05 +0.00    +0.285 C  
DOCKED: ATOM     17  C   UNL     1     -58.054 -38.729  12.553 -0.06 +0.00    +0.285 C  
DOCKED: ENDBRANCH  14  15
DOCKED: ENDBRANCH  13  14
DOCKED: ENDBRANCH  12  13
DOCKED: ENDBRANCH   2  12
DOCKED: BRANCH   2  18
DOCKED: ATOM     18  C   UNL     1     -58.767 -36.975   8.530 -0.11 +0.00    +0.006 A  
DOCKED: ATOM     19  C   UNL     1     -59.937 -36.493   9.114 -0.07 +0.00    +0.001 A  
DOCKED: ATOM     20  C   UNL     1     -59.965 -35.210   9.662 -0.03 +0.00    +0.029 A  
DOCKED: ATOM     21  C   UNL     1     -58.823 -34.412   9.625 -0.02 +0.00    +0.140 A  
DOCKED: ATOM     22  C   UNL     1     -57.652 -34.895   9.042 -0.05 +0.00    +0.029 A  
DOCKED: ATOM     23  F   UNL     1     -58.849 -33.181  10.153 +0.00 -0.00    -0.204 F  
DOCKED: ATOM     24  C   UNL     1     -57.623 -36.178   8.493 -0.12 +0.00    +0.001 A  
DOCKED: ENDBRANCH   2  18
DOCKED: TORSDOF 5
DOCKED: TER
DOCKED: ENDMDL
________________________________________________________________________________


    FINAL DOCKED STATE:
    ________________________


Run:   283 / 512
Time taken for this run:   0.002s

DOCKED: MODEL        283
DOCKED: USER    Run = 283
DOCKED: USER
DOCKED: USER    Estimated Free Energy of Binding    =  -4.31 kcal/mol  [=(1)+(2)+(3)-(4)]
DOCKED: USER
DOCKED: USER    (1) Final Intermolecular Energy     =  -5.80 kcal/mol
DOCKED: USER        vdW + Hbond + desolv Energy     =  -5.80 kcal/mol
DOCKED: USER        Electrostatic Energy            =  +0.00 kcal/mol
DOCKED: USER        Moving Ligand-Fixed Receptor    =  -5.80 kcal/mol
DOCKED: USER        Moving Ligand-Moving Receptor   =  +0.00 kcal/mol
DOCKED: USER    (2) Final Total Internal Energy     =  -1.23 kcal/mol
DOCKED: USER    (3) Torsional Free Energy           =  +1.49 kcal/mol
DOCKED: USER    (4) Unbound System's Energy         =  -1.23 kcal/mol
DOCKED: USER
DOCKED: USER
DOCKED: REMARK  5 active torsions:
DOCKED: REMARK  status: ('A' for Active; 'I' for Inactive)
DOCKED: REMARK    1  A    between atoms: C_2  and  C_19 
DOCKED: REMARK    2  A    between atoms: C_2  and  C_11 
DOCKED: REMARK    3  A    between atoms: C_19  and  C_20 
DOCKED: REMARK    4  A    between atoms: C_20  and  C_21 
DOCKED: REMARK    5  A    between atoms: C_21  and  N_22 
DOCKED: USER                              x       y       z     vdW  Elec       q    Type
DOCKED: USER                           _______ _______ _______ _____ _____    ______ ____
DOCKED: ROOT
DOCKED: ATOM      1  O   UNL     1     -54.979 -36.006   8.774 -0.07 -0.00    -0.346 OA 
DOCKED: ATOM      2  C   UNL     1     -55.756 -35.117   7.910 -0.13 +0.00    +0.130 C  
DOCKED: ATOM      3  C   UNL     1     -56.719 -36.038   7.218 -0.21 +0.00    +0.004 A  
DOCKED: ATOM      4  C   UNL     1     -56.579 -37.323   7.723 -0.24 +0.00    +0.006 A  
DOCKED: ATOM      5  C   UNL     1     -55.540 -37.339   8.777 -0.16 +0.00    +0.169 C  
DOCKED: ATOM      6  C   UNL     1     -57.651 -35.760   6.229 -0.25 -0.00    -0.001 A  
DOCKED: ATOM      7  C   UNL     1     -57.358 -38.369   7.258 -0.33 +0.00    +0.008 A  
DOCKED: ATOM      8  C   UNL     1     -58.441 -36.804   5.746 -0.33 +0.00    +0.010 A  
DOCKED: ATOM      9  C   UNL     1     -58.295 -38.102   6.259 -0.31 +0.00    +0.068 A  
DOCKED: ATOM     10  N   UNL     1     -59.782 -40.017   5.344 -2.56 -0.00    -0.191 NA 
DOCKED: ATOM     11  C   UNL     1     -59.114 -39.158   5.754 -0.38 +0.00    +0.101 C  
DOCKED: ENDROOT
DOCKED: BRANCH   2  12
DOCKED: ATOM     12  C   UNL     1     -56.452 -34.080   8.784 -0.06 +0.00    +0.038 C  
DOCKED: BRANCH  12  13
DOCKED: ATOM     13  C   UNL     1     -57.803 -34.589   9.283 -0.05 +0.00    +0.038 C  
DOCKED: BRANCH  13  14
DOCKED: ATOM     14  C   UNL     1     -58.911 -33.578   8.992 -0.02 +0.00    +0.251 C  
DOCKED: BRANCH  14  15
DOCKED: ATOM     15  N   UNL     1     -60.167 -34.268   8.719 -0.04 +0.00    +0.141 N  
DOCKED: ATOM     16  C   UNL     1     -59.976 -35.719   8.745 -0.03 +0.00    +0.285 C  
DOCKED: ATOM     17  C   UNL     1     -61.193 -33.874   9.686 -0.00 +0.00    +0.285 C  
DOCKED: ENDBRANCH  14  15
DOCKED: ENDBRANCH  13  14
DOCKED: ENDBRANCH  12  13
DOCKED: ENDBRANCH   2  12
DOCKED: BRANCH   2  18
DOCKED: ATOM     18  C   UNL     1     -54.794 -34.470   6.971 -0.10 +0.00    +0.006 A  
DOCKED: ATOM     19  C   UNL     1     -55.257 -33.581   6.001 -0.16 +0.00    +0.001 A  
DOCKED: ATOM     20  C   UNL     1     -54.355 -32.977   5.123 -0.12 +0.00    +0.029 A  
DOCKED: ATOM     21  C   UNL     1     -52.994 -33.262   5.217 -0.07 +0.00    +0.140 A  
DOCKED: ATOM     22  C   UNL     1     -52.532 -34.151   6.187 -0.09 +0.00    +0.029 A  
DOCKED: ATOM     23  F   UNL     1     -52.129 -32.681   4.375 -0.00 -0.00    -0.204 F  
DOCKED: ATOM     24  C   UNL     1     -53.432 -34.756   7.065 -0.08 +0.00    +0.001 A  
DOCKED: ENDBRANCH   2  18
DOCKED: TORSDOF 5
DOCKED: TER
DOCKED: ENDMDL
________________________________________________________________________________


    FINAL DOCKED STATE:
    ________________________


Run:   284 / 512
Time taken for this run:   0.002s

DOCKED: MODEL        284
DOCKED: USER    Run = 284
DOCKED: USER
DOCKED: USER    Estimated Free Energy of Binding    =  -4.45 kcal/mol  [=(1)+(2)+(3)-(4)]
DOCKED: USER
DOCKED: USER    (1) Final Intermolecular Energy     =  -5.94 kcal/mol
DOCKED: USER        vdW + Hbond + desolv Energy     =  -5.94 kcal/mol
DOCKED: USER        Electrostatic Energy            =  +0.00 kcal/mol
DOCKED: USER        Moving Ligand-Fixed Receptor    =  -5.94 kcal/mol
DOCKED: USER        Moving Ligand-Moving Receptor   =  +0.00 kcal/mol
DOCKED: USER    (2) Final Total Internal Energy     =  -1.32 kcal/mol
DOCKED: USER    (3) Torsional Free Energy           =  +1.49 kcal/mol
DOCKED: USER    (4) Unbound System's Energy         =  -1.32 kcal/mol
DOCKED: USER
DOCKED: USER
DOCKED: REMARK  5 active torsions:
DOCKED: REMARK  status: ('A' for Active; 'I' for Inactive)
DOCKED: REMARK    1  A    between atoms: C_2  and  C_19 
DOCKED: REMARK    2  A    between atoms: C_2  and  C_11 
DOCKED: REMARK    3  A    between atoms: C_19  and  C_20 
DOCKED: REMARK    4  A    between atoms: C_20  and  C_21 
DOCKED: REMARK    5  A    between atoms: C_21  and  N_22 
DOCKED: USER                              x       y       z     vdW  Elec       q    Type
DOCKED: USER                           _______ _______ _______ _____ _____    ______ ____
DOCKED: ROOT
DOCKED: ATOM      1  O   UNL     1     -56.791 -33.765   7.008 -0.06 -0.00    -0.346 OA 
DOCKED: ATOM      2  C   UNL     1     -58.202 -33.691   7.389 -0.14 +0.00    +0.130 C  
DOCKED: ATOM      3  C   UNL     1     -58.752 -35.030   6.990 -0.22 +0.00    +0.004 A  
DOCKED: ATOM      4  C   UNL     1     -57.724 -35.837   6.524 -0.28 +0.00    +0.006 A  
DOCKED: ATOM      5  C   UNL     1     -56.440 -35.105   6.594 -0.10 +0.00    +0.169 C  
DOCKED: ATOM      6  C   UNL     1     -60.056 -35.499   7.046 -0.22 -0.00    -0.001 A  
DOCKED: ATOM      7  C   UNL     1     -57.963 -37.132   6.096 -0.34 +0.00    +0.008 A  
DOCKED: ATOM      8  C   UNL     1     -60.314 -36.801   6.613 -0.23 +0.00    +0.010 A  
DOCKED: ATOM      9  C   UNL     1     -59.272 -37.614   6.142 -0.26 +0.00    +0.068 A  
DOCKED: ATOM     10  N   UNL     1     -59.783 -40.028   5.352 -2.56 -0.00    -0.191 NA 
DOCKED: ATOM     11  C   UNL     1     -59.554 -38.945   5.705 -0.36 +0.00    +0.101 C  
DOCKED: ENDROOT
DOCKED: BRANCH   2  12
DOCKED: ATOM     12  C   UNL     1     -58.284 -33.440   8.890 -0.05 +0.00    +0.038 C  
DOCKED: BRANCH  12  13
DOCKED: ATOM     13  C   UNL     1     -58.266 -34.749   9.676 -0.04 +0.00    +0.038 C  
DOCKED: BRANCH  13  14
DOCKED: ATOM     14  C   UNL     1     -56.838 -35.258   9.863 -0.02 +0.00    +0.251 C  
DOCKED: BRANCH  14  15
DOCKED: ATOM     15  N   UNL     1     -56.833 -36.707  10.027 -0.05 +0.00    +0.141 N  
DOCKED: ATOM     16  C   UNL     1     -56.167 -37.082  11.276 -0.04 +0.00    +0.285 C  
DOCKED: ATOM     17  C   UNL     1     -58.199 -37.233  10.002 -0.03 +0.00    +0.285 C  
DOCKED: ENDBRANCH  14  15
DOCKED: ENDBRANCH  13  14
DOCKED: ENDBRANCH  12  13
DOCKED: ENDBRANCH   2  12
DOCKED: BRANCH   2  18
DOCKED: ATOM     18  C   UNL     1     -58.803 -32.562   6.621 -0.18 +0.00    +0.006 A  
DOCKED: ATOM     19  C   UNL     1     -57.996 -31.757   5.818 -0.12 +0.00    +0.001 A  
DOCKED: ATOM     20  C   UNL     1     -58.559 -30.702   5.100 -0.15 +0.00    +0.029 A  
DOCKED: ATOM     21  C   UNL     1     -59.929 -30.454   5.185 -0.12 +0.00    +0.140 A  
DOCKED: ATOM     22  C   UNL     1     -60.736 -31.259   5.988 -0.16 +0.00    +0.029 A  
DOCKED: ATOM     23  F   UNL     1     -60.470 -29.442   4.494 -0.02 -0.00    -0.204 F  
DOCKED: ATOM     24  C   UNL     1     -60.173 -32.315   6.707 -0.20 +0.00    +0.001 A  
DOCKED: ENDBRANCH   2  18
DOCKED: TORSDOF 5
DOCKED: TER
DOCKED: ENDMDL
________________________________________________________________________________


    FINAL DOCKED STATE:
    ________________________


Run:   285 / 512
Time taken for this run:   0.002s

DOCKED: MODEL        285
DOCKED: USER    Run = 285
DOCKED: USER
DOCKED: USER    Estimated Free Energy of Binding    =  -5.79 kcal/mol  [=(1)+(2)+(3)-(4)]
DOCKED: USER
DOCKED: USER    (1) Final Intermolecular Energy     =  -7.28 kcal/mol
DOCKED: USER        vdW + Hbond + desolv Energy     =  -7.28 kcal/mol
DOCKED: USER        Electrostatic Energy            =  +0.00 kcal/mol
DOCKED: USER        Moving Ligand-Fixed Receptor    =  -7.28 kcal/mol
DOCKED: USER        Moving Ligand-Moving Receptor   =  +0.00 kcal/mol
DOCKED: USER    (2) Final Total Internal Energy     =  -1.07 kcal/mol
DOCKED: USER    (3) Torsional Free Energy           =  +1.49 kcal/mol
DOCKED: USER    (4) Unbound System's Energy         =  -1.07 kcal/mol
DOCKED: USER
DOCKED: USER
DOCKED: REMARK  5 active torsions:
DOCKED: REMARK  status: ('A' for Active; 'I' for Inactive)
DOCKED: REMARK    1  A    between atoms: C_2  and  C_19 
DOCKED: REMARK    2  A    between atoms: C_2  and  C_11 
DOCKED: REMARK    3  A    between atoms: C_19  and  C_20 
DOCKED: REMARK    4  A    between atoms: C_20  and  C_21 
DOCKED: REMARK    5  A    between atoms: C_21  and  N_22 
DOCKED: USER                              x       y       z     vdW  Elec       q    Type
DOCKED: USER                           _______ _______ _______ _____ _____    ______ ____
DOCKED: ROOT
DOCKED: ATOM      1  O   UNL     1     -61.527 -37.799   8.228 -0.01 -0.00    -0.346 OA 
DOCKED: ATOM      2  C   UNL     1     -60.133 -37.380   8.081 -0.11 +0.00    +0.130 C  
DOCKED: ATOM      3  C   UNL     1     -59.841 -37.603   6.625 -0.24 +0.00    +0.004 A  
DOCKED: ATOM      4  C   UNL     1     -60.998 -38.008   5.974 -0.29 +0.00    +0.006 A  
DOCKED: ATOM      5  C   UNL     1     -62.121 -38.068   6.937 -0.17 +0.00    +0.169 C  
DOCKED: ATOM      6  C   UNL     1     -58.651 -37.450   5.931 -0.35 -0.00    -0.001 A  
DOCKED: ATOM      7  C   UNL     1     -61.005 -38.275   4.616 -0.22 +0.00    +0.008 A  
DOCKED: ATOM      8  C   UNL     1     -58.640 -37.720   4.561 -0.36 +0.00    +0.010 A  
DOCKED: ATOM      9  C   UNL     1     -59.811 -38.130   3.907 -0.28 +0.00    +0.068 A  
DOCKED: ATOM     10  N   UNL     1     -59.758 -38.618   1.363 -3.08 -0.00    -0.191 NA 
DOCKED: ATOM     11  C   UNL     1     -59.782 -38.400   2.505 -0.28 +0.00    +0.101 C  
DOCKED: ENDROOT
DOCKED: BRANCH   2  12
DOCKED: ATOM     12  C   UNL     1     -60.022 -35.917   8.491 -0.10 +0.00    +0.038 C  
DOCKED: BRANCH  12  13
DOCKED: ATOM     13  C   UNL     1     -60.945 -35.033   7.654 -0.19 +0.00    +0.038 C  
DOCKED: BRANCH  13  14
DOCKED: ATOM     14  C   UNL     1     -60.152 -34.233   6.622 -0.13 +0.00    +0.251 C  
DOCKED: BRANCH  14  15
DOCKED: ATOM     15  N   UNL     1     -60.774 -32.933   6.402 -0.21 +0.00    +0.141 N  
DOCKED: ATOM     16  C   UNL     1     -62.207 -32.989   6.696 -0.13 +0.00    +0.285 C  
DOCKED: ATOM     17  C   UNL     1     -60.127 -31.906   7.221 -0.09 +0.00    +0.285 C  
DOCKED: ENDBRANCH  14  15
DOCKED: ENDBRANCH  13  14
DOCKED: ENDBRANCH  12  13
DOCKED: ENDBRANCH   2  12
DOCKED: BRANCH   2  18
DOCKED: ATOM     18  C   UNL     1     -59.319 -38.253   8.977 -0.15 +0.00    +0.006 A  
DOCKED: ATOM     19  C   UNL     1     -59.246 -37.976  10.342 -0.10 +0.00    +0.001 A  
DOCKED: ATOM     20  C   UNL     1     -58.484 -38.793  11.179 -0.15 +0.00    +0.029 A  
DOCKED: ATOM     21  C   UNL     1     -57.798 -39.885  10.650 -0.11 +0.00    +0.140 A  
DOCKED: ATOM     22  C   UNL     1     -57.872 -40.162   9.286 -0.14 +0.00    +0.029 A  
DOCKED: ATOM     23  F   UNL     1     -57.069 -40.670  11.454 -0.10 -0.00    -0.204 F  
DOCKED: ATOM     24  C   UNL     1     -58.633 -39.345   8.448 -0.27 +0.00    +0.001 A  
DOCKED: ENDBRANCH   2  18
DOCKED: TORSDOF 5
DOCKED: TER
DOCKED: ENDMDL
________________________________________________________________________________


    FINAL DOCKED STATE:
    ________________________


Run:   286 / 512
Time taken for this run:   0.002s

DOCKED: MODEL        286
DOCKED: USER    Run = 286
DOCKED: USER
DOCKED: USER    Estimated Free Energy of Binding    =  -5.57 kcal/mol  [=(1)+(2)+(3)-(4)]
DOCKED: USER
DOCKED: USER    (1) Final Intermolecular Energy     =  -7.06 kcal/mol
DOCKED: USER        vdW + Hbond + desolv Energy     =  -7.06 kcal/mol
DOCKED: USER        Electrostatic Energy            =  +0.00 kcal/mol
DOCKED: USER        Moving Ligand-Fixed Receptor    =  -7.06 kcal/mol
DOCKED: USER        Moving Ligand-Moving Receptor   =  +0.00 kcal/mol
DOCKED: USER    (2) Final Total Internal Energy     =  -1.34 kcal/mol
DOCKED: USER    (3) Torsional Free Energy           =  +1.49 kcal/mol
DOCKED: USER    (4) Unbound System's Energy         =  -1.34 kcal/mol
DOCKED: USER
DOCKED: USER
DOCKED: REMARK  5 active torsions:
DOCKED: REMARK  status: ('A' for Active; 'I' for Inactive)
DOCKED: REMARK    1  A    between atoms: C_2  and  C_19 
DOCKED: REMARK    2  A    between atoms: C_2  and  C_11 
DOCKED: REMARK    3  A    between atoms: C_19  and  C_20 
DOCKED: REMARK    4  A    between atoms: C_20  and  C_21 
DOCKED: REMARK    5  A    between atoms: C_21  and  N_22 
DOCKED: USER                              x       y       z     vdW  Elec       q    Type
DOCKED: USER                           _______ _______ _______ _____ _____    ______ ____
DOCKED: ROOT
DOCKED: ATOM      1  O   UNL     1     -57.848 -36.085   8.145 -0.03 -0.00    -0.346 OA 
DOCKED: ATOM      2  C   UNL     1     -57.213 -37.402   8.068 -0.21 +0.00    +0.130 C  
DOCKED: ATOM      3  C   UNL     1     -57.703 -37.962   6.765 -0.33 +0.00    +0.004 A  
DOCKED: ATOM      4  C   UNL     1     -58.462 -37.008   6.102 -0.33 +0.00    +0.006 A  
DOCKED: ATOM      5  C   UNL     1     -58.515 -35.764   6.902 -0.21 +0.00    +0.169 C  
DOCKED: ATOM      6  C   UNL     1     -57.486 -39.213   6.205 -0.41 -0.00    -0.001 A  
DOCKED: ATOM      7  C   UNL     1     -59.029 -37.269   4.866 -0.16 +0.00    +0.008 A  
DOCKED: ATOM      8  C   UNL     1     -58.055 -39.493   4.962 -0.35 +0.00    +0.010 A  
DOCKED: ATOM      9  C   UNL     1     -58.823 -38.526   4.296 -0.42 +0.00    +0.068 A  
DOCKED: ATOM     10  N   UNL     1     -59.861 -39.077   1.987 -2.44 -0.00    -0.191 NA 
DOCKED: ATOM     11  C   UNL     1     -59.396 -38.830   3.023 -0.49 +0.00    +0.101 C  
DOCKED: ENDROOT
DOCKED: BRANCH   2  12
DOCKED: ATOM     12  C   UNL     1     -55.701 -37.212   8.101 -0.22 +0.00    +0.038 C  
DOCKED: BRANCH  12  13
DOCKED: ATOM     13  C   UNL     1     -55.327 -35.810   8.578 -0.14 +0.00    +0.038 C  
DOCKED: BRANCH  13  14
DOCKED: ATOM     14  C   UNL     1     -54.743 -34.979   7.437 -0.03 +0.00    +0.251 C  
DOCKED: BRANCH  14  15
DOCKED: ATOM     15  N   UNL     1     -55.783 -34.167   6.816 -0.14 +0.00    +0.141 N  
DOCKED: ATOM     16  C   UNL     1     -56.362 -33.239   7.789 -0.05 +0.00    +0.285 C  
DOCKED: ATOM     17  C   UNL     1     -55.248 -33.432   5.669 -0.11 +0.00    +0.285 C  
DOCKED: ENDBRANCH  14  15
DOCKED: ENDBRANCH  13  14
DOCKED: ENDBRANCH  12  13
DOCKED: ENDBRANCH   2  12
DOCKED: BRANCH   2  18
DOCKED: ATOM     18  C   UNL     1     -57.684 -38.182   9.250 -0.18 +0.00    +0.006 A  
DOCKED: ATOM     19  C   UNL     1     -59.019 -38.571   9.342 -0.18 +0.00    +0.001 A  
DOCKED: ATOM     20  C   UNL     1     -59.458 -39.300  10.448 -0.13 +0.00    +0.029 A  
DOCKED: ATOM     21  C   UNL     1     -58.561 -39.640  11.459 -0.12 +0.00    +0.140 A  
DOCKED: ATOM     22  C   UNL     1     -57.225 -39.251  11.367 -0.21 +0.00    +0.029 A  
DOCKED: ATOM     23  F   UNL     1     -58.982 -40.341  12.520 -0.04 -0.00    -0.204 F  
DOCKED: ATOM     24  C   UNL     1     -56.785 -38.521  10.261 -0.12 +0.00    +0.001 A  
DOCKED: ENDBRANCH   2  18
DOCKED: TORSDOF 5
DOCKED: TER
DOCKED: ENDMDL
________________________________________________________________________________


    FINAL DOCKED STATE:
    ________________________


Run:   287 / 512
Time taken for this run:   0.002s

DOCKED: MODEL        287
DOCKED: USER    Run = 287
DOCKED: USER
DOCKED: USER    Estimated Free Energy of Binding    =  -3.79 kcal/mol  [=(1)+(2)+(3)-(4)]
DOCKED: USER
DOCKED: USER    (1) Final Intermolecular Energy     =  -5.28 kcal/mol
DOCKED: USER        vdW + Hbond + desolv Energy     =  -5.28 kcal/mol
DOCKED: USER        Electrostatic Energy            =  +0.00 kcal/mol
DOCKED: USER        Moving Ligand-Fixed Receptor    =  -5.28 kcal/mol
DOCKED: USER        Moving Ligand-Moving Receptor   =  +0.00 kcal/mol
DOCKED: USER    (2) Final Total Internal Energy     =  -1.59 kcal/mol
DOCKED: USER    (3) Torsional Free Energy           =  +1.49 kcal/mol
DOCKED: USER    (4) Unbound System's Energy         =  -1.59 kcal/mol
DOCKED: USER
DOCKED: USER
DOCKED: REMARK  5 active torsions:
DOCKED: REMARK  status: ('A' for Active; 'I' for Inactive)
DOCKED: REMARK    1  A    between atoms: C_2  and  C_19 
DOCKED: REMARK    2  A    between atoms: C_2  and  C_11 
DOCKED: REMARK    3  A    between atoms: C_19  and  C_20 
DOCKED: REMARK    4  A    between atoms: C_20  and  C_21 
DOCKED: REMARK    5  A    between atoms: C_21  and  N_22 
DOCKED: USER                              x       y       z     vdW  Elec       q    Type
DOCKED: USER                           _______ _______ _______ _____ _____    ______ ____
DOCKED: ROOT
DOCKED: ATOM      1  O   UNL     1     -59.344 -38.197   9.046 -0.03 -0.00    -0.346 OA 
DOCKED: ATOM      2  C   UNL     1     -58.822 -36.991   8.402 -0.10 +0.00    +0.130 C  
DOCKED: ATOM      3  C   UNL     1     -58.898 -37.306   6.936 -0.25 +0.00    +0.004 A  
DOCKED: ATOM      4  C   UNL     1     -59.512 -38.537   6.753 -0.27 +0.00    +0.006 A  
DOCKED: ATOM      5  C   UNL     1     -59.891 -39.108   8.065 -0.18 +0.00    +0.169 C  
DOCKED: ATOM      6  C   UNL     1     -58.469 -36.557   5.850 -0.31 -0.00    -0.001 A  
DOCKED: ATOM      7  C   UNL     1     -59.714 -39.061   5.488 -0.39 +0.00    +0.008 A  
DOCKED: ATOM      8  C   UNL     1     -58.661 -37.074   4.567 -0.05 +0.00    +0.010 A  
DOCKED: ATOM      9  C   UNL     1     -59.281 -38.320   4.388 -0.40 +0.00    +0.068 A  
DOCKED: ATOM     10  N   UNL     1     -59.626 -39.248   1.994 -2.14 -0.00    -0.191 NA 
DOCKED: ATOM     11  C   UNL     1     -59.470 -38.832   3.067 -0.48 +0.00    +0.101 C  
DOCKED: ENDROOT
DOCKED: BRANCH   2  12
DOCKED: ATOM     12  C   UNL     1     -59.700 -35.811   8.802 -0.08 +0.00    +0.038 C  
DOCKED: BRANCH  12  13
DOCKED: ATOM     13  C   UNL     1     -60.549 -36.140  10.029 -0.05 +0.00    +0.038 C  
DOCKED: BRANCH  13  14
DOCKED: ATOM     14  C   UNL     1     -59.844 -35.713  11.315 -0.00 +0.00    +0.251 C  
DOCKED: BRANCH  14  15
DOCKED: ATOM     15  N   UNL     1     -58.888 -36.731  11.732 -0.02 +0.00    +0.141 N  
DOCKED: ATOM     16  C   UNL     1     -58.111 -36.269  12.883 -0.00 +0.00    +0.285 C  
DOCKED: ATOM     17  C   UNL     1     -59.575 -37.983  12.053 -0.02 +0.00    +0.285 C  
DOCKED: ENDBRANCH  14  15
DOCKED: ENDBRANCH  13  14
DOCKED: ENDBRANCH  12  13
DOCKED: ENDBRANCH   2  12
DOCKED: BRANCH   2  18
DOCKED: ATOM     18  C   UNL     1     -57.422 -36.809   8.885 -0.12 +0.00    +0.006 A  
DOCKED: ATOM     19  C   UNL     1     -56.604 -37.921   9.085 -0.17 +0.00    +0.001 A  
DOCKED: ATOM     20  C   UNL     1     -55.295 -37.749   9.538 -0.02 +0.00    +0.029 A  
DOCKED: ATOM     21  C   UNL     1     -54.807 -36.468   9.789 -0.08 +0.00    +0.140 A  
DOCKED: ATOM     22  C   UNL     1     -55.625 -35.357   9.589 -0.06 +0.00    +0.029 A  
DOCKED: ATOM     23  F   UNL     1     -53.550 -36.303  10.222 -0.01 -0.00    -0.204 F  
DOCKED: ATOM     24  C   UNL     1     -56.935 -35.527   9.136 -0.07 +0.00    +0.001 A  
DOCKED: ENDBRANCH   2  18
DOCKED: TORSDOF 5
DOCKED: TER
DOCKED: ENDMDL
________________________________________________________________________________


    FINAL DOCKED STATE:
    ________________________


Run:   288 / 512
Time taken for this run:   0.002s

DOCKED: MODEL        288
DOCKED: USER    Run = 288
DOCKED: USER
DOCKED: USER    Estimated Free Energy of Binding    =  -4.15 kcal/mol  [=(1)+(2)+(3)-(4)]
DOCKED: USER
DOCKED: USER    (1) Final Intermolecular Energy     =  -5.64 kcal/mol
DOCKED: USER        vdW + Hbond + desolv Energy     =  -5.64 kcal/mol
DOCKED: USER        Electrostatic Energy            =  +0.00 kcal/mol
DOCKED: USER        Moving Ligand-Fixed Receptor    =  -5.64 kcal/mol
DOCKED: USER        Moving Ligand-Moving Receptor   =  +0.00 kcal/mol
DOCKED: USER    (2) Final Total Internal Energy     =  -1.53 kcal/mol
DOCKED: USER    (3) Torsional Free Energy           =  +1.49 kcal/mol
DOCKED: USER    (4) Unbound System's Energy         =  -1.53 kcal/mol
DOCKED: USER
DOCKED: USER
DOCKED: REMARK  5 active torsions:
DOCKED: REMARK  status: ('A' for Active; 'I' for Inactive)
DOCKED: REMARK    1  A    between atoms: C_2  and  C_19 
DOCKED: REMARK    2  A    between atoms: C_2  and  C_11 
DOCKED: REMARK    3  A    between atoms: C_19  and  C_20 
DOCKED: REMARK    4  A    between atoms: C_20  and  C_21 
DOCKED: REMARK    5  A    between atoms: C_21  and  N_22 
DOCKED: USER                              x       y       z     vdW  Elec       q    Type
DOCKED: USER                           _______ _______ _______ _____ _____    ______ ____
DOCKED: ROOT
DOCKED: ATOM      1  O   UNL     1     -56.586 -29.929   1.956 -0.10 -0.00    -0.346 OA 
DOCKED: ATOM      2  C   UNL     1     -55.240 -29.961   1.383 -0.19 +0.00    +0.130 C  
DOCKED: ATOM      3  C   UNL     1     -55.421 -29.388   0.007 -0.25 +0.00    +0.004 A  
DOCKED: ATOM      4  C   UNL     1     -56.733 -28.963  -0.153 -0.12 +0.00    +0.006 A  
DOCKED: ATOM      5  C   UNL     1     -57.496 -29.210   1.091 -0.17 +0.00    +0.169 C  
DOCKED: ATOM      6  C   UNL     1     -54.497 -29.244  -1.017 -0.24 -0.00    -0.001 A  
DOCKED: ATOM      7  C   UNL     1     -57.164 -28.388  -1.336 +0.05 +0.00    +0.008 A  
DOCKED: ATOM      8  C   UNL     1     -54.918 -28.669  -2.218 -0.30 +0.00    +0.010 A  
DOCKED: ATOM      9  C   UNL     1     -56.245 -28.243  -2.376 -0.30 +0.00    +0.068 A  
DOCKED: ATOM     10  N   UNL     1     -56.992 -27.175  -4.615 -2.11 -0.00    -0.191 NA 
DOCKED: ATOM     11  C   UNL     1     -56.657 -27.655  -3.611 -0.35 +0.00    +0.101 C  
DOCKED: ENDROOT
DOCKED: BRANCH   2  12
DOCKED: ATOM     12  C   UNL     1     -54.322 -29.118   2.260 -0.18 +0.00    +0.038 C  
DOCKED: BRANCH  12  13
DOCKED: ATOM     13  C   UNL     1     -55.121 -28.234   3.216 -0.16 +0.00    +0.038 C  
DOCKED: BRANCH  13  14
DOCKED: ATOM     14  C   UNL     1     -55.241 -28.883   4.594 -0.08 +0.00    +0.251 C  
DOCKED: BRANCH  14  15
DOCKED: ATOM     15  N   UNL     1     -55.216 -30.336   4.475 -0.05 +0.00    +0.141 N  
DOCKED: ATOM     16  C   UNL     1     -54.168 -30.905   5.322 -0.02 +0.00    +0.285 C  
DOCKED: ATOM     17  C   UNL     1     -56.518 -30.904   4.827 -0.06 +0.00    +0.285 C  
DOCKED: ENDBRANCH  14  15
DOCKED: ENDBRANCH  13  14
DOCKED: ENDBRANCH  12  13
DOCKED: ENDBRANCH   2  12
DOCKED: BRANCH   2  18
DOCKED: ATOM     18  C   UNL     1     -54.807 -31.389   1.366 -0.15 +0.00    +0.006 A  
DOCKED: ATOM     19  C   UNL     1     -55.656 -32.368   0.853 -0.24 +0.00    +0.001 A  
DOCKED: ATOM     20  C   UNL     1     -55.250 -33.703   0.838 -0.15 +0.00    +0.029 A  
DOCKED: ATOM     21  C   UNL     1     -53.997 -34.057   1.335 -0.20 +0.00    +0.140 A  
DOCKED: ATOM     22  C   UNL     1     -53.148 -33.076   1.848 -0.09 +0.00    +0.029 A  
DOCKED: ATOM     23  F   UNL     1     -53.607 -35.338   1.319 -0.11 -0.00    -0.204 F  
DOCKED: ATOM     24  C   UNL     1     -53.553 -31.741   1.864 -0.07 +0.00    +0.001 A  
DOCKED: ENDBRANCH   2  18
DOCKED: TORSDOF 5
DOCKED: TER
DOCKED: ENDMDL
________________________________________________________________________________


    FINAL DOCKED STATE:
    ________________________


Run:   289 / 512
Time taken for this run:   0.002s

DOCKED: MODEL        289
DOCKED: USER    Run = 289
DOCKED: USER
DOCKED: USER    Estimated Free Energy of Binding    =  -4.36 kcal/mol  [=(1)+(2)+(3)-(4)]
DOCKED: USER
DOCKED: USER    (1) Final Intermolecular Energy     =  -5.85 kcal/mol
DOCKED: USER        vdW + Hbond + desolv Energy     =  -5.85 kcal/mol
DOCKED: USER        Electrostatic Energy            =  +0.00 kcal/mol
DOCKED: USER        Moving Ligand-Fixed Receptor    =  -5.85 kcal/mol
DOCKED: USER        Moving Ligand-Moving Receptor   =  +0.00 kcal/mol
DOCKED: USER    (2) Final Total Internal Energy     =  -1.11 kcal/mol
DOCKED: USER    (3) Torsional Free Energy           =  +1.49 kcal/mol
DOCKED: USER    (4) Unbound System's Energy         =  -1.11 kcal/mol
DOCKED: USER
DOCKED: USER
DOCKED: REMARK  5 active torsions:
DOCKED: REMARK  status: ('A' for Active; 'I' for Inactive)
DOCKED: REMARK    1  A    between atoms: C_2  and  C_19 
DOCKED: REMARK    2  A    between atoms: C_2  and  C_11 
DOCKED: REMARK    3  A    between atoms: C_19  and  C_20 
DOCKED: REMARK    4  A    between atoms: C_20  and  C_21 
DOCKED: REMARK    5  A    between atoms: C_21  and  N_22 
DOCKED: USER                              x       y       z     vdW  Elec       q    Type
DOCKED: USER                           _______ _______ _______ _____ _____    ______ ____
DOCKED: ROOT
DOCKED: ATOM      1  O   UNL     1     -58.982 -38.004   8.940 -0.02 -0.00    -0.346 OA 
DOCKED: ATOM      2  C   UNL     1     -58.439 -36.851   8.221 -0.12 +0.00    +0.130 C  
DOCKED: ATOM      3  C   UNL     1     -58.633 -37.205   6.775 -0.28 +0.00    +0.004 A  
DOCKED: ATOM      4  C   UNL     1     -59.326 -38.403   6.676 -0.28 +0.00    +0.006 A  
DOCKED: ATOM      5  C   UNL     1     -59.645 -38.912   8.029 -0.18 +0.00    +0.169 C  
DOCKED: ATOM      6  C   UNL     1     -58.239 -36.516   5.637 -0.26 -0.00    -0.001 A  
DOCKED: ATOM      7  C   UNL     1     -59.644 -38.954   5.446 -0.39 +0.00    +0.008 A  
DOCKED: ATOM      8  C   UNL     1     -58.548 -37.060   4.389 +0.16 +0.00    +0.010 A  
DOCKED: ATOM      9  C   UNL     1     -59.247 -38.273   4.295 -0.40 +0.00    +0.068 A  
DOCKED: ATOM     10  N   UNL     1     -59.808 -39.252   1.963 -2.36 -0.00    -0.191 NA 
DOCKED: ATOM     11  C   UNL     1     -59.556 -38.813   3.009 -0.43 +0.00    +0.101 C  
DOCKED: ENDROOT
DOCKED: BRANCH   2  12
DOCKED: ATOM     12  C   UNL     1     -59.219 -35.611   8.638 -0.09 +0.00    +0.038 C  
DOCKED: BRANCH  12  13
DOCKED: ATOM     13  C   UNL     1     -60.263 -35.231   7.590 -0.19 +0.00    +0.038 C  
DOCKED: BRANCH  13  14
DOCKED: ATOM     14  C   UNL     1     -61.410 -34.441   8.219 -0.07 +0.00    +0.251 C  
DOCKED: BRANCH  14  15
DOCKED: ATOM     15  N   UNL     1     -62.611 -34.553   7.400 -0.16 +0.00    +0.141 N  
DOCKED: ATOM     16  C   UNL     1     -62.780 -33.362   6.566 -0.12 +0.00    +0.285 C  
DOCKED: ATOM     17  C   UNL     1     -62.556 -35.754   6.564 -0.08 +0.00    +0.285 C  
DOCKED: ENDBRANCH  14  15
DOCKED: ENDBRANCH  13  14
DOCKED: ENDBRANCH  12  13
DOCKED: ENDBRANCH   2  12
DOCKED: BRANCH   2  18
DOCKED: ATOM     18  C   UNL     1     -57.000 -36.737   8.603 -0.15 +0.00    +0.006 A  
DOCKED: ATOM     19  C   UNL     1     -56.299 -37.866   9.021 -0.15 +0.00    +0.001 A  
DOCKED: ATOM     20  C   UNL     1     -54.954 -37.758   9.378 +0.02 +0.00    +0.029 A  
DOCKED: ATOM     21  C   UNL     1     -54.314 -36.521   9.316 -0.10 +0.00    +0.140 A  
DOCKED: ATOM     22  C   UNL     1     -55.016 -35.391   8.897 -0.09 +0.00    +0.029 A  
DOCKED: ATOM     23  F   UNL     1     -53.023 -36.417   9.657 -0.01 -0.00    -0.204 F  
DOCKED: ATOM     24  C   UNL     1     -56.362 -35.499   8.540 -0.12 +0.00    +0.001 A  
DOCKED: ENDBRANCH   2  18
DOCKED: TORSDOF 5
DOCKED: TER
DOCKED: ENDMDL
________________________________________________________________________________


    FINAL DOCKED STATE:
    ________________________


Run:   290 / 512
Time taken for this run:   0.002s

DOCKED: MODEL        290
DOCKED: USER    Run = 290
DOCKED: USER
DOCKED: USER    Estimated Free Energy of Binding    =  -4.00 kcal/mol  [=(1)+(2)+(3)-(4)]
DOCKED: USER
DOCKED: USER    (1) Final Intermolecular Energy     =  -5.49 kcal/mol
DOCKED: USER        vdW + Hbond + desolv Energy     =  -5.49 kcal/mol
DOCKED: USER        Electrostatic Energy            =  +0.00 kcal/mol
DOCKED: USER        Moving Ligand-Fixed Receptor    =  -5.49 kcal/mol
DOCKED: USER        Moving Ligand-Moving Receptor   =  +0.00 kcal/mol
DOCKED: USER    (2) Final Total Internal Energy     =  -1.13 kcal/mol
DOCKED: USER    (3) Torsional Free Energy           =  +1.49 kcal/mol
DOCKED: USER    (4) Unbound System's Energy         =  -1.13 kcal/mol
DOCKED: USER
DOCKED: USER
DOCKED: REMARK  5 active torsions:
DOCKED: REMARK  status: ('A' for Active; 'I' for Inactive)
DOCKED: REMARK    1  A    between atoms: C_2  and  C_19 
DOCKED: REMARK    2  A    between atoms: C_2  and  C_11 
DOCKED: REMARK    3  A    between atoms: C_19  and  C_20 
DOCKED: REMARK    4  A    between atoms: C_20  and  C_21 
DOCKED: REMARK    5  A    between atoms: C_21  and  N_22 
DOCKED: USER                              x       y       z     vdW  Elec       q    Type
DOCKED: USER                           _______ _______ _______ _____ _____    ______ ____
DOCKED: ROOT
DOCKED: ATOM      1  O   UNL     1     -53.469 -29.809   0.638 -0.05 -0.00    -0.346 OA 
DOCKED: ATOM      2  C   UNL     1     -54.846 -29.973   0.171 -0.21 +0.00    +0.130 C  
DOCKED: ATOM      3  C   UNL     1     -54.929 -29.073  -1.028 -0.25 +0.00    +0.004 A  
DOCKED: ATOM      4  C   UNL     1     -53.680 -28.527  -1.289 -0.16 +0.00    +0.006 A  
DOCKED: ATOM      5  C   UNL     1     -52.696 -29.030  -0.305 -0.11 +0.00    +0.169 C  
DOCKED: ATOM      6  C   UNL     1     -56.020 -28.769  -1.830 -0.33 -0.00    -0.001 A  
DOCKED: ATOM      7  C   UNL     1     -53.480 -27.661  -2.351 -0.19 +0.00    +0.008 A  
DOCKED: ATOM      8  C   UNL     1     -55.835 -27.895  -2.902 -0.40 +0.00    +0.010 A  
DOCKED: ATOM      9  C   UNL     1     -54.571 -27.344  -3.161 -0.28 +0.00    +0.068 A  
DOCKED: ATOM     10  N   UNL     1     -54.261 -25.728  -5.162 -0.79 -0.00    -0.191 NA 
DOCKED: ATOM     11  C   UNL     1     -54.400 -26.452  -4.264 -0.35 +0.00    +0.101 C  
DOCKED: ENDROOT
DOCKED: BRANCH   2  12
DOCKED: ATOM     12  C   UNL     1     -55.067 -31.441  -0.174 -0.23 +0.00    +0.038 C  
DOCKED: BRANCH  12  13
DOCKED: ATOM     13  C   UNL     1     -53.803 -32.073  -0.754 -0.19 +0.00    +0.038 C  
DOCKED: BRANCH  13  14
DOCKED: ATOM     14  C   UNL     1     -53.627 -33.506  -0.255 -0.14 +0.00    +0.251 C  
DOCKED: BRANCH  14  15
DOCKED: ATOM     15  N   UNL     1     -54.083 -33.623   1.125 -0.18 +0.00    +0.141 N  
DOCKED: ATOM     16  C   UNL     1     -55.191 -34.574   1.224 -0.21 +0.00    +0.285 C  
DOCKED: ATOM     17  C   UNL     1     -52.983 -34.033   1.999 -0.09 +0.00    +0.285 C  
DOCKED: ENDBRANCH  14  15
DOCKED: ENDBRANCH  13  14
DOCKED: ENDBRANCH  12  13
DOCKED: ENDBRANCH   2  12
DOCKED: BRANCH   2  18
DOCKED: ATOM     18  C   UNL     1     -55.740 -29.542   1.285 -0.25 +0.00    +0.006 A  
DOCKED: ATOM     19  C   UNL     1     -55.194 -28.972   2.435 -0.20 +0.00    +0.001 A  
DOCKED: ATOM     20  C   UNL     1     -56.031 -28.570   3.477 -0.19 +0.00    +0.029 A  
DOCKED: ATOM     21  C   UNL     1     -57.411 -28.736   3.367 -0.15 +0.00    +0.140 A  
DOCKED: ATOM     22  C   UNL     1     -57.956 -29.305   2.216 -0.27 +0.00    +0.029 A  
DOCKED: ATOM     23  F   UNL     1     -58.214 -28.348   4.366 -0.00 -0.00    -0.204 F  
DOCKED: ATOM     24  C   UNL     1     -57.120 -29.709   1.174 -0.29 +0.00    +0.001 A  
DOCKED: ENDBRANCH   2  18
DOCKED: TORSDOF 5
DOCKED: TER
DOCKED: ENDMDL
________________________________________________________________________________


    FINAL DOCKED STATE:
    ________________________


Run:   291 / 512
Time taken for this run:   0.002s

DOCKED: MODEL        291
DOCKED: USER    Run = 291
DOCKED: USER
DOCKED: USER    Estimated Free Energy of Binding    =  -4.19 kcal/mol  [=(1)+(2)+(3)-(4)]
DOCKED: USER
DOCKED: USER    (1) Final Intermolecular Energy     =  -5.68 kcal/mol
DOCKED: USER        vdW + Hbond + desolv Energy     =  -5.68 kcal/mol
DOCKED: USER        Electrostatic Energy            =  +0.00 kcal/mol
DOCKED: USER        Moving Ligand-Fixed Receptor    =  -5.68 kcal/mol
DOCKED: USER        Moving Ligand-Moving Receptor   =  +0.00 kcal/mol
DOCKED: USER    (2) Final Total Internal Energy     =  -1.17 kcal/mol
DOCKED: USER    (3) Torsional Free Energy           =  +1.49 kcal/mol
DOCKED: USER    (4) Unbound System's Energy         =  -1.17 kcal/mol
DOCKED: USER
DOCKED: USER
DOCKED: REMARK  5 active torsions:
DOCKED: REMARK  status: ('A' for Active; 'I' for Inactive)
DOCKED: REMARK    1  A    between atoms: C_2  and  C_19 
DOCKED: REMARK    2  A    between atoms: C_2  and  C_11 
DOCKED: REMARK    3  A    between atoms: C_19  and  C_20 
DOCKED: REMARK    4  A    between atoms: C_20  and  C_21 
DOCKED: REMARK    5  A    between atoms: C_21  and  N_22 
DOCKED: USER                              x       y       z     vdW  Elec       q    Type
DOCKED: USER                           _______ _______ _______ _____ _____    ______ ____
DOCKED: ROOT
DOCKED: ATOM      1  O   UNL     1     -51.888 -30.035  -1.101 +0.00 -0.00    -0.346 OA 
DOCKED: ATOM      2  C   UNL     1     -53.185 -30.221  -0.449 -0.10 +0.00    +0.130 C  
DOCKED: ATOM      3  C   UNL     1     -54.143 -29.480  -1.336 -0.21 +0.00    +0.004 A  
DOCKED: ATOM      4  C   UNL     1     -53.472 -29.006  -2.454 -0.17 +0.00    +0.006 A  
DOCKED: ATOM      5  C   UNL     1     -52.048 -29.405  -2.393 -0.05 +0.00    +0.169 C  
DOCKED: ATOM      6  C   UNL     1     -55.502 -29.254  -1.172 -0.29 -0.00    -0.001 A  
DOCKED: ATOM      7  C   UNL     1     -54.131 -28.289  -3.439 -0.24 +0.00    +0.008 A  
DOCKED: ATOM      8  C   UNL     1     -56.179 -28.529  -2.154 -0.32 +0.00    +0.010 A  
DOCKED: ATOM      9  C   UNL     1     -55.497 -28.050  -3.282 -0.26 +0.00    +0.068 A  
DOCKED: ATOM     10  N   UNL     1     -56.785 -26.713  -5.089 -2.36 -0.00    -0.191 NA 
DOCKED: ATOM     11  C   UNL     1     -56.207 -27.312  -4.278 -0.39 +0.00    +0.101 C  
DOCKED: ENDROOT
DOCKED: BRANCH   2  12
DOCKED: ATOM     12  C   UNL     1     -53.478 -31.715  -0.376 -0.13 +0.00    +0.038 C  
DOCKED: BRANCH  12  13
DOCKED: ATOM     13  C   UNL     1     -52.344 -32.536  -0.987 -0.09 +0.00    +0.038 C  
DOCKED: BRANCH  13  14
DOCKED: ATOM     14  C   UNL     1     -52.890 -33.671  -1.850 -0.17 +0.00    +0.251 C  
DOCKED: BRANCH  14  15
DOCKED: ATOM     15  N   UNL     1     -52.376 -33.567  -3.211 -0.15 +0.00    +0.141 N  
DOCKED: ATOM     16  C   UNL     1     -53.124 -32.564  -3.970 -0.10 +0.00    +0.285 C  
DOCKED: ATOM     17  C   UNL     1     -50.950 -33.236  -3.199 -0.02 +0.00    +0.285 C  
DOCKED: ENDBRANCH  14  15
DOCKED: ENDBRANCH  13  14
DOCKED: ENDBRANCH  12  13
DOCKED: ENDBRANCH   2  12
DOCKED: BRANCH   2  18
DOCKED: ATOM     18  C   UNL     1     -53.077 -29.627   0.916 -0.12 +0.00    +0.006 A  
DOCKED: ATOM     19  C   UNL     1     -51.838 -29.568   1.554 -0.08 +0.00    +0.001 A  
DOCKED: ATOM     20  C   UNL     1     -51.739 -29.012   2.830 -0.08 +0.00    +0.029 A  
DOCKED: ATOM     21  C   UNL     1     -52.876 -28.516   3.465 -0.05 +0.00    +0.140 A  
DOCKED: ATOM     22  C   UNL     1     -54.114 -28.574   2.826 -0.07 +0.00    +0.029 A  
DOCKED: ATOM     23  F   UNL     1     -52.780 -27.980   4.689 -0.04 -0.00    -0.204 F  
DOCKED: ATOM     24  C   UNL     1     -54.215 -29.131   1.550 -0.17 +0.00    +0.001 A  
DOCKED: ENDBRANCH   2  18
DOCKED: TORSDOF 5
DOCKED: TER
DOCKED: ENDMDL
________________________________________________________________________________


    FINAL DOCKED STATE:
    ________________________


Run:   292 / 512
Time taken for this run:   0.002s

DOCKED: MODEL        292
DOCKED: USER    Run = 292
DOCKED: USER
DOCKED: USER    Estimated Free Energy of Binding    =  -6.36 kcal/mol  [=(1)+(2)+(3)-(4)]
DOCKED: USER
DOCKED: USER    (1) Final Intermolecular Energy     =  -7.85 kcal/mol
DOCKED: USER        vdW + Hbond + desolv Energy     =  -7.85 kcal/mol
DOCKED: USER        Electrostatic Energy            =  +0.00 kcal/mol
DOCKED: USER        Moving Ligand-Fixed Receptor    =  -7.85 kcal/mol
DOCKED: USER        Moving Ligand-Moving Receptor   =  +0.00 kcal/mol
DOCKED: USER    (2) Final Total Internal Energy     =  -1.05 kcal/mol
DOCKED: USER    (3) Torsional Free Energy           =  +1.49 kcal/mol
DOCKED: USER    (4) Unbound System's Energy         =  -1.05 kcal/mol
DOCKED: USER
DOCKED: USER
DOCKED: REMARK  5 active torsions:
DOCKED: REMARK  status: ('A' for Active; 'I' for Inactive)
DOCKED: REMARK    1  A    between atoms: C_2  and  C_19 
DOCKED: REMARK    2  A    between atoms: C_2  and  C_11 
DOCKED: REMARK    3  A    between atoms: C_19  and  C_20 
DOCKED: REMARK    4  A    between atoms: C_20  and  C_21 
DOCKED: REMARK    5  A    between atoms: C_21  and  N_22 
DOCKED: USER                              x       y       z     vdW  Elec       q    Type
DOCKED: USER                           _______ _______ _______ _____ _____    ______ ____
DOCKED: ROOT
DOCKED: ATOM      1  O   UNL     1     -56.833 -39.694   7.495 -0.41 -0.00    -0.346 OA 
DOCKED: ATOM      2  C   UNL     1     -57.916 -38.729   7.686 -0.27 +0.00    +0.130 C  
DOCKED: ATOM      3  C   UNL     1     -58.534 -38.607   6.323 -0.36 +0.00    +0.004 A  
DOCKED: ATOM      4  C   UNL     1     -57.930 -39.505   5.455 -0.41 +0.00    +0.006 A  
DOCKED: ATOM      5  C   UNL     1     -56.895 -40.281   6.174 -0.14 +0.00    +0.169 C  
DOCKED: ATOM      6  C   UNL     1     -59.556 -37.776   5.890 -0.32 -0.00    -0.001 A  
DOCKED: ATOM      7  C   UNL     1     -58.321 -39.601   4.130 -0.37 +0.00    +0.008 A  
DOCKED: ATOM      8  C   UNL     1     -59.959 -37.857   4.556 -0.14 +0.00    +0.010 A  
DOCKED: ATOM      9  C   UNL     1     -59.345 -38.766   3.681 -0.46 +0.00    +0.068 A  
DOCKED: ATOM     10  N   UNL     1     -60.120 -38.894   1.212 -3.29 -0.00    -0.191 NA 
DOCKED: ATOM     11  C   UNL     1     -59.772 -38.836   2.319 -0.28 +0.00    +0.101 C  
DOCKED: ENDROOT
DOCKED: BRANCH   2  12
DOCKED: ATOM     12  C   UNL     1     -58.880 -39.285   8.727 -0.28 +0.00    +0.038 C  
DOCKED: BRANCH  12  13
DOCKED: ATOM     13  C   UNL     1     -60.033 -38.319   8.991 -0.17 +0.00    +0.038 C  
DOCKED: BRANCH  13  14
DOCKED: ATOM     14  C   UNL     1     -60.653 -38.565  10.365 -0.06 +0.00    +0.251 C  
DOCKED: BRANCH  14  15
DOCKED: ATOM     15  N   UNL     1     -60.633 -37.341  11.157 -0.03 +0.00    +0.141 N  
DOCKED: ATOM     16  C   UNL     1     -61.906 -37.159  11.857 +0.00 +0.00    +0.285 C  
DOCKED: ATOM     17  C   UNL     1     -59.527 -37.365  12.115 -0.01 +0.00    +0.285 C  
DOCKED: ENDBRANCH  14  15
DOCKED: ENDBRANCH  13  14
DOCKED: ENDBRANCH  12  13
DOCKED: ENDBRANCH   2  12
DOCKED: BRANCH   2  18
DOCKED: ATOM     18  C   UNL     1     -57.290 -37.459   8.157 -0.22 +0.00    +0.006 A  
DOCKED: ATOM     19  C   UNL     1     -56.937 -37.311   9.497 -0.13 +0.00    +0.001 A  
DOCKED: ATOM     20  C   UNL     1     -56.352 -36.122   9.936 -0.06 +0.00    +0.029 A  
DOCKED: ATOM     21  C   UNL     1     -56.120 -35.085   9.034 -0.05 +0.00    +0.140 A  
DOCKED: ATOM     22  C   UNL     1     -56.473 -35.234   7.693 -0.15 +0.00    +0.029 A  
DOCKED: ATOM     23  F   UNL     1     -55.557 -33.945   9.455 -0.00 -0.00    -0.204 F  
DOCKED: ATOM     24  C   UNL     1     -57.059 -36.422   7.253 -0.24 +0.00    +0.001 A  
DOCKED: ENDBRANCH   2  18
DOCKED: TORSDOF 5
DOCKED: TER
DOCKED: ENDMDL
________________________________________________________________________________


    FINAL DOCKED STATE:
    ________________________


Run:   293 / 512
Time taken for this run:   0.002s

DOCKED: MODEL        293
DOCKED: USER    Run = 293
DOCKED: USER
DOCKED: USER    Estimated Free Energy of Binding    =  -4.85 kcal/mol  [=(1)+(2)+(3)-(4)]
DOCKED: USER
DOCKED: USER    (1) Final Intermolecular Energy     =  -6.34 kcal/mol
DOCKED: USER        vdW + Hbond + desolv Energy     =  -6.34 kcal/mol
DOCKED: USER        Electrostatic Energy            =  +0.00 kcal/mol
DOCKED: USER        Moving Ligand-Fixed Receptor    =  -6.34 kcal/mol
DOCKED: USER        Moving Ligand-Moving Receptor   =  +0.00 kcal/mol
DOCKED: USER    (2) Final Total Internal Energy     =  -1.12 kcal/mol
DOCKED: USER    (3) Torsional Free Energy           =  +1.49 kcal/mol
DOCKED: USER    (4) Unbound System's Energy         =  -1.12 kcal/mol
DOCKED: USER
DOCKED: USER
DOCKED: REMARK  5 active torsions:
DOCKED: REMARK  status: ('A' for Active; 'I' for Inactive)
DOCKED: REMARK    1  A    between atoms: C_2  and  C_19 
DOCKED: REMARK    2  A    between atoms: C_2  and  C_11 
DOCKED: REMARK    3  A    between atoms: C_19  and  C_20 
DOCKED: REMARK    4  A    between atoms: C_20  and  C_21 
DOCKED: REMARK    5  A    between atoms: C_21  and  N_22 
DOCKED: USER                              x       y       z     vdW  Elec       q    Type
DOCKED: USER                           _______ _______ _______ _____ _____    ______ ____
DOCKED: ROOT
DOCKED: ATOM      1  O   UNL     1     -56.830 -39.265   8.449 -0.10 -0.00    -0.346 OA 
DOCKED: ATOM      2  C   UNL     1     -57.503 -37.969   8.351 -0.20 +0.00    +0.130 C  
DOCKED: ATOM      3  C   UNL     1     -58.073 -37.964   6.962 -0.31 +0.00    +0.004 A  
DOCKED: ATOM      4  C   UNL     1     -57.842 -39.192   6.358 -0.39 +0.00    +0.006 A  
DOCKED: ATOM      5  C   UNL     1     -57.125 -40.086   7.295 -0.12 +0.00    +0.169 C  
DOCKED: ATOM      6  C   UNL     1     -58.752 -36.958   6.291 -0.31 -0.00    -0.001 A  
DOCKED: ATOM      7  C   UNL     1     -58.274 -39.454   5.069 -0.46 +0.00    +0.008 A  
DOCKED: ATOM      8  C   UNL     1     -59.191 -37.205   4.989 -0.02 +0.00    +0.010 A  
DOCKED: ATOM      9  C   UNL     1     -58.953 -38.447   4.382 -0.42 +0.00    +0.068 A  
DOCKED: ATOM     10  N   UNL     1     -59.785 -38.874   1.965 -2.57 -0.00    -0.191 NA 
DOCKED: ATOM     11  C   UNL     1     -59.412 -38.682   3.049 -0.50 +0.00    +0.101 C  
DOCKED: ENDROOT
DOCKED: BRANCH   2  12
DOCKED: ATOM     12  C   UNL     1     -58.575 -37.899   9.432 -0.15 +0.00    +0.038 C  
DOCKED: BRANCH  12  13
DOCKED: ATOM     13  C   UNL     1     -58.208 -38.764  10.637 -0.19 +0.00    +0.038 C  
DOCKED: BRANCH  13  14
DOCKED: ATOM     14  C   UNL     1     -58.703 -38.133  11.937 -0.04 +0.00    +0.251 C  
DOCKED: BRANCH  14  15
DOCKED: ATOM     15  N   UNL     1     -59.753 -37.159  11.661 -0.02 +0.00    +0.141 N  
DOCKED: ATOM     16  C   UNL     1     -60.923 -37.408  12.505 -0.00 +0.00    +0.285 C  
DOCKED: ATOM     17  C   UNL     1     -59.259 -35.797  11.867 -0.00 +0.00    +0.285 C  
DOCKED: ENDBRANCH  14  15
DOCKED: ENDBRANCH  13  14
DOCKED: ENDBRANCH  12  13
DOCKED: ENDBRANCH   2  12
DOCKED: BRANCH   2  18
DOCKED: ATOM     18  C   UNL     1     -56.462 -36.920   8.556 -0.18 +0.00    +0.006 A  
DOCKED: ATOM     19  C   UNL     1     -55.199 -37.070   7.985 -0.08 +0.00    +0.001 A  
DOCKED: ATOM     20  C   UNL     1     -54.227 -36.088   8.178 -0.10 +0.00    +0.029 A  
DOCKED: ATOM     21  C   UNL     1     -54.518 -34.958   8.940 -0.06 +0.00    +0.140 A  
DOCKED: ATOM     22  C   UNL     1     -55.782 -34.808   9.511 -0.04 +0.00    +0.029 A  
DOCKED: ATOM     23  F   UNL     1     -53.585 -34.015   9.124 -0.00 -0.00    -0.204 F  
DOCKED: ATOM     24  C   UNL     1     -56.756 -35.790   9.319 -0.08 +0.00    +0.001 A  
DOCKED: ENDBRANCH   2  18
DOCKED: TORSDOF 5
DOCKED: TER
DOCKED: ENDMDL
________________________________________________________________________________


    FINAL DOCKED STATE:
    ________________________


Run:   294 / 512
Time taken for this run:   0.002s

DOCKED: MODEL        294
DOCKED: USER    Run = 294
DOCKED: USER
DOCKED: USER    Estimated Free Energy of Binding    =  -3.44 kcal/mol  [=(1)+(2)+(3)-(4)]
DOCKED: USER
DOCKED: USER    (1) Final Intermolecular Energy     =  -4.93 kcal/mol
DOCKED: USER        vdW + Hbond + desolv Energy     =  -4.93 kcal/mol
DOCKED: USER        Electrostatic Energy            =  +0.00 kcal/mol
DOCKED: USER        Moving Ligand-Fixed Receptor    =  -4.93 kcal/mol
DOCKED: USER        Moving Ligand-Moving Receptor   =  +0.00 kcal/mol
DOCKED: USER    (2) Final Total Internal Energy     =  -1.34 kcal/mol
DOCKED: USER    (3) Torsional Free Energy           =  +1.49 kcal/mol
DOCKED: USER    (4) Unbound System's Energy         =  -1.34 kcal/mol
DOCKED: USER
DOCKED: USER
DOCKED: REMARK  5 active torsions:
DOCKED: REMARK  status: ('A' for Active; 'I' for Inactive)
DOCKED: REMARK    1  A    between atoms: C_2  and  C_19 
DOCKED: REMARK    2  A    between atoms: C_2  and  C_11 
DOCKED: REMARK    3  A    between atoms: C_19  and  C_20 
DOCKED: REMARK    4  A    between atoms: C_20  and  C_21 
DOCKED: REMARK    5  A    between atoms: C_21  and  N_22 
DOCKED: USER                              x       y       z     vdW  Elec       q    Type
DOCKED: USER                           _______ _______ _______ _____ _____    ______ ____
DOCKED: ROOT
DOCKED: ATOM      1  O   UNL     1     -50.150 -26.026  -6.248 -0.01 -0.00    -0.346 OA 
DOCKED: ATOM      2  C   UNL     1     -50.371 -26.074  -4.802 -0.05 +0.00    +0.130 C  
DOCKED: ATOM      3  C   UNL     1     -51.858 -26.235  -4.670 -0.14 +0.00    +0.004 A  
DOCKED: ATOM      4  C   UNL     1     -52.425 -26.378  -5.929 -0.18 +0.00    +0.006 A  
DOCKED: ATOM      5  C   UNL     1     -51.368 -26.335  -6.964 -0.09 +0.00    +0.169 C  
DOCKED: ATOM      6  C   UNL     1     -52.644 -26.264  -3.528 -0.18 -0.00    -0.001 A  
DOCKED: ATOM      7  C   UNL     1     -53.789 -26.549  -6.089 -0.27 +0.00    +0.008 A  
DOCKED: ATOM      8  C   UNL     1     -54.022 -26.432  -3.673 -0.30 +0.00    +0.010 A  
DOCKED: ATOM      9  C   UNL     1     -54.592 -26.574  -4.947 -0.33 +0.00    +0.068 A  
DOCKED: ATOM     10  N   UNL     1     -57.153 -26.889  -5.181 -2.56 -0.00    -0.191 NA 
DOCKED: ATOM     11  C   UNL     1     -56.004 -26.747  -5.076 -0.33 +0.00    +0.101 C  
DOCKED: ENDROOT
DOCKED: BRANCH   2  12
DOCKED: ATOM     12  C   UNL     1     -49.594 -27.256  -4.234 -0.02 +0.00    +0.038 C  
DOCKED: BRANCH  12  13
DOCKED: ATOM     13  C   UNL     1     -49.969 -28.559  -4.937 -0.02 +0.00    +0.038 C  
DOCKED: BRANCH  13  14
DOCKED: ATOM     14  C   UNL     1     -50.809 -29.452  -4.025 -0.01 +0.00    +0.251 C  
DOCKED: BRANCH  14  15
DOCKED: ATOM     15  N   UNL     1     -51.872 -30.096  -4.787 -0.06 +0.00    +0.141 N  
DOCKED: ATOM     16  C   UNL     1     -51.648 -29.935  -6.224 -0.06 +0.00    +0.285 C  
DOCKED: ATOM     17  C   UNL     1     -51.965 -31.516  -4.444 -0.07 +0.00    +0.285 C  
DOCKED: ENDBRANCH  14  15
DOCKED: ENDBRANCH  13  14
DOCKED: ENDBRANCH  12  13
DOCKED: ENDBRANCH   2  12
DOCKED: BRANCH   2  18
DOCKED: ATOM     18  C   UNL     1     -49.874 -24.783  -4.241 -0.07 +0.00    +0.006 A  
DOCKED: ATOM     19  C   UNL     1     -50.027 -24.509  -2.883 -0.06 +0.00    +0.001 A  
DOCKED: ATOM     20  C   UNL     1     -49.562 -23.301  -2.360 -0.03 +0.00    +0.029 A  
DOCKED: ATOM     21  C   UNL     1     -48.944 -22.372  -3.195 -0.01 +0.00    +0.140 A  
DOCKED: ATOM     22  C   UNL     1     -48.791 -22.647  -4.554 -0.04 +0.00    +0.029 A  
DOCKED: ATOM     23  F   UNL     1     -48.497 -21.214  -2.693 +0.01 -0.00    -0.204 F  
DOCKED: ATOM     24  C   UNL     1     -49.256 -23.855  -5.078 -0.06 +0.00    +0.001 A  
DOCKED: ENDBRANCH   2  18
DOCKED: TORSDOF 5
DOCKED: TER
DOCKED: ENDMDL
________________________________________________________________________________


    FINAL DOCKED STATE:
    ________________________


Run:   295 / 512
Time taken for this run:   0.002s

DOCKED: MODEL        295
DOCKED: USER    Run = 295
DOCKED: USER
DOCKED: USER    Estimated Free Energy of Binding    =  -5.49 kcal/mol  [=(1)+(2)+(3)-(4)]
DOCKED: USER
DOCKED: USER    (1) Final Intermolecular Energy     =  -6.98 kcal/mol
DOCKED: USER        vdW + Hbond + desolv Energy     =  -6.98 kcal/mol
DOCKED: USER        Electrostatic Energy            =  +0.00 kcal/mol
DOCKED: USER        Moving Ligand-Fixed Receptor    =  -6.98 kcal/mol
DOCKED: USER        Moving Ligand-Moving Receptor   =  +0.00 kcal/mol
DOCKED: USER    (2) Final Total Internal Energy     =  -1.16 kcal/mol
DOCKED: USER    (3) Torsional Free Energy           =  +1.49 kcal/mol
DOCKED: USER    (4) Unbound System's Energy         =  -1.16 kcal/mol
DOCKED: USER
DOCKED: USER
DOCKED: REMARK  5 active torsions:
DOCKED: REMARK  status: ('A' for Active; 'I' for Inactive)
DOCKED: REMARK    1  A    between atoms: C_2  and  C_19 
DOCKED: REMARK    2  A    between atoms: C_2  and  C_11 
DOCKED: REMARK    3  A    between atoms: C_19  and  C_20 
DOCKED: REMARK    4  A    between atoms: C_20  and  C_21 
DOCKED: REMARK    5  A    between atoms: C_21  and  N_22 
DOCKED: USER                              x       y       z     vdW  Elec       q    Type
DOCKED: USER                           _______ _______ _______ _____ _____    ______ ____
DOCKED: ROOT
DOCKED: ATOM      1  O   UNL     1     -57.041 -38.347   8.000 -0.12 -0.00    -0.346 OA 
DOCKED: ATOM      2  C   UNL     1     -58.421 -37.868   8.085 -0.17 +0.00    +0.130 C  
DOCKED: ATOM      3  C   UNL     1     -58.960 -38.079   6.699 -0.28 +0.00    +0.004 A  
DOCKED: ATOM      4  C   UNL     1     -58.009 -38.723   5.921 -0.41 +0.00    +0.006 A  
DOCKED: ATOM      5  C   UNL     1     -56.798 -38.991   6.728 -0.23 +0.00    +0.169 C  
DOCKED: ATOM      6  C   UNL     1     -60.198 -37.738   6.174 -0.28 -0.00    -0.001 A  
DOCKED: ATOM      7  C   UNL     1     -58.258 -39.043   4.597 -0.34 +0.00    +0.008 A  
DOCKED: ATOM      8  C   UNL     1     -60.463 -38.050   4.839 -0.25 +0.00    +0.010 A  
DOCKED: ATOM      9  C   UNL     1     -59.498 -38.700   4.055 -0.43 +0.00    +0.068 A  
DOCKED: ATOM     10  N   UNL     1     -60.023 -39.270   1.583 -2.76 -0.00    -0.191 NA 
DOCKED: ATOM     11  C   UNL     1     -59.787 -39.014   2.692 -0.31 +0.00    +0.101 C  
DOCKED: ENDROOT
DOCKED: BRANCH   2  12
DOCKED: ATOM     12  C   UNL     1     -59.154 -38.690   9.138 -0.21 +0.00    +0.038 C  
DOCKED: BRANCH  12  13
DOCKED: ATOM     13  C   UNL     1     -58.196 -39.611   9.892 -0.26 +0.00    +0.038 C  
DOCKED: BRANCH  13  14
DOCKED: ATOM     14  C   UNL     1     -57.327 -38.819  10.867 -0.13 +0.00    +0.251 C  
DOCKED: BRANCH  14  15
DOCKED: ATOM     15  N   UNL     1     -57.590 -39.241  12.238 -0.13 +0.00    +0.141 N  
DOCKED: ATOM     16  C   UNL     1     -58.991 -39.634  12.397 -0.09 +0.00    +0.285 C  
DOCKED: ATOM     17  C   UNL     1     -56.707 -40.346  12.616 -0.14 +0.00    +0.285 C  
DOCKED: ENDBRANCH  14  15
DOCKED: ENDBRANCH  13  14
DOCKED: ENDBRANCH  12  13
DOCKED: ENDBRANCH   2  12
DOCKED: BRANCH   2  18
DOCKED: ATOM     18  C   UNL     1     -58.360 -36.428   8.472 -0.11 +0.00    +0.006 A  
DOCKED: ATOM     19  C   UNL     1     -57.599 -35.536   7.719 -0.17 +0.00    +0.001 A  
DOCKED: ATOM     20  C   UNL     1     -57.542 -34.190   8.082 -0.09 +0.00    +0.029 A  
DOCKED: ATOM     21  C   UNL     1     -58.247 -33.738   9.197 -0.02 +0.00    +0.140 A  
DOCKED: ATOM     22  C   UNL     1     -59.008 -34.632   9.950 -0.02 +0.00    +0.029 A  
DOCKED: ATOM     23  F   UNL     1     -58.194 -32.446   9.545 +0.00 -0.00    -0.204 F  
DOCKED: ATOM     24  C   UNL     1     -59.065 -35.978   9.588 -0.05 +0.00    +0.001 A  
DOCKED: ENDBRANCH   2  18
DOCKED: TORSDOF 5
DOCKED: TER
DOCKED: ENDMDL
________________________________________________________________________________


    FINAL DOCKED STATE:
    ________________________


Run:   296 / 512
Time taken for this run:   0.002s

DOCKED: MODEL        296
DOCKED: USER    Run = 296
DOCKED: USER
DOCKED: USER    Estimated Free Energy of Binding    =  -4.85 kcal/mol  [=(1)+(2)+(3)-(4)]
DOCKED: USER
DOCKED: USER    (1) Final Intermolecular Energy     =  -6.34 kcal/mol
DOCKED: USER        vdW + Hbond + desolv Energy     =  -6.34 kcal/mol
DOCKED: USER        Electrostatic Energy            =  +0.00 kcal/mol
DOCKED: USER        Moving Ligand-Fixed Receptor    =  -6.34 kcal/mol
DOCKED: USER        Moving Ligand-Moving Receptor   =  +0.00 kcal/mol
DOCKED: USER    (2) Final Total Internal Energy     =  -1.14 kcal/mol
DOCKED: USER    (3) Torsional Free Energy           =  +1.49 kcal/mol
DOCKED: USER    (4) Unbound System's Energy         =  -1.14 kcal/mol
DOCKED: USER
DOCKED: USER
DOCKED: REMARK  5 active torsions:
DOCKED: REMARK  status: ('A' for Active; 'I' for Inactive)
DOCKED: REMARK    1  A    between atoms: C_2  and  C_19 
DOCKED: REMARK    2  A    between atoms: C_2  and  C_11 
DOCKED: REMARK    3  A    between atoms: C_19  and  C_20 
DOCKED: REMARK    4  A    between atoms: C_20  and  C_21 
DOCKED: REMARK    5  A    between atoms: C_21  and  N_22 
DOCKED: USER                              x       y       z     vdW  Elec       q    Type
DOCKED: USER                           _______ _______ _______ _____ _____    ______ ____
DOCKED: ROOT
DOCKED: ATOM      1  O   UNL     1     -53.029 -29.814  -0.015 -0.03 -0.00    -0.346 OA 
DOCKED: ATOM      2  C   UNL     1     -54.447 -29.970   0.312 -0.17 +0.00    +0.130 C  
DOCKED: ATOM      3  C   UNL     1     -55.155 -29.275  -0.815 -0.27 +0.00    +0.004 A  
DOCKED: ATOM      4  C   UNL     1     -54.230 -28.856  -1.760 -0.23 +0.00    +0.006 A  
DOCKED: ATOM      5  C   UNL     1     -52.867 -29.249  -1.337 -0.10 +0.00    +0.169 C  
DOCKED: ATOM      6  C   UNL     1     -56.511 -29.043  -0.994 -0.12 -0.00    -0.001 A  
DOCKED: ATOM      7  C   UNL     1     -54.624 -28.191  -2.908 -0.29 +0.00    +0.008 A  
DOCKED: ATOM      8  C   UNL     1     -56.924 -28.369  -2.145 -0.36 +0.00    +0.010 A  
DOCKED: ATOM      9  C   UNL     1     -55.985 -27.946  -3.098 -0.31 +0.00    +0.068 A  
DOCKED: ATOM     10  N   UNL     1     -56.785 -26.703  -5.225 -2.47 -0.00    -0.191 NA 
DOCKED: ATOM     11  C   UNL     1     -56.426 -27.260  -4.271 -0.38 +0.00    +0.101 C  
DOCKED: ENDROOT
DOCKED: BRANCH   2  12
DOCKED: ATOM     12  C   UNL     1     -54.765 -31.458   0.385 -0.20 +0.00    +0.038 C  
DOCKED: BRANCH  12  13
DOCKED: ATOM     13  C   UNL     1     -53.618 -32.242   1.020 -0.11 +0.00    +0.038 C  
DOCKED: BRANCH  13  14
DOCKED: ATOM     14  C   UNL     1     -53.208 -33.424   0.144 -0.13 +0.00    +0.251 C  
DOCKED: BRANCH  14  15
DOCKED: ATOM     15  N   UNL     1     -51.930 -33.156  -0.504 -0.05 +0.00    +0.141 N  
DOCKED: ATOM     16  C   UNL     1     -51.204 -32.099   0.203 -0.00 +0.00    +0.285 C  
DOCKED: ATOM     17  C   UNL     1     -51.119 -34.373  -0.568 -0.05 +0.00    +0.285 C  
DOCKED: ENDBRANCH  14  15
DOCKED: ENDBRANCH  13  14
DOCKED: ENDBRANCH  12  13
DOCKED: ENDBRANCH   2  12
DOCKED: BRANCH   2  18
DOCKED: ATOM     18  C   UNL     1     -54.665 -29.308   1.632 -0.18 +0.00    +0.006 A  
DOCKED: ATOM     19  C   UNL     1     -53.594 -29.127   2.506 -0.14 +0.00    +0.001 A  
DOCKED: ATOM     20  C   UNL     1     -53.799 -28.508   3.740 -0.10 +0.00    +0.029 A  
DOCKED: ATOM     21  C   UNL     1     -55.074 -28.071   4.097 -0.13 +0.00    +0.140 A  
DOCKED: ATOM     22  C   UNL     1     -56.144 -28.252   3.222 -0.22 +0.00    +0.029 A  
DOCKED: ATOM     23  F   UNL     1     -55.270 -27.475   5.281 -0.04 -0.00    -0.204 F  
DOCKED: ATOM     24  C   UNL     1     -55.940 -28.871   1.988 -0.24 +0.00    +0.001 A  
DOCKED: ENDBRANCH   2  18
DOCKED: TORSDOF 5
DOCKED: TER
DOCKED: ENDMDL
________________________________________________________________________________


    FINAL DOCKED STATE:
    ________________________


Run:   297 / 512
Time taken for this run:   0.002s

DOCKED: MODEL        297
DOCKED: USER    Run = 297
DOCKED: USER
DOCKED: USER    Estimated Free Energy of Binding    =  -5.28 kcal/mol  [=(1)+(2)+(3)-(4)]
DOCKED: USER
DOCKED: USER    (1) Final Intermolecular Energy     =  -6.77 kcal/mol
DOCKED: USER        vdW + Hbond + desolv Energy     =  -6.77 kcal/mol
DOCKED: USER        Electrostatic Energy            =  +0.00 kcal/mol
DOCKED: USER        Moving Ligand-Fixed Receptor    =  -6.77 kcal/mol
DOCKED: USER        Moving Ligand-Moving Receptor   =  +0.00 kcal/mol
DOCKED: USER    (2) Final Total Internal Energy     =  -1.05 kcal/mol
DOCKED: USER    (3) Torsional Free Energy           =  +1.49 kcal/mol
DOCKED: USER    (4) Unbound System's Energy         =  -1.05 kcal/mol
DOCKED: USER
DOCKED: USER
DOCKED: REMARK  5 active torsions:
DOCKED: REMARK  status: ('A' for Active; 'I' for Inactive)
DOCKED: REMARK    1  A    between atoms: C_2  and  C_19 
DOCKED: REMARK    2  A    between atoms: C_2  and  C_11 
DOCKED: REMARK    3  A    between atoms: C_19  and  C_20 
DOCKED: REMARK    4  A    between atoms: C_20  and  C_21 
DOCKED: REMARK    5  A    between atoms: C_21  and  N_22 
DOCKED: USER                              x       y       z     vdW  Elec       q    Type
DOCKED: USER                           _______ _______ _______ _____ _____    ______ ____
DOCKED: ROOT
DOCKED: ATOM      1  O   UNL     1     -59.192 -38.884   8.725 -0.10 -0.00    -0.346 OA 
DOCKED: ATOM      2  C   UNL     1     -58.655 -37.615   8.230 -0.14 +0.00    +0.130 C  
DOCKED: ATOM      3  C   UNL     1     -58.803 -37.719   6.740 -0.28 +0.00    +0.004 A  
DOCKED: ATOM      4  C   UNL     1     -59.467 -38.895   6.418 -0.31 +0.00    +0.006 A  
DOCKED: ATOM      5  C   UNL     1     -59.811 -39.633   7.654 -0.10 +0.00    +0.169 C  
DOCKED: ATOM      6  C   UNL     1     -58.393 -36.839   5.749 -0.34 -0.00    -0.001 A  
DOCKED: ATOM      7  C   UNL     1     -59.739 -39.231   5.103 -0.43 +0.00    +0.008 A  
DOCKED: ATOM      8  C   UNL     1     -58.657 -37.166   4.418 -0.03 +0.00    +0.010 A  
DOCKED: ATOM      9  C   UNL     1     -59.327 -38.356   4.097 -0.41 +0.00    +0.068 A  
DOCKED: ATOM     10  N   UNL     1     -59.804 -38.931   1.616 -2.91 -0.00    -0.191 NA 
DOCKED: ATOM     11  C   UNL     1     -59.589 -38.673   2.728 -0.36 +0.00    +0.101 C  
DOCKED: ENDROOT
DOCKED: BRANCH   2  12
DOCKED: ATOM     12  C   UNL     1     -59.473 -36.478   8.830 -0.09 +0.00    +0.038 C  
DOCKED: BRANCH  12  13
DOCKED: ATOM     13  C   UNL     1     -59.514 -35.269   7.897 -0.15 +0.00    +0.038 C  
DOCKED: BRANCH  13  14
DOCKED: ATOM     14  C   UNL     1     -58.281 -34.387   8.086 -0.07 +0.00    +0.251 C  
DOCKED: BRANCH  14  15
DOCKED: ATOM     15  N   UNL     1     -58.053 -33.572   6.899 -0.14 +0.00    +0.141 N  
DOCKED: ATOM     16  C   UNL     1     -58.102 -32.148   7.233 -0.07 +0.00    +0.285 C  
DOCKED: ATOM     17  C   UNL     1     -56.767 -33.905   6.284 -0.10 +0.00    +0.285 C  
DOCKED: ENDBRANCH  14  15
DOCKED: ENDBRANCH  13  14
DOCKED: ENDBRANCH  12  13
DOCKED: ENDBRANCH   2  12
DOCKED: BRANCH   2  18
DOCKED: ATOM     18  C   UNL     1     -57.230 -37.544   8.669 -0.18 +0.00    +0.006 A  
DOCKED: ATOM     19  C   UNL     1     -56.924 -37.238   9.995 -0.11 +0.00    +0.001 A  
DOCKED: ATOM     20  C   UNL     1     -55.592 -37.171  10.404 -0.10 +0.00    +0.029 A  
DOCKED: ATOM     21  C   UNL     1     -54.568 -37.410   9.488 -0.09 +0.00    +0.140 A  
DOCKED: ATOM     22  C   UNL     1     -54.875 -37.717   8.163 -0.02 +0.00    +0.029 A  
DOCKED: ATOM     23  F   UNL     1     -53.290 -37.348   9.881 -0.02 -0.00    -0.204 F  
DOCKED: ATOM     24  C   UNL     1     -56.208 -37.783   7.752 -0.23 +0.00    +0.001 A  
DOCKED: ENDBRANCH   2  18
DOCKED: TORSDOF 5
DOCKED: TER
DOCKED: ENDMDL
________________________________________________________________________________


    FINAL DOCKED STATE:
    ________________________


Run:   298 / 512
Time taken for this run:   0.002s

DOCKED: MODEL        298
DOCKED: USER    Run = 298
DOCKED: USER
DOCKED: USER    Estimated Free Energy of Binding    =  -4.06 kcal/mol  [=(1)+(2)+(3)-(4)]
DOCKED: USER
DOCKED: USER    (1) Final Intermolecular Energy     =  -5.55 kcal/mol
DOCKED: USER        vdW + Hbond + desolv Energy     =  -5.55 kcal/mol
DOCKED: USER        Electrostatic Energy            =  +0.00 kcal/mol
DOCKED: USER        Moving Ligand-Fixed Receptor    =  -5.55 kcal/mol
DOCKED: USER        Moving Ligand-Moving Receptor   =  +0.00 kcal/mol
DOCKED: USER    (2) Final Total Internal Energy     =  -1.43 kcal/mol
DOCKED: USER    (3) Torsional Free Energy           =  +1.49 kcal/mol
DOCKED: USER    (4) Unbound System's Energy         =  -1.43 kcal/mol
DOCKED: USER
DOCKED: USER
DOCKED: REMARK  5 active torsions:
DOCKED: REMARK  status: ('A' for Active; 'I' for Inactive)
DOCKED: REMARK    1  A    between atoms: C_2  and  C_19 
DOCKED: REMARK    2  A    between atoms: C_2  and  C_11 
DOCKED: REMARK    3  A    between atoms: C_19  and  C_20 
DOCKED: REMARK    4  A    between atoms: C_20  and  C_21 
DOCKED: REMARK    5  A    between atoms: C_21  and  N_22 
DOCKED: USER                              x       y       z     vdW  Elec       q    Type
DOCKED: USER                           _______ _______ _______ _____ _____    ______ ____
DOCKED: ROOT
DOCKED: ATOM      1  O   UNL     1     -55.053 -35.900   8.595 -0.07 -0.00    -0.346 OA 
DOCKED: ATOM      2  C   UNL     1     -56.220 -35.080   8.264 -0.11 +0.00    +0.130 C  
DOCKED: ATOM      3  C   UNL     1     -57.146 -36.037   7.570 -0.20 +0.00    +0.004 A  
DOCKED: ATOM      4  C   UNL     1     -56.606 -37.314   7.600 -0.25 +0.00    +0.006 A  
DOCKED: ATOM      5  C   UNL     1     -55.310 -37.295   8.316 -0.17 +0.00    +0.169 C  
DOCKED: ATOM      6  C   UNL     1     -58.374 -35.797   6.971 -0.24 -0.00    -0.001 A  
DOCKED: ATOM      7  C   UNL     1     -57.267 -38.390   7.032 -0.34 +0.00    +0.008 A  
DOCKED: ATOM      8  C   UNL     1     -59.051 -36.870   6.390 -0.28 +0.00    +0.010 A  
DOCKED: ATOM      9  C   UNL     1     -58.500 -38.160   6.421 -0.29 +0.00    +0.068 A  
DOCKED: ATOM     10  N   UNL     1     -59.786 -40.131   5.337 -2.55 -0.00    -0.191 NA 
DOCKED: ATOM     11  C   UNL     1     -59.209 -39.247   5.822 -0.36 +0.00    +0.101 C  
DOCKED: ENDROOT
DOCKED: BRANCH   2  12
DOCKED: ATOM     12  C   UNL     1     -56.802 -34.524   9.558 -0.04 +0.00    +0.038 C  
DOCKED: BRANCH  12  13
DOCKED: ATOM     13  C   UNL     1     -56.595 -35.491  10.723 -0.03 +0.00    +0.038 C  
DOCKED: BRANCH  13  14
DOCKED: ATOM     14  C   UNL     1     -57.933 -35.972  11.281 -0.01 +0.00    +0.251 C  
DOCKED: BRANCH  14  15
DOCKED: ATOM     15  N   UNL     1     -57.972 -37.429  11.323 -0.04 +0.00    +0.141 N  
DOCKED: ATOM     16  C   UNL     1     -58.775 -37.955  10.219 -0.05 +0.00    +0.285 C  
DOCKED: ATOM     17  C   UNL     1     -56.617 -37.982  11.274 -0.07 +0.00    +0.285 C  
DOCKED: ENDBRANCH  14  15
DOCKED: ENDBRANCH  13  14
DOCKED: ENDBRANCH  12  13
DOCKED: ENDBRANCH   2  12
DOCKED: BRANCH   2  18
DOCKED: ATOM     18  C   UNL     1     -55.743 -33.982   7.373 -0.13 +0.00    +0.006 A  
DOCKED: ATOM     19  C   UNL     1     -55.923 -32.652   7.749 -0.06 +0.00    +0.001 A  
DOCKED: ATOM     20  C   UNL     1     -55.477 -31.626   6.914 -0.04 +0.00    +0.029 A  
DOCKED: ATOM     21  C   UNL     1     -54.852 -31.932   5.706 -0.06 +0.00    +0.140 A  
DOCKED: ATOM     22  C   UNL     1     -54.673 -33.263   5.331 -0.14 +0.00    +0.029 A  
DOCKED: ATOM     23  F   UNL     1     -54.423 -30.948   4.906 -0.00 -0.00    -0.204 F  
DOCKED: ATOM     24  C   UNL     1     -55.119 -34.290   6.165 -0.02 +0.00    +0.001 A  
DOCKED: ENDBRANCH   2  18
DOCKED: TORSDOF 5
DOCKED: TER
DOCKED: ENDMDL
________________________________________________________________________________


    FINAL DOCKED STATE:
    ________________________


Run:   299 / 512
Time taken for this run:   0.002s

DOCKED: MODEL        299
DOCKED: USER    Run = 299
DOCKED: USER
DOCKED: USER    Estimated Free Energy of Binding    =  -4.43 kcal/mol  [=(1)+(2)+(3)-(4)]
DOCKED: USER
DOCKED: USER    (1) Final Intermolecular Energy     =  -5.92 kcal/mol
DOCKED: USER        vdW + Hbond + desolv Energy     =  -5.92 kcal/mol
DOCKED: USER        Electrostatic Energy            =  +0.00 kcal/mol
DOCKED: USER        Moving Ligand-Fixed Receptor    =  -5.92 kcal/mol
DOCKED: USER        Moving Ligand-Moving Receptor   =  +0.00 kcal/mol
DOCKED: USER    (2) Final Total Internal Energy     =  -1.17 kcal/mol
DOCKED: USER    (3) Torsional Free Energy           =  +1.49 kcal/mol
DOCKED: USER    (4) Unbound System's Energy         =  -1.17 kcal/mol
DOCKED: USER
DOCKED: USER
DOCKED: REMARK  5 active torsions:
DOCKED: REMARK  status: ('A' for Active; 'I' for Inactive)
DOCKED: REMARK    1  A    between atoms: C_2  and  C_19 
DOCKED: REMARK    2  A    between atoms: C_2  and  C_11 
DOCKED: REMARK    3  A    between atoms: C_19  and  C_20 
DOCKED: REMARK    4  A    between atoms: C_20  and  C_21 
DOCKED: REMARK    5  A    between atoms: C_21  and  N_22 
DOCKED: USER                              x       y       z     vdW  Elec       q    Type
DOCKED: USER                           _______ _______ _______ _____ _____    ______ ____
DOCKED: ROOT
DOCKED: ATOM      1  O   UNL     1     -54.287 -29.991   0.165 -0.06 -0.00    -0.346 OA 
DOCKED: ATOM      2  C   UNL     1     -53.200 -29.907  -0.811 -0.11 +0.00    +0.130 C  
DOCKED: ATOM      3  C   UNL     1     -53.817 -29.186  -1.975 -0.20 +0.00    +0.004 A  
DOCKED: ATOM      4  C   UNL     1     -55.108 -28.794  -1.650 -0.29 +0.00    +0.006 A  
DOCKED: ATOM      5  C   UNL     1     -55.427 -29.211  -0.266 -0.19 +0.00    +0.169 C  
DOCKED: ATOM      6  C   UNL     1     -53.275 -28.890  -3.217 -0.16 -0.00    -0.001 A  
DOCKED: ATOM      7  C   UNL     1     -55.899 -28.102  -2.551 -0.38 +0.00    +0.008 A  
DOCKED: ATOM      8  C   UNL     1     -54.062 -28.196  -4.138 -0.24 +0.00    +0.010 A  
DOCKED: ATOM      9  C   UNL     1     -55.367 -27.804  -3.806 -0.27 +0.00    +0.068 A  
DOCKED: ATOM     10  N   UNL     1     -56.798 -26.512  -5.537 -2.55 -0.00    -0.191 NA 
DOCKED: ATOM     11  C   UNL     1     -56.157 -27.092  -4.761 -0.35 +0.00    +0.101 C  
DOCKED: ENDROOT
DOCKED: BRANCH   2  12
DOCKED: ATOM     12  C   UNL     1     -52.045 -29.139  -0.182 -0.10 +0.00    +0.038 C  
DOCKED: BRANCH  12  13
DOCKED: ATOM     13  C   UNL     1     -50.927 -28.887  -1.192 -0.04 +0.00    +0.038 C  
DOCKED: BRANCH  13  14
DOCKED: ATOM     14  C   UNL     1     -50.196 -27.581  -0.889 -0.03 +0.00    +0.251 C  
DOCKED: BRANCH  14  15
DOCKED: ATOM     15  N   UNL     1     -50.763 -26.489  -1.671 -0.05 +0.00    +0.141 N  
DOCKED: ATOM     16  C   UNL     1     -50.786 -26.831  -3.094 -0.00 +0.00    +0.285 C  
DOCKED: ATOM     17  C   UNL     1     -52.113 -26.167  -1.204 -0.11 +0.00    +0.285 C  
DOCKED: ENDBRANCH  14  15
DOCKED: ENDBRANCH  13  14
DOCKED: ENDBRANCH  12  13
DOCKED: ENDBRANCH   2  12
DOCKED: BRANCH   2  18
DOCKED: ATOM     18  C   UNL     1     -52.800 -31.307  -1.140 -0.09 +0.00    +0.006 A  
DOCKED: ATOM     19  C   UNL     1     -51.739 -31.906  -0.462 -0.03 +0.00    +0.001 A  
DOCKED: ATOM     20  C   UNL     1     -51.366 -33.214  -0.771 -0.04 +0.00    +0.029 A  
DOCKED: ATOM     21  C   UNL     1     -52.054 -33.922  -1.756 -0.13 +0.00    +0.140 A  
DOCKED: ATOM     22  C   UNL     1     -53.116 -33.322  -2.433 -0.22 +0.00    +0.029 A  
DOCKED: ATOM     23  F   UNL     1     -51.697 -35.178  -2.051 -0.07 -0.00    -0.204 F  
DOCKED: ATOM     24  C   UNL     1     -53.490 -32.013  -2.125 -0.20 +0.00    +0.001 A  
DOCKED: ENDBRANCH   2  18
DOCKED: TORSDOF 5
DOCKED: TER
DOCKED: ENDMDL
________________________________________________________________________________


    FINAL DOCKED STATE:
    ________________________


Run:   300 / 512
Time taken for this run:   0.002s

DOCKED: MODEL        300
DOCKED: USER    Run = 300
DOCKED: USER
DOCKED: USER    Estimated Free Energy of Binding    =  -3.60 kcal/mol  [=(1)+(2)+(3)-(4)]
DOCKED: USER
DOCKED: USER    (1) Final Intermolecular Energy     =  -5.09 kcal/mol
DOCKED: USER        vdW + Hbond + desolv Energy     =  -5.09 kcal/mol
DOCKED: USER        Electrostatic Energy            =  +0.00 kcal/mol
DOCKED: USER        Moving Ligand-Fixed Receptor    =  -5.09 kcal/mol
DOCKED: USER        Moving Ligand-Moving Receptor   =  +0.00 kcal/mol
DOCKED: USER    (2) Final Total Internal Energy     =  -1.27 kcal/mol
DOCKED: USER    (3) Torsional Free Energy           =  +1.49 kcal/mol
DOCKED: USER    (4) Unbound System's Energy         =  -1.27 kcal/mol
DOCKED: USER
DOCKED: USER
DOCKED: REMARK  5 active torsions:
DOCKED: REMARK  status: ('A' for Active; 'I' for Inactive)
DOCKED: REMARK    1  A    between atoms: C_2  and  C_19 
DOCKED: REMARK    2  A    between atoms: C_2  and  C_11 
DOCKED: REMARK    3  A    between atoms: C_19  and  C_20 
DOCKED: REMARK    4  A    between atoms: C_20  and  C_21 
DOCKED: REMARK    5  A    between atoms: C_21  and  N_22 
DOCKED: USER                              x       y       z     vdW  Elec       q    Type
DOCKED: USER                           _______ _______ _______ _____ _____    ______ ____
DOCKED: ROOT
DOCKED: ATOM      1  O   UNL     1     -50.385 -25.073  -5.254 -0.03 -0.00    -0.346 OA 
DOCKED: ATOM      2  C   UNL     1     -50.671 -25.314  -3.839 -0.08 +0.00    +0.130 C  
DOCKED: ATOM      3  C   UNL     1     -52.108 -25.747  -3.831 -0.14 +0.00    +0.004 A  
DOCKED: ATOM      4  C   UNL     1     -52.572 -25.852  -5.135 -0.19 +0.00    +0.006 A  
DOCKED: ATOM      5  C   UNL     1     -51.486 -25.513  -6.082 -0.01 +0.00    +0.169 C  
DOCKED: ATOM      6  C   UNL     1     -52.936 -26.037  -2.756 -0.22 -0.00    -0.001 A  
DOCKED: ATOM      7  C   UNL     1     -53.871 -26.242  -5.409 -0.27 +0.00    +0.008 A  
DOCKED: ATOM      8  C   UNL     1     -54.251 -26.428  -3.016 -0.32 +0.00    +0.010 A  
DOCKED: ATOM      9  C   UNL     1     -54.716 -26.531  -4.335 -0.35 +0.00    +0.068 A  
DOCKED: ATOM     10  N   UNL     1     -57.160 -27.265  -4.782 -2.52 -0.00    -0.191 NA 
DOCKED: ATOM     11  C   UNL     1     -56.064 -26.935  -4.582 -0.42 +0.00    +0.101 C  
DOCKED: ENDROOT
DOCKED: BRANCH   2  12
DOCKED: ATOM     12  C   UNL     1     -49.723 -26.395  -3.333 -0.03 +0.00    +0.038 C  
DOCKED: BRANCH  12  13
DOCKED: ATOM     13  C   UNL     1     -49.714 -27.608  -4.261 -0.02 +0.00    +0.038 C  
DOCKED: BRANCH  13  14
DOCKED: ATOM     14  C   UNL     1     -50.415 -28.800  -3.613 +0.00 +0.00    +0.251 C  
DOCKED: BRANCH  14  15
DOCKED: ATOM     15  N   UNL     1     -51.044 -29.634  -4.630 -0.02 +0.00    +0.141 N  
DOCKED: ATOM     16  C   UNL     1     -50.033 -30.239  -5.499 -0.00 +0.00    +0.285 C  
DOCKED: ATOM     17  C   UNL     1     -51.868 -30.672  -4.009 -0.05 +0.00    +0.285 C  
DOCKED: ENDBRANCH  14  15
DOCKED: ENDBRANCH  13  14
DOCKED: ENDBRANCH  12  13
DOCKED: ENDBRANCH   2  12
DOCKED: BRANCH   2  18
DOCKED: ATOM     18  C   UNL     1     -50.448 -24.024  -3.123 -0.09 +0.00    +0.006 A  
DOCKED: ATOM     19  C   UNL     1     -49.426 -23.918  -2.180 -0.03 +0.00    +0.001 A  
DOCKED: ATOM     20  C   UNL     1     -49.220 -22.711  -1.511 -0.02 +0.00    +0.029 A  
DOCKED: ATOM     21  C   UNL     1     -50.034 -21.613  -1.785 -0.02 +0.00    +0.140 A  
DOCKED: ATOM     22  C   UNL     1     -51.056 -21.720  -2.728 -0.11 +0.00    +0.029 A  
DOCKED: ATOM     23  F   UNL     1     -49.834 -20.454  -1.144 +0.01 -0.00    -0.204 F  
DOCKED: ATOM     24  C   UNL     1     -51.264 -22.927  -3.398 -0.16 +0.00    +0.001 A  
DOCKED: ENDBRANCH   2  18
DOCKED: TORSDOF 5
DOCKED: TER
DOCKED: ENDMDL
________________________________________________________________________________


    FINAL DOCKED STATE:
    ________________________


Run:   301 / 512
Time taken for this run:   0.002s

DOCKED: MODEL        301
DOCKED: USER    Run = 301
DOCKED: USER
DOCKED: USER    Estimated Free Energy of Binding    =  -3.85 kcal/mol  [=(1)+(2)+(3)-(4)]
DOCKED: USER
DOCKED: USER    (1) Final Intermolecular Energy     =  -5.34 kcal/mol
DOCKED: USER        vdW + Hbond + desolv Energy     =  -5.34 kcal/mol
DOCKED: USER        Electrostatic Energy            =  +0.00 kcal/mol
DOCKED: USER        Moving Ligand-Fixed Receptor    =  -5.34 kcal/mol
DOCKED: USER        Moving Ligand-Moving Receptor   =  +0.00 kcal/mol
DOCKED: USER    (2) Final Total Internal Energy     =  -1.32 kcal/mol
DOCKED: USER    (3) Torsional Free Energy           =  +1.49 kcal/mol
DOCKED: USER    (4) Unbound System's Energy         =  -1.32 kcal/mol
DOCKED: USER
DOCKED: USER
DOCKED: REMARK  5 active torsions:
DOCKED: REMARK  status: ('A' for Active; 'I' for Inactive)
DOCKED: REMARK    1  A    between atoms: C_2  and  C_19 
DOCKED: REMARK    2  A    between atoms: C_2  and  C_11 
DOCKED: REMARK    3  A    between atoms: C_19  and  C_20 
DOCKED: REMARK    4  A    between atoms: C_20  and  C_21 
DOCKED: REMARK    5  A    between atoms: C_21  and  N_22 
DOCKED: USER                              x       y       z     vdW  Elec       q    Type
DOCKED: USER                           _______ _______ _______ _____ _____    ______ ____
DOCKED: ROOT
DOCKED: ATOM      1  O   UNL     1     -55.949 -34.279   7.168 -0.07 -0.00    -0.346 OA 
DOCKED: ATOM      2  C   UNL     1     -55.637 -35.335   8.132 -0.12 +0.00    +0.130 C  
DOCKED: ATOM      3  C   UNL     1     -56.501 -36.484   7.698 -0.20 +0.00    +0.004 A  
DOCKED: ATOM      4  C   UNL     1     -57.165 -36.152   6.525 -0.20 +0.00    +0.006 A  
DOCKED: ATOM      5  C   UNL     1     -56.783 -34.786   6.101 -0.11 +0.00    +0.169 C  
DOCKED: ATOM      6  C   UNL     1     -56.677 -37.727   8.287 -0.24 -0.00    -0.001 A  
DOCKED: ATOM      7  C   UNL     1     -58.025 -37.043   5.907 -0.32 +0.00    +0.008 A  
DOCKED: ATOM      8  C   UNL     1     -57.544 -38.636   7.679 -0.31 +0.00    +0.010 A  
DOCKED: ATOM      9  C   UNL     1     -58.215 -38.295   6.494 -0.31 +0.00    +0.068 A  
DOCKED: ATOM     10  N   UNL     1     -59.814 -40.007   5.387 -2.52 -0.00    -0.191 NA 
DOCKED: ATOM     11  C   UNL     1     -59.097 -39.239   5.884 -0.34 +0.00    +0.101 C  
DOCKED: ENDROOT
DOCKED: BRANCH   2  12
DOCKED: ATOM     12  C   UNL     1     -54.148 -35.646   8.042 -0.12 +0.00    +0.038 C  
DOCKED: BRANCH  12  13
DOCKED: ATOM     13  C   UNL     1     -53.323 -34.372   7.866 -0.09 +0.00    +0.038 C  
DOCKED: BRANCH  13  14
DOCKED: ATOM     14  C   UNL     1     -52.562 -34.389   6.542 -0.07 +0.00    +0.251 C  
DOCKED: BRANCH  14  15
DOCKED: ATOM     15  N   UNL     1     -52.976 -33.270   5.705 -0.06 +0.00    +0.141 N  
DOCKED: ATOM     16  C   UNL     1     -53.632 -33.750   4.488 -0.08 +0.00    +0.285 C  
DOCKED: ATOM     17  C   UNL     1     -53.869 -32.376   6.444 -0.03 +0.00    +0.285 C  
DOCKED: ENDBRANCH  14  15
DOCKED: ENDBRANCH  13  14
DOCKED: ENDBRANCH  12  13
DOCKED: ENDBRANCH   2  12
DOCKED: BRANCH   2  18
DOCKED: ATOM     18  C   UNL     1     -55.998 -34.814   9.483 -0.04 +0.00    +0.006 A  
DOCKED: ATOM     19  C   UNL     1     -56.297 -33.463   9.651 -0.02 +0.00    +0.001 A  
DOCKED: ATOM     20  C   UNL     1     -56.634 -32.977  10.915 -0.00 +0.00    +0.029 A  
DOCKED: ATOM     21  C   UNL     1     -56.672 -33.842  12.008 -0.00 +0.00    +0.140 A  
DOCKED: ATOM     22  C   UNL     1     -56.373 -35.193  11.838 -0.01 +0.00    +0.029 A  
DOCKED: ATOM     23  F   UNL     1     -56.997 -33.375  13.220 +0.00 -0.00    -0.204 F  
DOCKED: ATOM     24  C   UNL     1     -56.035 -35.681  10.575 -0.04 +0.00    +0.001 A  
DOCKED: ENDBRANCH   2  18
DOCKED: TORSDOF 5
DOCKED: TER
DOCKED: ENDMDL
________________________________________________________________________________


    FINAL DOCKED STATE:
    ________________________


Run:   302 / 512
Time taken for this run:   0.002s

DOCKED: MODEL        302
DOCKED: USER    Run = 302
DOCKED: USER
DOCKED: USER    Estimated Free Energy of Binding    =  -5.51 kcal/mol  [=(1)+(2)+(3)-(4)]
DOCKED: USER
DOCKED: USER    (1) Final Intermolecular Energy     =  -7.00 kcal/mol
DOCKED: USER        vdW + Hbond + desolv Energy     =  -7.00 kcal/mol
DOCKED: USER        Electrostatic Energy            =  +0.00 kcal/mol
DOCKED: USER        Moving Ligand-Fixed Receptor    =  -7.00 kcal/mol
DOCKED: USER        Moving Ligand-Moving Receptor   =  +0.00 kcal/mol
DOCKED: USER    (2) Final Total Internal Energy     =  -1.27 kcal/mol
DOCKED: USER    (3) Torsional Free Energy           =  +1.49 kcal/mol
DOCKED: USER    (4) Unbound System's Energy         =  -1.27 kcal/mol
DOCKED: USER
DOCKED: USER
DOCKED: REMARK  5 active torsions:
DOCKED: REMARK  status: ('A' for Active; 'I' for Inactive)
DOCKED: REMARK    1  A    between atoms: C_2  and  C_19 
DOCKED: REMARK    2  A    between atoms: C_2  and  C_11 
DOCKED: REMARK    3  A    between atoms: C_19  and  C_20 
DOCKED: REMARK    4  A    between atoms: C_20  and  C_21 
DOCKED: REMARK    5  A    between atoms: C_21  and  N_22 
DOCKED: USER                              x       y       z     vdW  Elec       q    Type
DOCKED: USER                           _______ _______ _______ _____ _____    ______ ____
DOCKED: ROOT
DOCKED: ATOM      1  O   UNL     1     -57.742 -36.294   7.985 -0.04 -0.00    -0.346 OA 
DOCKED: ATOM      2  C   UNL     1     -58.149 -37.694   8.112 -0.17 +0.00    +0.130 C  
DOCKED: ATOM      3  C   UNL     1     -58.581 -38.070   6.724 -0.30 +0.00    +0.004 A  
DOCKED: ATOM      4  C   UNL     1     -58.337 -37.015   5.857 -0.34 +0.00    +0.006 A  
DOCKED: ATOM      5  C   UNL     1     -57.725 -35.888   6.596 -0.24 +0.00    +0.169 C  
DOCKED: ATOM      6  C   UNL     1     -59.134 -39.256   6.264 -0.27 -0.00    -0.001 A  
DOCKED: ATOM      7  C   UNL     1     -58.640 -37.105   4.509 -0.03 +0.00    +0.008 A  
DOCKED: ATOM      8  C   UNL     1     -59.449 -39.362   4.908 -0.46 +0.00    +0.010 A  
DOCKED: ATOM      9  C   UNL     1     -59.203 -38.291   4.035 -0.41 +0.00    +0.068 A  
DOCKED: ATOM     10  N   UNL     1     -59.794 -38.522   1.523 -3.17 -0.00    -0.191 NA 
DOCKED: ATOM     11  C   UNL     1     -59.529 -38.418   2.650 -0.37 +0.00    +0.101 C  
DOCKED: ENDROOT
DOCKED: BRANCH   2  12
DOCKED: ATOM     12  C   UNL     1     -56.954 -38.502   8.602 -0.22 +0.00    +0.038 C  
DOCKED: BRANCH  12  13
DOCKED: ATOM     13  C   UNL     1     -56.198 -37.766   9.707 -0.15 +0.00    +0.038 C  
DOCKED: BRANCH  13  14
DOCKED: ATOM     14  C   UNL     1     -54.839 -37.277   9.211 -0.10 +0.00    +0.251 C  
DOCKED: BRANCH  14  15
DOCKED: ATOM     15  N   UNL     1     -54.975 -35.981   8.555 -0.11 +0.00    +0.141 N  
DOCKED: ATOM     16  C   UNL     1     -55.461 -34.974   9.499 -0.03 +0.00    +0.285 C  
DOCKED: ATOM     17  C   UNL     1     -53.698 -35.560   7.976 -0.07 +0.00    +0.285 C  
DOCKED: ENDBRANCH  14  15
DOCKED: ENDBRANCH  13  14
DOCKED: ENDBRANCH  12  13
DOCKED: ENDBRANCH   2  12
DOCKED: BRANCH   2  18
DOCKED: ATOM     18  C   UNL     1     -59.267 -37.734   9.100 -0.11 +0.00    +0.006 A  
DOCKED: ATOM     19  C   UNL     1     -59.396 -36.721  10.049 -0.05 +0.00    +0.001 A  
DOCKED: ATOM     20  C   UNL     1     -60.441 -36.760  10.972 -0.03 +0.00    +0.029 A  
DOCKED: ATOM     21  C   UNL     1     -61.357 -37.811  10.945 -0.03 +0.00    +0.140 A  
DOCKED: ATOM     22  C   UNL     1     -61.228 -38.824   9.995 -0.12 +0.00    +0.029 A  
DOCKED: ATOM     23  F   UNL     1     -62.361 -37.847  11.830 +0.01 -0.00    -0.204 F  
DOCKED: ATOM     24  C   UNL     1     -60.182 -38.786   9.071 -0.18 +0.00    +0.001 A  
DOCKED: ENDBRANCH   2  18
DOCKED: TORSDOF 5
DOCKED: TER
DOCKED: ENDMDL
________________________________________________________________________________


    FINAL DOCKED STATE:
    ________________________


Run:   303 / 512
Time taken for this run:   0.002s

DOCKED: MODEL        303
DOCKED: USER    Run = 303
DOCKED: USER
DOCKED: USER    Estimated Free Energy of Binding    =  -4.94 kcal/mol  [=(1)+(2)+(3)-(4)]
DOCKED: USER
DOCKED: USER    (1) Final Intermolecular Energy     =  -6.44 kcal/mol
DOCKED: USER        vdW + Hbond + desolv Energy     =  -6.44 kcal/mol
DOCKED: USER        Electrostatic Energy            =  +0.00 kcal/mol
DOCKED: USER        Moving Ligand-Fixed Receptor    =  -6.44 kcal/mol
DOCKED: USER        Moving Ligand-Moving Receptor   =  +0.00 kcal/mol
DOCKED: USER    (2) Final Total Internal Energy     =  -1.36 kcal/mol
DOCKED: USER    (3) Torsional Free Energy           =  +1.49 kcal/mol
DOCKED: USER    (4) Unbound System's Energy         =  -1.36 kcal/mol
DOCKED: USER
DOCKED: USER
DOCKED: REMARK  5 active torsions:
DOCKED: REMARK  status: ('A' for Active; 'I' for Inactive)
DOCKED: REMARK    1  A    between atoms: C_2  and  C_19 
DOCKED: REMARK    2  A    between atoms: C_2  and  C_11 
DOCKED: REMARK    3  A    between atoms: C_19  and  C_20 
DOCKED: REMARK    4  A    between atoms: C_20  and  C_21 
DOCKED: REMARK    5  A    between atoms: C_21  and  N_22 
DOCKED: USER                              x       y       z     vdW  Elec       q    Type
DOCKED: USER                           _______ _______ _______ _____ _____    ______ ____
DOCKED: ROOT
DOCKED: ATOM      1  O   UNL     1     -58.137 -36.070   8.112 -0.03 -0.00    -0.346 OA 
DOCKED: ATOM      2  C   UNL     1     -57.442 -37.358   8.081 -0.19 +0.00    +0.130 C  
DOCKED: ATOM      3  C   UNL     1     -57.865 -37.963   6.774 -0.33 +0.00    +0.004 A  
DOCKED: ATOM      4  C   UNL     1     -58.645 -37.056   6.070 -0.33 +0.00    +0.006 A  
DOCKED: ATOM      5  C   UNL     1     -58.779 -35.802   6.844 -0.21 +0.00    +0.169 C  
DOCKED: ATOM      6  C   UNL     1     -57.574 -39.212   6.245 -0.43 -0.00    -0.001 A  
DOCKED: ATOM      7  C   UNL     1     -59.161 -37.365   4.823 -0.16 +0.00    +0.008 A  
DOCKED: ATOM      8  C   UNL     1     -58.091 -39.541   4.991 -0.38 +0.00    +0.010 A  
DOCKED: ATOM      9  C   UNL     1     -58.880 -38.621   4.283 -0.43 +0.00    +0.068 A  
DOCKED: ATOM     10  N   UNL     1     -59.820 -39.261   1.955 -2.36 -0.00    -0.191 NA 
DOCKED: ATOM     11  C   UNL     1     -59.399 -38.974   2.999 -0.48 +0.00    +0.101 C  
DOCKED: ENDROOT
DOCKED: BRANCH   2  12
DOCKED: ATOM     12  C   UNL     1     -55.942 -37.098   8.156 -0.23 +0.00    +0.038 C  
DOCKED: BRANCH  12  13
DOCKED: ATOM     13  C   UNL     1     -55.643 -35.738   8.784 -0.13 +0.00    +0.038 C  
DOCKED: BRANCH  13  14
DOCKED: ATOM     14  C   UNL     1     -55.174 -35.891  10.229 -0.03 +0.00    +0.251 C  
DOCKED: BRANCH  14  15
DOCKED: ATOM     15  N   UNL     1     -56.002 -35.087  11.120 -0.01 +0.00    +0.141 N  
DOCKED: ATOM     16  C   UNL     1     -55.203 -34.044  11.765 -0.00 +0.00    +0.285 C  
DOCKED: ATOM     17  C   UNL     1     -57.119 -34.489  10.386 -0.00 +0.00    +0.285 C  
DOCKED: ENDBRANCH  14  15
DOCKED: ENDBRANCH  13  14
DOCKED: ENDBRANCH  12  13
DOCKED: ENDBRANCH   2  12
DOCKED: BRANCH   2  18
DOCKED: ATOM     18  C   UNL     1     -57.913 -38.137   9.263 -0.17 +0.00    +0.006 A  
DOCKED: ATOM     19  C   UNL     1     -57.215 -39.273   9.672 -0.01 +0.00    +0.001 A  
DOCKED: ATOM     20  C   UNL     1     -57.657 -40.001  10.777 -0.19 +0.00    +0.029 A  
DOCKED: ATOM     21  C   UNL     1     -58.795 -39.593  11.471 -0.10 +0.00    +0.140 A  
DOCKED: ATOM     22  C   UNL     1     -59.493 -38.457  11.061 -0.11 +0.00    +0.029 A  
DOCKED: ATOM     23  F   UNL     1     -59.218 -40.291  12.533 -0.04 -0.00    -0.204 F  
DOCKED: ATOM     24  C   UNL     1     -59.052 -37.728   9.955 -0.10 +0.00    +0.001 A  
DOCKED: ENDBRANCH   2  18
DOCKED: TORSDOF 5
DOCKED: TER
DOCKED: ENDMDL
________________________________________________________________________________


    FINAL DOCKED STATE:
    ________________________


Run:   304 / 512
Time taken for this run:   0.002s

DOCKED: MODEL        304
DOCKED: USER    Run = 304
DOCKED: USER
DOCKED: USER    Estimated Free Energy of Binding    =  -4.27 kcal/mol  [=(1)+(2)+(3)-(4)]
DOCKED: USER
DOCKED: USER    (1) Final Intermolecular Energy     =  -5.76 kcal/mol
DOCKED: USER        vdW + Hbond + desolv Energy     =  -5.76 kcal/mol
DOCKED: USER        Electrostatic Energy            =  +0.00 kcal/mol
DOCKED: USER        Moving Ligand-Fixed Receptor    =  -5.76 kcal/mol
DOCKED: USER        Moving Ligand-Moving Receptor   =  +0.00 kcal/mol
DOCKED: USER    (2) Final Total Internal Energy     =  -1.43 kcal/mol
DOCKED: USER    (3) Torsional Free Energy           =  +1.49 kcal/mol
DOCKED: USER    (4) Unbound System's Energy         =  -1.43 kcal/mol
DOCKED: USER
DOCKED: USER
DOCKED: REMARK  5 active torsions:
DOCKED: REMARK  status: ('A' for Active; 'I' for Inactive)
DOCKED: REMARK    1  A    between atoms: C_2  and  C_19 
DOCKED: REMARK    2  A    between atoms: C_2  and  C_11 
DOCKED: REMARK    3  A    between atoms: C_19  and  C_20 
DOCKED: REMARK    4  A    between atoms: C_20  and  C_21 
DOCKED: REMARK    5  A    between atoms: C_21  and  N_22 
DOCKED: USER                              x       y       z     vdW  Elec       q    Type
DOCKED: USER                           _______ _______ _______ _____ _____    ______ ____
DOCKED: ROOT
DOCKED: ATOM      1  O   UNL     1     -55.701 -35.501   8.297 -0.06 -0.00    -0.346 OA 
DOCKED: ATOM      2  C   UNL     1     -57.019 -34.902   8.080 -0.11 +0.00    +0.130 C  
DOCKED: ATOM      3  C   UNL     1     -57.791 -35.980   7.377 -0.21 +0.00    +0.004 A  
DOCKED: ATOM      4  C   UNL     1     -57.021 -37.132   7.297 -0.26 +0.00    +0.006 A  
DOCKED: ATOM      5  C   UNL     1     -55.709 -36.903   7.943 -0.13 +0.00    +0.169 C  
DOCKED: ATOM      6  C   UNL     1     -59.078 -35.948   6.859 -0.24 -0.00    -0.001 A  
DOCKED: ATOM      7  C   UNL     1     -57.503 -38.282   6.697 -0.35 +0.00    +0.008 A  
DOCKED: ATOM      8  C   UNL     1     -59.578 -37.099   6.247 -0.27 +0.00    +0.010 A  
DOCKED: ATOM      9  C   UNL     1     -58.794 -38.260   6.167 -0.30 +0.00    +0.068 A  
DOCKED: ATOM     10  N   UNL     1     -59.754 -40.381   5.030 -2.39 -0.00    -0.191 NA 
DOCKED: ATOM     11  C   UNL     1     -59.324 -39.430   5.539 -0.36 +0.00    +0.101 C  
DOCKED: ENDROOT
DOCKED: BRANCH   2  12
DOCKED: ATOM     12  C   UNL     1     -57.611 -34.536   9.436 -0.04 +0.00    +0.038 C  
DOCKED: BRANCH  12  13
DOCKED: ATOM     13  C   UNL     1     -58.355 -35.716  10.056 -0.04 +0.00    +0.038 C  
DOCKED: BRANCH  13  14
DOCKED: ATOM     14  C   UNL     1     -57.386 -36.682  10.735 -0.03 +0.00    +0.251 C  
DOCKED: BRANCH  14  15
DOCKED: ATOM     15  N   UNL     1     -57.653 -38.051  10.312 -0.10 +0.00    +0.141 N  
DOCKED: ATOM     16  C   UNL     1     -57.146 -39.005  11.300 -0.13 +0.00    +0.285 C  
DOCKED: ATOM     17  C   UNL     1     -59.087 -38.254  10.099 -0.06 +0.00    +0.285 C  
DOCKED: ENDBRANCH  14  15
DOCKED: ENDBRANCH  13  14
DOCKED: ENDBRANCH  12  13
DOCKED: ENDBRANCH   2  12
DOCKED: BRANCH   2  18
DOCKED: ATOM     18  C   UNL     1     -56.814 -33.689   7.236 -0.14 +0.00    +0.006 A  
DOCKED: ATOM     19  C   UNL     1     -57.627 -32.570   7.415 -0.10 +0.00    +0.001 A  
DOCKED: ATOM     20  C   UNL     1     -57.434 -31.437   6.625 -0.09 +0.00    +0.029 A  
DOCKED: ATOM     21  C   UNL     1     -56.429 -31.422   5.658 -0.08 +0.00    +0.140 A  
DOCKED: ATOM     22  C   UNL     1     -55.616 -32.541   5.481 -0.12 +0.00    +0.029 A  
DOCKED: ATOM     23  F   UNL     1     -56.244 -30.333   4.902 -0.01 -0.00    -0.204 F  
DOCKED: ATOM     24  C   UNL     1     -55.808 -33.676   6.270 -0.16 +0.00    +0.001 A  
DOCKED: ENDBRANCH   2  18
DOCKED: TORSDOF 5
DOCKED: TER
DOCKED: ENDMDL
________________________________________________________________________________


    FINAL DOCKED STATE:
    ________________________


Run:   305 / 512
Time taken for this run:   0.002s

DOCKED: MODEL        305
DOCKED: USER    Run = 305
DOCKED: USER
DOCKED: USER    Estimated Free Energy of Binding    =  -3.43 kcal/mol  [=(1)+(2)+(3)-(4)]
DOCKED: USER
DOCKED: USER    (1) Final Intermolecular Energy     =  -4.93 kcal/mol
DOCKED: USER        vdW + Hbond + desolv Energy     =  -4.93 kcal/mol
DOCKED: USER        Electrostatic Energy            =  +0.00 kcal/mol
DOCKED: USER        Moving Ligand-Fixed Receptor    =  -4.93 kcal/mol
DOCKED: USER        Moving Ligand-Moving Receptor   =  +0.00 kcal/mol
DOCKED: USER    (2) Final Total Internal Energy     =  -1.19 kcal/mol
DOCKED: USER    (3) Torsional Free Energy           =  +1.49 kcal/mol
DOCKED: USER    (4) Unbound System's Energy         =  -1.19 kcal/mol
DOCKED: USER
DOCKED: USER
DOCKED: REMARK  5 active torsions:
DOCKED: REMARK  status: ('A' for Active; 'I' for Inactive)
DOCKED: REMARK    1  A    between atoms: C_2  and  C_19 
DOCKED: REMARK    2  A    between atoms: C_2  and  C_11 
DOCKED: REMARK    3  A    between atoms: C_19  and  C_20 
DOCKED: REMARK    4  A    between atoms: C_20  and  C_21 
DOCKED: REMARK    5  A    between atoms: C_21  and  N_22 
DOCKED: USER                              x       y       z     vdW  Elec       q    Type
DOCKED: USER                           _______ _______ _______ _____ _____    ______ ____
DOCKED: ROOT
DOCKED: ATOM      1  O   UNL     1     -62.267 -36.377   6.923 -0.09 -0.00    -0.346 OA 
DOCKED: ATOM      2  C   UNL     1     -60.822 -36.537   7.089 -0.18 +0.00    +0.130 C  
DOCKED: ATOM      3  C   UNL     1     -60.282 -35.148   6.906 -0.23 +0.00    +0.004 A  
DOCKED: ATOM      4  C   UNL     1     -61.334 -34.255   6.758 -0.21 +0.00    +0.006 A  
DOCKED: ATOM      5  C   UNL     1     -62.623 -34.977   6.845 -0.22 +0.00    +0.169 C  
DOCKED: ATOM      6  C   UNL     1     -58.967 -34.709   6.882 -0.22 -0.00    -0.001 A  
DOCKED: ATOM      7  C   UNL     1     -61.109 -32.901   6.578 -0.22 +0.00    +0.008 A  
DOCKED: ATOM      8  C   UNL     1     -58.724 -33.347   6.698 -0.18 +0.00    +0.010 A  
DOCKED: ATOM      9  C   UNL     1     -59.790 -32.447   6.547 -0.19 +0.00    +0.068 A  
DOCKED: ATOM     10  N   UNL     1     -59.303 -29.925   6.212 -0.04 -0.00    -0.191 NA 
DOCKED: ATOM     11  C   UNL     1     -59.522 -31.056   6.362 -0.14 +0.00    +0.101 C  
DOCKED: ENDROOT
DOCKED: BRANCH   2  12
DOCKED: ATOM     12  C   UNL     1     -60.555 -37.098   8.481 -0.12 +0.00    +0.038 C  
DOCKED: BRANCH  12  13
DOCKED: ATOM     13  C   UNL     1     -59.648 -38.325   8.423 -0.19 +0.00    +0.038 C  
DOCKED: BRANCH  13  14
DOCKED: ATOM     14  C   UNL     1     -58.254 -38.005   8.961 -0.09 +0.00    +0.251 C  
DOCKED: BRANCH  14  15
DOCKED: ATOM     15  N   UNL     1     -57.352 -37.672   7.864 -0.18 +0.00    +0.141 N  
DOCKED: ATOM     16  C   UNL     1     -56.360 -36.686   8.294 -0.12 +0.00    +0.285 C  
DOCKED: ATOM     17  C   UNL     1     -56.687 -38.875   7.361 -0.17 +0.00    +0.285 C  
DOCKED: ENDBRANCH  14  15
DOCKED: ENDBRANCH  13  14
DOCKED: ENDBRANCH  12  13
DOCKED: ENDBRANCH   2  12
DOCKED: BRANCH   2  18
DOCKED: ATOM     18  C   UNL     1     -60.363 -37.484   6.031 -0.26 +0.00    +0.006 A  
DOCKED: ATOM     19  C   UNL     1     -61.205 -38.508   5.600 -0.33 +0.00    +0.001 A  
DOCKED: ATOM     20  C   UNL     1     -60.775 -39.393   4.610 -0.33 +0.00    +0.029 A  
DOCKED: ATOM     21  C   UNL     1     -59.505 -39.252   4.053 -0.37 +0.00    +0.140 A  
DOCKED: ATOM     22  C   UNL     1     -58.663 -38.227   4.485 -0.41 +0.00    +0.029 A  
DOCKED: ATOM     23  F   UNL     1     -59.093 -40.101   3.102 -0.09 -0.00    -0.204 F  
DOCKED: ATOM     24  C   UNL     1     -59.092 -37.342   5.475 -0.33 +0.00    +0.001 A  
DOCKED: ENDBRANCH   2  18
DOCKED: TORSDOF 5
DOCKED: TER
DOCKED: ENDMDL
________________________________________________________________________________


    FINAL DOCKED STATE:
    ________________________


Run:   306 / 512
Time taken for this run:   0.002s

DOCKED: MODEL        306
DOCKED: USER    Run = 306
DOCKED: USER
DOCKED: USER    Estimated Free Energy of Binding    =  -3.56 kcal/mol  [=(1)+(2)+(3)-(4)]
DOCKED: USER
DOCKED: USER    (1) Final Intermolecular Energy     =  -5.05 kcal/mol
DOCKED: USER        vdW + Hbond + desolv Energy     =  -5.05 kcal/mol
DOCKED: USER        Electrostatic Energy            =  +0.00 kcal/mol
DOCKED: USER        Moving Ligand-Fixed Receptor    =  -5.05 kcal/mol
DOCKED: USER        Moving Ligand-Moving Receptor   =  +0.00 kcal/mol
DOCKED: USER    (2) Final Total Internal Energy     =  -1.44 kcal/mol
DOCKED: USER    (3) Torsional Free Energy           =  +1.49 kcal/mol
DOCKED: USER    (4) Unbound System's Energy         =  -1.44 kcal/mol
DOCKED: USER
DOCKED: USER
DOCKED: REMARK  5 active torsions:
DOCKED: REMARK  status: ('A' for Active; 'I' for Inactive)
DOCKED: REMARK    1  A    between atoms: C_2  and  C_19 
DOCKED: REMARK    2  A    between atoms: C_2  and  C_11 
DOCKED: REMARK    3  A    between atoms: C_19  and  C_20 
DOCKED: REMARK    4  A    between atoms: C_20  and  C_21 
DOCKED: REMARK    5  A    between atoms: C_21  and  N_22 
DOCKED: USER                              x       y       z     vdW  Elec       q    Type
DOCKED: USER                           _______ _______ _______ _____ _____    ______ ____
DOCKED: ROOT
DOCKED: ATOM      1  O   UNL     1     -57.335 -36.838  10.699 -0.01 -0.00    -0.346 OA 
DOCKED: ATOM      2  C   UNL     1     -56.729 -36.221   9.518 -0.07 +0.00    +0.130 C  
DOCKED: ATOM      3  C   UNL     1     -57.273 -37.025   8.373 -0.18 +0.00    +0.004 A  
DOCKED: ATOM      4  C   UNL     1     -58.194 -37.948   8.847 -0.16 +0.00    +0.006 A  
DOCKED: ATOM      5  C   UNL     1     -58.332 -37.813  10.314 -0.08 +0.00    +0.169 C  
DOCKED: ATOM      6  C   UNL     1     -56.984 -36.939   7.019 -0.22 -0.00    -0.001 A  
DOCKED: ATOM      7  C   UNL     1     -58.852 -38.815   7.990 -0.24 +0.00    +0.008 A  
DOCKED: ATOM      8  C   UNL     1     -57.635 -37.809   6.143 -0.32 +0.00    +0.010 A  
DOCKED: ATOM      9  C   UNL     1     -58.565 -38.742   6.626 -0.29 +0.00    +0.068 A  
DOCKED: ATOM     10  N   UNL     1     -59.760 -40.339   4.973 -2.33 -0.00    -0.191 NA 
DOCKED: ATOM     11  C   UNL     1     -59.223 -39.623   5.714 -0.22 +0.00    +0.101 C  
DOCKED: ENDROOT
DOCKED: BRANCH   2  12
DOCKED: ATOM     12  C   UNL     1     -57.150 -34.757   9.468 -0.04 +0.00    +0.038 C  
DOCKED: BRANCH  12  13
DOCKED: ATOM     13  C   UNL     1     -58.671 -34.615   9.466 -0.04 +0.00    +0.038 C  
DOCKED: BRANCH  13  14
DOCKED: ATOM     14  C   UNL     1     -59.175 -34.121   8.111 -0.07 +0.00    +0.251 C  
DOCKED: BRANCH  14  15
DOCKED: ATOM     15  N   UNL     1     -60.474 -34.710   7.808 -0.11 +0.00    +0.141 N  
DOCKED: ATOM     16  C   UNL     1     -60.332 -35.808   6.851 -0.13 +0.00    +0.285 C  
DOCKED: ATOM     17  C   UNL     1     -61.124 -35.183   9.031 -0.01 +0.00    +0.285 C  
DOCKED: ENDBRANCH  14  15
DOCKED: ENDBRANCH  13  14
DOCKED: ENDBRANCH  12  13
DOCKED: ENDBRANCH   2  12
DOCKED: BRANCH   2  18
DOCKED: ATOM     18  C   UNL     1     -55.250 -36.351   9.669 -0.10 +0.00    +0.006 A  
DOCKED: ATOM     19  C   UNL     1     -54.717 -37.375  10.451 -0.11 +0.00    +0.001 A  
DOCKED: ATOM     20  C   UNL     1     -53.333 -37.495  10.591 -0.10 +0.00    +0.029 A  
DOCKED: ATOM     21  C   UNL     1     -52.486 -36.592   9.950 -0.05 +0.00    +0.140 A  
DOCKED: ATOM     22  C   UNL     1     -53.021 -35.568   9.168 -0.07 +0.00    +0.029 A  
DOCKED: ATOM     23  F   UNL     1     -51.159 -36.709  10.084 +0.00 -0.00    -0.204 F  
DOCKED: ATOM     24  C   UNL     1     -54.404 -35.447   9.028 -0.09 +0.00    +0.001 A  
DOCKED: ENDBRANCH   2  18
DOCKED: TORSDOF 5
DOCKED: TER
DOCKED: ENDMDL
________________________________________________________________________________


    FINAL DOCKED STATE:
    ________________________


Run:   307 / 512
Time taken for this run:   0.002s

DOCKED: MODEL        307
DOCKED: USER    Run = 307
DOCKED: USER
DOCKED: USER    Estimated Free Energy of Binding    =  -6.47 kcal/mol  [=(1)+(2)+(3)-(4)]
DOCKED: USER
DOCKED: USER    (1) Final Intermolecular Energy     =  -7.96 kcal/mol
DOCKED: USER        vdW + Hbond + desolv Energy     =  -7.96 kcal/mol
DOCKED: USER        Electrostatic Energy            =  +0.00 kcal/mol
DOCKED: USER        Moving Ligand-Fixed Receptor    =  -7.96 kcal/mol
DOCKED: USER        Moving Ligand-Moving Receptor   =  +0.00 kcal/mol
DOCKED: USER    (2) Final Total Internal Energy     =  -0.99 kcal/mol
DOCKED: USER    (3) Torsional Free Energy           =  +1.49 kcal/mol
DOCKED: USER    (4) Unbound System's Energy         =  -0.99 kcal/mol
DOCKED: USER
DOCKED: USER
DOCKED: REMARK  5 active torsions:
DOCKED: REMARK  status: ('A' for Active; 'I' for Inactive)
DOCKED: REMARK    1  A    between atoms: C_2  and  C_19 
DOCKED: REMARK    2  A    between atoms: C_2  and  C_11 
DOCKED: REMARK    3  A    between atoms: C_19  and  C_20 
DOCKED: REMARK    4  A    between atoms: C_20  and  C_21 
DOCKED: REMARK    5  A    between atoms: C_21  and  N_22 
DOCKED: USER                              x       y       z     vdW  Elec       q    Type
DOCKED: USER                           _______ _______ _______ _____ _____    ______ ____
DOCKED: ROOT
DOCKED: ATOM      1  O   UNL     1     -56.779 -39.778   7.446 -0.43 -0.00    -0.346 OA 
DOCKED: ATOM      2  C   UNL     1     -57.842 -38.795   7.658 -0.28 +0.00    +0.130 C  
DOCKED: ATOM      3  C   UNL     1     -58.478 -38.655   6.305 -0.37 +0.00    +0.004 A  
DOCKED: ATOM      4  C   UNL     1     -57.904 -39.559   5.423 -0.41 +0.00    +0.006 A  
DOCKED: ATOM      5  C   UNL     1     -56.872 -40.357   6.123 -0.14 +0.00    +0.169 C  
DOCKED: ATOM      6  C   UNL     1     -59.492 -37.803   5.892 -0.32 -0.00    -0.001 A  
DOCKED: ATOM      7  C   UNL     1     -58.317 -39.641   4.105 -0.36 +0.00    +0.008 A  
DOCKED: ATOM      8  C   UNL     1     -59.916 -37.870   4.564 -0.17 +0.00    +0.010 A  
DOCKED: ATOM      9  C   UNL     1     -59.332 -38.785   3.675 -0.46 +0.00    +0.068 A  
DOCKED: ATOM     10  N   UNL     1     -60.147 -38.887   1.218 -3.33 -0.00    -0.191 NA 
DOCKED: ATOM     11  C   UNL     1     -59.781 -38.841   2.320 -0.28 +0.00    +0.101 C  
DOCKED: ENDROOT
DOCKED: BRANCH   2  12
DOCKED: ATOM     12  C   UNL     1     -58.800 -39.339   8.711 -0.29 +0.00    +0.038 C  
DOCKED: BRANCH  12  13
DOCKED: ATOM     13  C   UNL     1     -60.102 -38.541   8.745 -0.19 +0.00    +0.038 C  
DOCKED: BRANCH  13  14
DOCKED: ATOM     14  C   UNL     1     -60.499 -38.198  10.180 -0.05 +0.00    +0.251 C  
DOCKED: BRANCH  14  15
DOCKED: ATOM     15  N   UNL     1     -60.845 -36.786  10.286 -0.02 +0.00    +0.141 N  
DOCKED: ATOM     16  C   UNL     1     -62.172 -36.623  10.883 +0.00 +0.00    +0.285 C  
DOCKED: ATOM     17  C   UNL     1     -59.843 -36.068  11.075 -0.00 +0.00    +0.285 C  
DOCKED: ENDBRANCH  14  15
DOCKED: ENDBRANCH  13  14
DOCKED: ENDBRANCH  12  13
DOCKED: ENDBRANCH   2  12
DOCKED: BRANCH   2  18
DOCKED: ATOM     18  C   UNL     1     -57.186 -37.538   8.125 -0.23 +0.00    +0.006 A  
DOCKED: ATOM     19  C   UNL     1     -57.918 -36.354   8.194 -0.14 +0.00    +0.001 A  
DOCKED: ATOM     20  C   UNL     1     -57.304 -35.179   8.630 -0.08 +0.00    +0.029 A  
DOCKED: ATOM     21  C   UNL     1     -55.959 -35.191   8.998 -0.06 +0.00    +0.140 A  
DOCKED: ATOM     22  C   UNL     1     -55.227 -36.376   8.929 -0.14 +0.00    +0.029 A  
DOCKED: ATOM     23  F   UNL     1     -55.370 -34.064   9.418 -0.00 -0.00    -0.204 F  
DOCKED: ATOM     24  C   UNL     1     -55.841 -37.551   8.492 -0.21 +0.00    +0.001 A  
DOCKED: ENDBRANCH   2  18
DOCKED: TORSDOF 5
DOCKED: TER
DOCKED: ENDMDL
________________________________________________________________________________


    FINAL DOCKED STATE:
    ________________________


Run:   308 / 512
Time taken for this run:   0.002s

DOCKED: MODEL        308
DOCKED: USER    Run = 308
DOCKED: USER
DOCKED: USER    Estimated Free Energy of Binding    =  -5.36 kcal/mol  [=(1)+(2)+(3)-(4)]
DOCKED: USER
DOCKED: USER    (1) Final Intermolecular Energy     =  -6.85 kcal/mol
DOCKED: USER        vdW + Hbond + desolv Energy     =  -6.85 kcal/mol
DOCKED: USER        Electrostatic Energy            =  +0.00 kcal/mol
DOCKED: USER        Moving Ligand-Fixed Receptor    =  -6.85 kcal/mol
DOCKED: USER        Moving Ligand-Moving Receptor   =  +0.00 kcal/mol
DOCKED: USER    (2) Final Total Internal Energy     =  -1.15 kcal/mol
DOCKED: USER    (3) Torsional Free Energy           =  +1.49 kcal/mol
DOCKED: USER    (4) Unbound System's Energy         =  -1.15 kcal/mol
DOCKED: USER
DOCKED: USER
DOCKED: REMARK  5 active torsions:
DOCKED: REMARK  status: ('A' for Active; 'I' for Inactive)
DOCKED: REMARK    1  A    between atoms: C_2  and  C_19 
DOCKED: REMARK    2  A    between atoms: C_2  and  C_11 
DOCKED: REMARK    3  A    between atoms: C_19  and  C_20 
DOCKED: REMARK    4  A    between atoms: C_20  and  C_21 
DOCKED: REMARK    5  A    between atoms: C_21  and  N_22 
DOCKED: USER                              x       y       z     vdW  Elec       q    Type
DOCKED: USER                           _______ _______ _______ _____ _____    ______ ____
DOCKED: ROOT
DOCKED: ATOM      1  O   UNL     1     -61.005 -37.158   8.311 -0.00 -0.00    -0.346 OA 
DOCKED: ATOM      2  C   UNL     1     -59.582 -36.960   8.033 -0.11 +0.00    +0.130 C  
DOCKED: ATOM      3  C   UNL     1     -59.432 -37.392   6.603 -0.26 +0.00    +0.004 A  
DOCKED: ATOM      4  C   UNL     1     -60.677 -37.705   6.076 -0.27 +0.00    +0.006 A  
DOCKED: ATOM      5  C   UNL     1     -61.723 -37.492   7.101 -0.17 +0.00    +0.169 C  
DOCKED: ATOM      6  C   UNL     1     -58.286 -37.490   5.826 -0.37 -0.00    -0.001 A  
DOCKED: ATOM      7  C   UNL     1     -60.820 -38.128   4.766 -0.27 +0.00    +0.008 A  
DOCKED: ATOM      8  C   UNL     1     -58.413 -37.919   4.504 -0.19 +0.00    +0.010 A  
DOCKED: ATOM      9  C   UNL     1     -59.674 -38.236   3.977 -0.35 +0.00    +0.068 A  
DOCKED: ATOM     10  N   UNL     1     -59.875 -39.024   1.517 -2.89 -0.00    -0.191 NA 
DOCKED: ATOM     11  C   UNL     1     -59.785 -38.671   2.620 -0.27 +0.00    +0.101 C  
DOCKED: ENDROOT
DOCKED: BRANCH   2  12
DOCKED: ATOM     12  C   UNL     1     -59.249 -35.488   8.245 -0.12 +0.00    +0.038 C  
DOCKED: BRANCH  12  13
DOCKED: ATOM     13  C   UNL     1     -59.886 -34.612   7.169 -0.23 +0.00    +0.038 C  
DOCKED: BRANCH  13  14
DOCKED: ATOM     14  C   UNL     1     -58.855 -33.674   6.542 -0.14 +0.00    +0.251 C  
DOCKED: BRANCH  14  15
DOCKED: ATOM     15  N   UNL     1     -57.960 -33.148   7.566 -0.08 +0.00    +0.141 N  
DOCKED: ATOM     16  C   UNL     1     -56.592 -33.620   7.349 -0.09 +0.00    +0.285 C  
DOCKED: ATOM     17  C   UNL     1     -57.996 -31.684   7.579 -0.04 +0.00    +0.285 C  
DOCKED: ENDBRANCH  14  15
DOCKED: ENDBRANCH  13  14
DOCKED: ENDBRANCH  12  13
DOCKED: ENDBRANCH   2  12
DOCKED: BRANCH   2  18
DOCKED: ATOM     18  C   UNL     1     -58.826 -37.826   8.984 -0.13 +0.00    +0.006 A  
DOCKED: ATOM     19  C   UNL     1     -58.666 -39.184   8.714 -0.26 +0.00    +0.001 A  
DOCKED: ATOM     20  C   UNL     1     -57.959 -39.993   9.605 -0.17 +0.00    +0.029 A  
DOCKED: ATOM     21  C   UNL     1     -57.414 -39.443  10.764 -0.16 +0.00    +0.140 A  
DOCKED: ATOM     22  C   UNL     1     -57.574 -38.084  11.033 -0.11 +0.00    +0.029 A  
DOCKED: ATOM     23  F   UNL     1     -56.734 -40.219  11.618 -0.09 -0.00    -0.204 F  
DOCKED: ATOM     24  C   UNL     1     -58.281 -37.274  10.143 -0.08 +0.00    +0.001 A  
DOCKED: ENDBRANCH   2  18
DOCKED: TORSDOF 5
DOCKED: TER
DOCKED: ENDMDL
________________________________________________________________________________


    FINAL DOCKED STATE:
    ________________________


Run:   309 / 512
Time taken for this run:   0.002s

DOCKED: MODEL        309
DOCKED: USER    Run = 309
DOCKED: USER
DOCKED: USER    Estimated Free Energy of Binding    =  -4.31 kcal/mol  [=(1)+(2)+(3)-(4)]
DOCKED: USER
DOCKED: USER    (1) Final Intermolecular Energy     =  -5.80 kcal/mol
DOCKED: USER        vdW + Hbond + desolv Energy     =  -5.80 kcal/mol
DOCKED: USER        Electrostatic Energy            =  +0.00 kcal/mol
DOCKED: USER        Moving Ligand-Fixed Receptor    =  -5.80 kcal/mol
DOCKED: USER        Moving Ligand-Moving Receptor   =  +0.00 kcal/mol
DOCKED: USER    (2) Final Total Internal Energy     =  -1.30 kcal/mol
DOCKED: USER    (3) Torsional Free Energy           =  +1.49 kcal/mol
DOCKED: USER    (4) Unbound System's Energy         =  -1.30 kcal/mol
DOCKED: USER
DOCKED: USER
DOCKED: REMARK  5 active torsions:
DOCKED: REMARK  status: ('A' for Active; 'I' for Inactive)
DOCKED: REMARK    1  A    between atoms: C_2  and  C_19 
DOCKED: REMARK    2  A    between atoms: C_2  and  C_11 
DOCKED: REMARK    3  A    between atoms: C_19  and  C_20 
DOCKED: REMARK    4  A    between atoms: C_20  and  C_21 
DOCKED: REMARK    5  A    between atoms: C_21  and  N_22 
DOCKED: USER                              x       y       z     vdW  Elec       q    Type
DOCKED: USER                           _______ _______ _______ _____ _____    ______ ____
DOCKED: ROOT
DOCKED: ATOM      1  O   UNL     1     -55.021 -35.987   8.567 -0.07 -0.00    -0.346 OA 
DOCKED: ATOM      2  C   UNL     1     -55.941 -35.125   7.825 -0.13 +0.00    +0.130 C  
DOCKED: ATOM      3  C   UNL     1     -56.886 -36.088   7.167 -0.22 +0.00    +0.004 A  
DOCKED: ATOM      4  C   UNL     1     -56.602 -37.380   7.585 -0.25 +0.00    +0.006 A  
DOCKED: ATOM      5  C   UNL     1     -55.474 -37.361   8.543 -0.17 +0.00    +0.169 C  
DOCKED: ATOM      6  C   UNL     1     -57.923 -35.839   6.279 -0.27 -0.00    -0.001 A  
DOCKED: ATOM      7  C   UNL     1     -57.335 -38.463   7.130 -0.34 +0.00    +0.008 A  
DOCKED: ATOM      8  C   UNL     1     -58.669 -36.921   5.808 -0.33 +0.00    +0.010 A  
DOCKED: ATOM      9  C   UNL     1     -58.376 -38.226   6.232 -0.31 +0.00    +0.068 A  
DOCKED: ATOM     10  N   UNL     1     -59.784 -40.211   5.341 -2.55 -0.00    -0.191 NA 
DOCKED: ATOM     11  C   UNL     1     -59.152 -39.321   5.740 -0.34 +0.00    +0.101 C  
DOCKED: ENDROOT
DOCKED: BRANCH   2  12
DOCKED: ATOM     12  C   UNL     1     -56.634 -34.194   8.813 -0.06 +0.00    +0.038 C  
DOCKED: BRANCH  12  13
DOCKED: ATOM     13  C   UNL     1     -55.629 -33.290   9.525 -0.02 +0.00    +0.038 C  
DOCKED: BRANCH  13  14
DOCKED: ATOM     14  C   UNL     1     -54.985 -34.011  10.708 -0.00 +0.00    +0.251 C  
DOCKED: BRANCH  14  15
DOCKED: ATOM     15  N   UNL     1     -53.709 -33.390  11.046 -0.00 +0.00    +0.141 N  
DOCKED: ATOM     16  C   UNL     1     -52.807 -34.366  11.660 -0.00 +0.00    +0.285 C  
DOCKED: ATOM     17  C   UNL     1     -53.090 -32.805   9.856 -0.00 +0.00    +0.285 C  
DOCKED: ENDBRANCH  14  15
DOCKED: ENDBRANCH  13  14
DOCKED: ENDBRANCH  12  13
DOCKED: ENDBRANCH   2  12
DOCKED: BRANCH   2  18
DOCKED: ATOM     18  C   UNL     1     -55.121 -34.354   6.844 -0.14 +0.00    +0.006 A  
DOCKED: ATOM     19  C   UNL     1     -55.747 -33.611   5.844 -0.15 +0.00    +0.001 A  
DOCKED: ATOM     20  C   UNL     1     -54.979 -32.891   4.928 -0.13 +0.00    +0.029 A  
DOCKED: ATOM     21  C   UNL     1     -53.587 -32.915   5.013 -0.08 +0.00    +0.140 A  
DOCKED: ATOM     22  C   UNL     1     -52.962 -33.659   6.014 -0.09 +0.00    +0.029 A  
DOCKED: ATOM     23  F   UNL     1     -52.851 -32.223   4.135 -0.00 -0.00    -0.204 F  
DOCKED: ATOM     24  C   UNL     1     -53.729 -34.380   6.931 -0.11 +0.00    +0.001 A  
DOCKED: ENDBRANCH   2  18
DOCKED: TORSDOF 5
DOCKED: TER
DOCKED: ENDMDL
________________________________________________________________________________


    FINAL DOCKED STATE:
    ________________________


Run:   310 / 512
Time taken for this run:   0.002s

DOCKED: MODEL        310
DOCKED: USER    Run = 310
DOCKED: USER
DOCKED: USER    Estimated Free Energy of Binding    =  -4.29 kcal/mol  [=(1)+(2)+(3)-(4)]
DOCKED: USER
DOCKED: USER    (1) Final Intermolecular Energy     =  -5.78 kcal/mol
DOCKED: USER        vdW + Hbond + desolv Energy     =  -5.78 kcal/mol
DOCKED: USER        Electrostatic Energy            =  +0.00 kcal/mol
DOCKED: USER        Moving Ligand-Fixed Receptor    =  -5.78 kcal/mol
DOCKED: USER        Moving Ligand-Moving Receptor   =  +0.00 kcal/mol
DOCKED: USER    (2) Final Total Internal Energy     =  -1.38 kcal/mol
DOCKED: USER    (3) Torsional Free Energy           =  +1.49 kcal/mol
DOCKED: USER    (4) Unbound System's Energy         =  -1.38 kcal/mol
DOCKED: USER
DOCKED: USER
DOCKED: REMARK  5 active torsions:
DOCKED: REMARK  status: ('A' for Active; 'I' for Inactive)
DOCKED: REMARK    1  A    between atoms: C_2  and  C_19 
DOCKED: REMARK    2  A    between atoms: C_2  and  C_11 
DOCKED: REMARK    3  A    between atoms: C_19  and  C_20 
DOCKED: REMARK    4  A    between atoms: C_20  and  C_21 
DOCKED: REMARK    5  A    between atoms: C_21  and  N_22 
DOCKED: USER                              x       y       z     vdW  Elec       q    Type
DOCKED: USER                           _______ _______ _______ _____ _____    ______ ____
DOCKED: ROOT
DOCKED: ATOM      1  O   UNL     1     -56.534 -34.410   7.933 -0.04 -0.00    -0.346 OA 
DOCKED: ATOM      2  C   UNL     1     -57.975 -34.185   7.814 -0.11 +0.00    +0.130 C  
DOCKED: ATOM      3  C   UNL     1     -58.494 -35.471   7.239 -0.21 +0.00    +0.004 A  
DOCKED: ATOM      4  C   UNL     1     -57.459 -36.390   7.142 -0.25 +0.00    +0.006 A  
DOCKED: ATOM      5  C   UNL     1     -56.205 -35.790   7.650 -0.15 +0.00    +0.169 C  
DOCKED: ATOM      6  C   UNL     1     -59.781 -35.805   6.845 -0.23 -0.00    -0.001 A  
DOCKED: ATOM      7  C   UNL     1     -57.671 -37.665   6.647 -0.32 +0.00    +0.008 A  
DOCKED: ATOM      8  C   UNL     1     -60.011 -37.086   6.339 -0.24 +0.00    +0.010 A  
DOCKED: ATOM      9  C   UNL     1     -58.961 -38.011   6.241 -0.28 +0.00    +0.068 A  
DOCKED: ATOM     10  N   UNL     1     -59.422 -40.382   5.302 -2.59 -0.00    -0.191 NA 
DOCKED: ATOM     11  C   UNL     1     -59.215 -39.318   5.723 -0.35 +0.00    +0.101 C  
DOCKED: ENDROOT
DOCKED: BRANCH   2  12
DOCKED: ATOM     12  C   UNL     1     -58.533 -33.886   9.200 -0.04 +0.00    +0.038 C  
DOCKED: BRANCH  12  13
DOCKED: ATOM     13  C   UNL     1     -57.471 -34.076  10.281 -0.02 +0.00    +0.038 C  
DOCKED: BRANCH  13  14
DOCKED: ATOM     14  C   UNL     1     -57.741 -35.335  11.102 -0.01 +0.00    +0.251 C  
DOCKED: BRANCH  14  15
DOCKED: ATOM     15  N   UNL     1     -58.371 -36.356  10.272 -0.03 +0.00    +0.141 N  
DOCKED: ATOM     16  C   UNL     1     -57.816 -37.677  10.568 -0.05 +0.00    +0.285 C  
DOCKED: ATOM     17  C   UNL     1     -59.822 -36.359  10.472 -0.01 +0.00    +0.285 C  
DOCKED: ENDBRANCH  14  15
DOCKED: ENDBRANCH  13  14
DOCKED: ENDBRANCH  12  13
DOCKED: ENDBRANCH   2  12
DOCKED: BRANCH   2  18
DOCKED: ATOM     18  C   UNL     1     -58.160 -33.022   6.897 -0.16 +0.00    +0.006 A  
DOCKED: ATOM     19  C   UNL     1     -57.049 -32.375   6.358 -0.12 +0.00    +0.001 A  
DOCKED: ATOM     20  C   UNL     1     -57.223 -31.288   5.501 -0.11 +0.00    +0.029 A  
DOCKED: ATOM     21  C   UNL     1     -58.508 -30.849   5.184 -0.12 +0.00    +0.140 A  
DOCKED: ATOM     22  C   UNL     1     -59.619 -31.497   5.723 -0.14 +0.00    +0.029 A  
DOCKED: ATOM     23  F   UNL     1     -58.675 -29.807   4.360 -0.03 -0.00    -0.204 F  
DOCKED: ATOM     24  C   UNL     1     -59.446 -32.584   6.581 -0.20 +0.00    +0.001 A  
DOCKED: ENDBRANCH   2  18
DOCKED: TORSDOF 5
DOCKED: TER
DOCKED: ENDMDL
________________________________________________________________________________


    FINAL DOCKED STATE:
    ________________________


Run:   311 / 512
Time taken for this run:   0.002s

DOCKED: MODEL        311
DOCKED: USER    Run = 311
DOCKED: USER
DOCKED: USER    Estimated Free Energy of Binding    =  -3.73 kcal/mol  [=(1)+(2)+(3)-(4)]
DOCKED: USER
DOCKED: USER    (1) Final Intermolecular Energy     =  -5.22 kcal/mol
DOCKED: USER        vdW + Hbond + desolv Energy     =  -5.22 kcal/mol
DOCKED: USER        Electrostatic Energy            =  +0.00 kcal/mol
DOCKED: USER        Moving Ligand-Fixed Receptor    =  -5.22 kcal/mol
DOCKED: USER        Moving Ligand-Moving Receptor   =  +0.00 kcal/mol
DOCKED: USER    (2) Final Total Internal Energy     =  -1.43 kcal/mol
DOCKED: USER    (3) Torsional Free Energy           =  +1.49 kcal/mol
DOCKED: USER    (4) Unbound System's Energy         =  -1.43 kcal/mol
DOCKED: USER
DOCKED: USER
DOCKED: REMARK  5 active torsions:
DOCKED: REMARK  status: ('A' for Active; 'I' for Inactive)
DOCKED: REMARK    1  A    between atoms: C_2  and  C_19 
DOCKED: REMARK    2  A    between atoms: C_2  and  C_11 
DOCKED: REMARK    3  A    between atoms: C_19  and  C_20 
DOCKED: REMARK    4  A    between atoms: C_20  and  C_21 
DOCKED: REMARK    5  A    between atoms: C_21  and  N_22 
DOCKED: USER                              x       y       z     vdW  Elec       q    Type
DOCKED: USER                           _______ _______ _______ _____ _____    ______ ____
DOCKED: ROOT
DOCKED: ATOM      1  O   UNL     1     -53.722 -30.927  -0.476 -0.02 -0.00    -0.346 OA 
DOCKED: ATOM      2  C   UNL     1     -52.762 -30.704  -1.558 -0.08 +0.00    +0.130 C  
DOCKED: ATOM      3  C   UNL     1     -53.488 -29.790  -2.502 -0.17 +0.00    +0.004 A  
DOCKED: ATOM      4  C   UNL     1     -54.712 -29.432  -1.955 -0.26 +0.00    +0.006 A  
DOCKED: ATOM      5  C   UNL     1     -54.873 -30.064  -0.627 -0.22 +0.00    +0.169 C  
DOCKED: ATOM      6  C   UNL     1     -53.093 -29.305  -3.740 -0.15 -0.00    -0.001 A  
DOCKED: ATOM      7  C   UNL     1     -55.580 -28.586  -2.624 -0.23 +0.00    +0.008 A  
DOCKED: ATOM      8  C   UNL     1     -53.959 -28.454  -4.428 -0.22 +0.00    +0.010 A  
DOCKED: ATOM      9  C   UNL     1     -55.196 -28.096  -3.873 -0.12 +0.00    +0.068 A  
DOCKED: ATOM     10  N   UNL     1     -56.778 -26.510  -5.175 -2.36 -0.00    -0.191 NA 
DOCKED: ATOM     11  C   UNL     1     -56.068 -27.222  -4.591 -0.40 +0.00    +0.101 C  
DOCKED: ENDROOT
DOCKED: BRANCH   2  12
DOCKED: ATOM     12  C   UNL     1     -51.507 -30.072  -0.968 -0.04 +0.00    +0.038 C  
DOCKED: BRANCH  12  13
DOCKED: ATOM     13  C   UNL     1     -51.717 -29.678   0.493 -0.07 +0.00    +0.038 C  
DOCKED: BRANCH  13  14
DOCKED: ATOM     14  C   UNL     1     -51.667 -30.902   1.405 -0.01 +0.00    +0.251 C  
DOCKED: BRANCH  14  15
DOCKED: ATOM     15  N   UNL     1     -50.924 -31.981   0.766 -0.01 +0.00    +0.141 N  
DOCKED: ATOM     16  C   UNL     1     -49.507 -31.918   1.129 +0.00 +0.00    +0.285 C  
DOCKED: ATOM     17  C   UNL     1     -51.484 -33.282   1.135 -0.01 +0.00    +0.285 C  
DOCKED: ENDBRANCH  14  15
DOCKED: ENDBRANCH  13  14
DOCKED: ENDBRANCH  12  13
DOCKED: ENDBRANCH   2  12
DOCKED: BRANCH   2  18
DOCKED: ATOM     18  C   UNL     1     -52.462 -32.038  -2.156 -0.11 +0.00    +0.006 A  
DOCKED: ATOM     19  C   UNL     1     -51.139 -32.435  -2.346 -0.03 +0.00    +0.001 A  
DOCKED: ATOM     20  C   UNL     1     -50.860 -33.683  -2.906 -0.05 +0.00    +0.029 A  
DOCKED: ATOM     21  C   UNL     1     -51.903 -34.531  -3.274 -0.16 +0.00    +0.140 A  
DOCKED: ATOM     22  C   UNL     1     -53.226 -34.133  -3.084 -0.20 +0.00    +0.029 A  
DOCKED: ATOM     23  F   UNL     1     -51.635 -35.729  -3.810 -0.09 -0.00    -0.204 F  
DOCKED: ATOM     24  C   UNL     1     -53.506 -32.885  -2.524 -0.23 +0.00    +0.001 A  
DOCKED: ENDBRANCH   2  18
DOCKED: TORSDOF 5
DOCKED: TER
DOCKED: ENDMDL
________________________________________________________________________________


    FINAL DOCKED STATE:
    ________________________


Run:   312 / 512
Time taken for this run:   0.002s

DOCKED: MODEL        312
DOCKED: USER    Run = 312
DOCKED: USER
DOCKED: USER    Estimated Free Energy of Binding    =  -3.88 kcal/mol  [=(1)+(2)+(3)-(4)]
DOCKED: USER
DOCKED: USER    (1) Final Intermolecular Energy     =  -5.37 kcal/mol
DOCKED: USER        vdW + Hbond + desolv Energy     =  -5.37 kcal/mol
DOCKED: USER        Electrostatic Energy            =  +0.00 kcal/mol
DOCKED: USER        Moving Ligand-Fixed Receptor    =  -5.37 kcal/mol
DOCKED: USER        Moving Ligand-Moving Receptor   =  +0.00 kcal/mol
DOCKED: USER    (2) Final Total Internal Energy     =  -1.31 kcal/mol
DOCKED: USER    (3) Torsional Free Energy           =  +1.49 kcal/mol
DOCKED: USER    (4) Unbound System's Energy         =  -1.31 kcal/mol
DOCKED: USER
DOCKED: USER
DOCKED: REMARK  5 active torsions:
DOCKED: REMARK  status: ('A' for Active; 'I' for Inactive)
DOCKED: REMARK    1  A    between atoms: C_2  and  C_19 
DOCKED: REMARK    2  A    between atoms: C_2  and  C_11 
DOCKED: REMARK    3  A    between atoms: C_19  and  C_20 
DOCKED: REMARK    4  A    between atoms: C_20  and  C_21 
DOCKED: REMARK    5  A    between atoms: C_21  and  N_22 
DOCKED: USER                              x       y       z     vdW  Elec       q    Type
DOCKED: USER                           _______ _______ _______ _____ _____    ______ ____
DOCKED: ROOT
DOCKED: ATOM      1  O   UNL     1     -53.401 -30.023   0.452 -0.03 -0.00    -0.346 OA 
DOCKED: ATOM      2  C   UNL     1     -54.779 -30.194  -0.008 -0.20 +0.00    +0.130 C  
DOCKED: ATOM      3  C   UNL     1     -54.923 -29.176  -1.102 -0.27 +0.00    +0.004 A  
DOCKED: ATOM      4  C   UNL     1     -53.702 -28.554  -1.324 -0.16 +0.00    +0.006 A  
DOCKED: ATOM      5  C   UNL     1     -52.679 -29.117  -0.415 -0.10 +0.00    +0.169 C  
DOCKED: ATOM      6  C   UNL     1     -56.041 -28.836  -1.849 -0.28 -0.00    -0.001 A  
DOCKED: ATOM      7  C   UNL     1     -53.558 -27.573  -2.291 -0.20 +0.00    +0.008 A  
DOCKED: ATOM      8  C   UNL     1     -55.913 -27.846  -2.825 -0.40 +0.00    +0.010 A  
DOCKED: ATOM      9  C   UNL     1     -54.678 -27.218  -3.045 -0.29 +0.00    +0.068 A  
DOCKED: ATOM     10  N   UNL     1     -54.474 -25.388  -4.867 -0.86 -0.00    -0.191 NA 
DOCKED: ATOM     11  C   UNL     1     -54.565 -26.208  -4.049 -0.34 +0.00    +0.101 C  
DOCKED: ENDROOT
DOCKED: BRANCH   2  12
DOCKED: ATOM     12  C   UNL     1     -54.949 -31.625  -0.504 -0.21 +0.00    +0.038 C  
DOCKED: BRANCH  12  13
DOCKED: ATOM     13  C   UNL     1     -54.508 -31.767  -1.959 -0.16 +0.00    +0.038 C  
DOCKED: BRANCH  13  14
DOCKED: ATOM     14  C   UNL     1     -53.115 -32.386  -2.054 -0.15 +0.00    +0.251 C  
DOCKED: BRANCH  14  15
DOCKED: ATOM     15  N   UNL     1     -52.548 -32.159  -3.378 -0.11 +0.00    +0.141 N  
DOCKED: ATOM     16  C   UNL     1     -52.899 -33.253  -4.284 -0.17 +0.00    +0.285 C  
DOCKED: ATOM     17  C   UNL     1     -53.008 -30.881  -3.924 -0.10 +0.00    +0.285 C  
DOCKED: ENDBRANCH  14  15
DOCKED: ENDBRANCH  13  14
DOCKED: ENDBRANCH  12  13
DOCKED: ENDBRANCH   2  12
DOCKED: BRANCH   2  18
DOCKED: ATOM     18  C   UNL     1     -55.666 -29.921   1.161 -0.24 +0.00    +0.006 A  
DOCKED: ATOM     19  C   UNL     1     -55.204 -29.139   2.218 -0.21 +0.00    +0.001 A  
DOCKED: ATOM     20  C   UNL     1     -56.034 -28.884   3.311 -0.19 +0.00    +0.029 A  
DOCKED: ATOM     21  C   UNL     1     -57.324 -29.411   3.343 -0.14 +0.00    +0.140 A  
DOCKED: ATOM     22  C   UNL     1     -57.786 -30.192   2.285 -0.26 +0.00    +0.029 A  
DOCKED: ATOM     23  F   UNL     1     -58.122 -29.164   4.391 -0.01 -0.00    -0.204 F  
DOCKED: ATOM     24  C   UNL     1     -56.957 -30.448   1.192 -0.28 +0.00    +0.001 A  
DOCKED: ENDBRANCH   2  18
DOCKED: TORSDOF 5
DOCKED: TER
DOCKED: ENDMDL
________________________________________________________________________________


    FINAL DOCKED STATE:
    ________________________


Run:   313 / 512
Time taken for this run:   0.002s

DOCKED: MODEL        313
DOCKED: USER    Run = 313
DOCKED: USER
DOCKED: USER    Estimated Free Energy of Binding    =  -4.66 kcal/mol  [=(1)+(2)+(3)-(4)]
DOCKED: USER
DOCKED: USER    (1) Final Intermolecular Energy     =  -6.15 kcal/mol
DOCKED: USER        vdW + Hbond + desolv Energy     =  -6.15 kcal/mol
DOCKED: USER        Electrostatic Energy            =  +0.00 kcal/mol
DOCKED: USER        Moving Ligand-Fixed Receptor    =  -6.15 kcal/mol
DOCKED: USER        Moving Ligand-Moving Receptor   =  +0.00 kcal/mol
DOCKED: USER    (2) Final Total Internal Energy     =  -1.14 kcal/mol
DOCKED: USER    (3) Torsional Free Energy           =  +1.49 kcal/mol
DOCKED: USER    (4) Unbound System's Energy         =  -1.14 kcal/mol
DOCKED: USER
DOCKED: USER
DOCKED: REMARK  5 active torsions:
DOCKED: REMARK  status: ('A' for Active; 'I' for Inactive)
DOCKED: REMARK    1  A    between atoms: C_2  and  C_19 
DOCKED: REMARK    2  A    between atoms: C_2  and  C_11 
DOCKED: REMARK    3  A    between atoms: C_19  and  C_20 
DOCKED: REMARK    4  A    between atoms: C_20  and  C_21 
DOCKED: REMARK    5  A    between atoms: C_21  and  N_22 
DOCKED: USER                              x       y       z     vdW  Elec       q    Type
DOCKED: USER                           _______ _______ _______ _____ _____    ______ ____
DOCKED: ROOT
DOCKED: ATOM      1  O   UNL     1     -60.469 -37.632   8.337 -0.01 -0.00    -0.346 OA 
DOCKED: ATOM      2  C   UNL     1     -59.387 -36.818   7.782 -0.13 +0.00    +0.130 C  
DOCKED: ATOM      3  C   UNL     1     -59.326 -37.236   6.341 -0.28 +0.00    +0.004 A  
DOCKED: ATOM      4  C   UNL     1     -60.354 -38.128   6.069 -0.29 +0.00    +0.006 A  
DOCKED: ATOM      5  C   UNL     1     -61.162 -38.349   7.289 -0.16 +0.00    +0.169 C  
DOCKED: ATOM      6  C   UNL     1     -58.438 -36.849   5.348 -0.28 -0.00    -0.001 A  
DOCKED: ATOM      7  C   UNL     1     -60.527 -38.664   4.805 -0.37 +0.00    +0.008 A  
DOCKED: ATOM      8  C   UNL     1     -58.597 -37.385   4.068 -0.07 +0.00    +0.010 A  
DOCKED: ATOM      9  C   UNL     1     -59.637 -38.287   3.799 -0.36 +0.00    +0.068 A  
DOCKED: ATOM     10  N   UNL     1     -59.906 -39.258   1.412 -2.73 -0.00    -0.191 NA 
DOCKED: ATOM     11  C   UNL     1     -59.785 -38.823   2.482 -0.28 +0.00    +0.101 C  
DOCKED: ENDROOT
DOCKED: BRANCH   2  12
DOCKED: ATOM     12  C   UNL     1     -59.749 -35.348   7.958 -0.15 +0.00    +0.038 C  
DOCKED: BRANCH  12  13
DOCKED: ATOM     13  C   UNL     1     -61.261 -35.139   7.923 -0.17 +0.00    +0.038 C  
DOCKED: BRANCH  13  14
DOCKED: ATOM     14  C   UNL     1     -61.730 -34.313   9.120 -0.02 +0.00    +0.251 C  
DOCKED: BRANCH  14  15
DOCKED: ATOM     15  N   UNL     1     -61.809 -35.149  10.312 -0.02 +0.00    +0.141 N  
DOCKED: ATOM     16  C   UNL     1     -62.360 -34.392  11.437 +0.00 +0.00    +0.285 C  
DOCKED: ATOM     17  C   UNL     1     -62.623 -36.339  10.055 -0.00 +0.00    +0.285 C  
DOCKED: ENDBRANCH  14  15
DOCKED: ENDBRANCH  13  14
DOCKED: ENDBRANCH  12  13
DOCKED: ENDBRANCH   2  12
DOCKED: BRANCH   2  18
DOCKED: ATOM     18  C   UNL     1     -58.149 -37.163   8.540 -0.14 +0.00    +0.006 A  
DOCKED: ATOM     19  C   UNL     1     -58.236 -37.548   9.878 -0.10 +0.00    +0.001 A  
DOCKED: ATOM     20  C   UNL     1     -57.077 -37.869  10.586 -0.12 +0.00    +0.029 A  
DOCKED: ATOM     21  C   UNL     1     -55.835 -37.806   9.957 -0.03 +0.00    +0.140 A  
DOCKED: ATOM     22  C   UNL     1     -55.749 -37.421   8.619 -0.19 +0.00    +0.029 A  
DOCKED: ATOM     23  F   UNL     1     -54.724 -38.117  10.636 -0.02 -0.00    -0.204 F  
DOCKED: ATOM     24  C   UNL     1     -56.907 -37.099   7.910 -0.23 +0.00    +0.001 A  
DOCKED: ENDBRANCH   2  18
DOCKED: TORSDOF 5
DOCKED: TER
DOCKED: ENDMDL
________________________________________________________________________________


    FINAL DOCKED STATE:
    ________________________


Run:   314 / 512
Time taken for this run:   0.002s

DOCKED: MODEL        314
DOCKED: USER    Run = 314
DOCKED: USER
DOCKED: USER    Estimated Free Energy of Binding    =  -5.51 kcal/mol  [=(1)+(2)+(3)-(4)]
DOCKED: USER
DOCKED: USER    (1) Final Intermolecular Energy     =  -7.00 kcal/mol
DOCKED: USER        vdW + Hbond + desolv Energy     =  -7.00 kcal/mol
DOCKED: USER        Electrostatic Energy            =  +0.00 kcal/mol
DOCKED: USER        Moving Ligand-Fixed Receptor    =  -7.00 kcal/mol
DOCKED: USER        Moving Ligand-Moving Receptor   =  +0.00 kcal/mol
DOCKED: USER    (2) Final Total Internal Energy     =  -1.20 kcal/mol
DOCKED: USER    (3) Torsional Free Energy           =  +1.49 kcal/mol
DOCKED: USER    (4) Unbound System's Energy         =  -1.20 kcal/mol
DOCKED: USER
DOCKED: USER
DOCKED: REMARK  5 active torsions:
DOCKED: REMARK  status: ('A' for Active; 'I' for Inactive)
DOCKED: REMARK    1  A    between atoms: C_2  and  C_19 
DOCKED: REMARK    2  A    between atoms: C_2  and  C_11 
DOCKED: REMARK    3  A    between atoms: C_19  and  C_20 
DOCKED: REMARK    4  A    between atoms: C_20  and  C_21 
DOCKED: REMARK    5  A    between atoms: C_21  and  N_22 
DOCKED: USER                              x       y       z     vdW  Elec       q    Type
DOCKED: USER                           _______ _______ _______ _____ _____    ______ ____
DOCKED: ROOT
DOCKED: ATOM      1  O   UNL     1     -57.502 -36.194   8.267 -0.04 -0.00    -0.346 OA 
DOCKED: ATOM      2  C   UNL     1     -57.132 -37.610   8.223 -0.21 +0.00    +0.130 C  
DOCKED: ATOM      3  C   UNL     1     -57.666 -38.079   6.901 -0.33 +0.00    +0.004 A  
DOCKED: ATOM      4  C   UNL     1     -58.196 -37.004   6.202 -0.33 +0.00    +0.006 A  
DOCKED: ATOM      5  C   UNL     1     -58.040 -35.764   6.996 -0.21 +0.00    +0.169 C  
DOCKED: ATOM      6  C   UNL     1     -57.672 -39.355   6.355 -0.37 -0.00    -0.001 A  
DOCKED: ATOM      7  C   UNL     1     -58.750 -37.164   4.944 -0.24 +0.00    +0.008 A  
DOCKED: ATOM      8  C   UNL     1     -58.231 -39.534   5.089 -0.44 +0.00    +0.010 A  
DOCKED: ATOM      9  C   UNL     1     -58.768 -38.444   4.387 -0.40 +0.00    +0.068 A  
DOCKED: ATOM     10  N   UNL     1     -59.795 -38.810   2.037 -2.47 -0.00    -0.191 NA 
DOCKED: ATOM     11  C   UNL     1     -59.335 -38.646   3.091 -0.50 +0.00    +0.101 C  
DOCKED: ENDROOT
DOCKED: BRANCH   2  12
DOCKED: ATOM     12  C   UNL     1     -55.615 -37.715   8.322 -0.22 +0.00    +0.038 C  
DOCKED: BRANCH  12  13
DOCKED: ATOM     13  C   UNL     1     -54.940 -36.391   7.970 -0.09 +0.00    +0.038 C  
DOCKED: BRANCH  13  14
DOCKED: ATOM     14  C   UNL     1     -54.674 -35.559   9.223 -0.06 +0.00    +0.251 C  
DOCKED: BRANCH  14  15
DOCKED: ATOM     15  N   UNL     1     -54.102 -34.268   8.863 -0.03 +0.00    +0.141 N  
DOCKED: ATOM     16  C   UNL     1     -53.464 -34.335   7.547 -0.06 +0.00    +0.285 C  
DOCKED: ATOM     17  C   UNL     1     -55.130 -33.226   8.876 -0.01 +0.00    +0.285 C  
DOCKED: ENDBRANCH  14  15
DOCKED: ENDBRANCH  13  14
DOCKED: ENDBRANCH  12  13
DOCKED: ENDBRANCH   2  12
DOCKED: BRANCH   2  18
DOCKED: ATOM     18  C   UNL     1     -57.794 -38.270   9.386 -0.18 +0.00    +0.006 A  
DOCKED: ATOM     19  C   UNL     1     -59.137 -38.637   9.306 -0.18 +0.00    +0.001 A  
DOCKED: ATOM     20  C   UNL     1     -59.756 -39.254  10.394 -0.15 +0.00    +0.029 A  
DOCKED: ATOM     21  C   UNL     1     -59.031 -39.505  11.559 -0.09 +0.00    +0.140 A  
DOCKED: ATOM     22  C   UNL     1     -57.687 -39.138  11.637 -0.18 +0.00    +0.029 A  
DOCKED: ATOM     23  F   UNL     1     -59.624 -40.099  12.602 -0.03 -0.00    -0.204 F  
DOCKED: ATOM     24  C   UNL     1     -57.068 -38.520  10.549 -0.17 +0.00    +0.001 A  
DOCKED: ENDBRANCH   2  18
DOCKED: TORSDOF 5
DOCKED: TER
DOCKED: ENDMDL
________________________________________________________________________________


    FINAL DOCKED STATE:
    ________________________


Run:   315 / 512
Time taken for this run:   0.002s

DOCKED: MODEL        315
DOCKED: USER    Run = 315
DOCKED: USER
DOCKED: USER    Estimated Free Energy of Binding    =  -5.65 kcal/mol  [=(1)+(2)+(3)-(4)]
DOCKED: USER
DOCKED: USER    (1) Final Intermolecular Energy     =  -7.14 kcal/mol
DOCKED: USER        vdW + Hbond + desolv Energy     =  -7.14 kcal/mol
DOCKED: USER        Electrostatic Energy            =  +0.00 kcal/mol
DOCKED: USER        Moving Ligand-Fixed Receptor    =  -7.14 kcal/mol
DOCKED: USER        Moving Ligand-Moving Receptor   =  +0.00 kcal/mol
DOCKED: USER    (2) Final Total Internal Energy     =  -1.43 kcal/mol
DOCKED: USER    (3) Torsional Free Energy           =  +1.49 kcal/mol
DOCKED: USER    (4) Unbound System's Energy         =  -1.43 kcal/mol
DOCKED: USER
DOCKED: USER
DOCKED: REMARK  5 active torsions:
DOCKED: REMARK  status: ('A' for Active; 'I' for Inactive)
DOCKED: REMARK    1  A    between atoms: C_2  and  C_19 
DOCKED: REMARK    2  A    between atoms: C_2  and  C_11 
DOCKED: REMARK    3  A    between atoms: C_19  and  C_20 
DOCKED: REMARK    4  A    between atoms: C_20  and  C_21 
DOCKED: REMARK    5  A    between atoms: C_21  and  N_22 
DOCKED: USER                              x       y       z     vdW  Elec       q    Type
DOCKED: USER                           _______ _______ _______ _____ _____    ______ ____
DOCKED: ROOT
DOCKED: ATOM      1  O   UNL     1     -57.522 -36.030   7.811 -0.06 -0.00    -0.346 OA 
DOCKED: ATOM      2  C   UNL     1     -57.389 -37.486   7.876 -0.22 +0.00    +0.130 C  
DOCKED: ATOM      3  C   UNL     1     -57.910 -37.954   6.548 -0.34 +0.00    +0.004 A  
DOCKED: ATOM      4  C   UNL     1     -58.210 -36.858   5.752 -0.33 +0.00    +0.006 A  
DOCKED: ATOM      5  C   UNL     1     -57.902 -35.608   6.481 -0.24 +0.00    +0.169 C  
DOCKED: ATOM      6  C   UNL     1     -58.093 -39.247   6.079 -0.40 -0.00    -0.001 A  
DOCKED: ATOM      7  C   UNL     1     -58.705 -37.014   4.468 +0.15 +0.00    +0.008 A  
DOCKED: ATOM      8  C   UNL     1     -58.595 -39.421   4.788 -0.49 +0.00    +0.010 A  
DOCKED: ATOM      9  C   UNL     1     -58.899 -38.310   3.987 -0.40 +0.00    +0.068 A  
DOCKED: ATOM     10  N   UNL     1     -59.824 -38.668   1.593 -3.09 -0.00    -0.191 NA 
DOCKED: ATOM     11  C   UNL     1     -59.410 -38.507   2.667 -0.43 +0.00    +0.101 C  
DOCKED: ENDROOT
DOCKED: BRANCH   2  12
DOCKED: ATOM     12  C   UNL     1     -55.919 -37.828   8.091 -0.24 +0.00    +0.038 C  
DOCKED: BRANCH  12  13
DOCKED: ATOM     13  C   UNL     1     -55.150 -36.642   8.670 -0.18 +0.00    +0.038 C  
DOCKED: BRANCH  13  14
DOCKED: ATOM     14  C   UNL     1     -54.574 -36.978  10.044 -0.08 +0.00    +0.251 C  
DOCKED: BRANCH  14  15
DOCKED: ATOM     15  N   UNL     1     -55.551 -36.693  11.087 -0.04 +0.00    +0.141 N  
DOCKED: ATOM     16  C   UNL     1     -54.884 -36.462  12.370 -0.01 +0.00    +0.285 C  
DOCKED: ATOM     17  C   UNL     1     -56.369 -35.534  10.725 -0.01 +0.00    +0.285 C  
DOCKED: ENDBRANCH  14  15
DOCKED: ENDBRANCH  13  14
DOCKED: ENDBRANCH  12  13
DOCKED: ENDBRANCH   2  12
DOCKED: BRANCH   2  18
DOCKED: ATOM     18  C   UNL     1     -58.222 -37.950   9.024 -0.15 +0.00    +0.006 A  
DOCKED: ATOM     19  C   UNL     1     -59.272 -37.158   9.487 -0.08 +0.00    +0.001 A  
DOCKED: ATOM     20  C   UNL     1     -60.051 -37.592  10.561 -0.06 +0.00    +0.029 A  
DOCKED: ATOM     21  C   UNL     1     -59.779 -38.816  11.169 -0.08 +0.00    +0.140 A  
DOCKED: ATOM     22  C   UNL     1     -58.729 -39.608  10.705 -0.09 +0.00    +0.029 A  
DOCKED: ATOM     23  F   UNL     1     -60.527 -39.234  12.198 -0.01 -0.00    -0.204 F  
DOCKED: ATOM     24  C   UNL     1     -57.949 -39.175   9.632 -0.25 +0.00    +0.001 A  
DOCKED: ENDBRANCH   2  18
DOCKED: TORSDOF 5
DOCKED: TER
DOCKED: ENDMDL
________________________________________________________________________________


    FINAL DOCKED STATE:
    ________________________


Run:   316 / 512
Time taken for this run:   0.002s

DOCKED: MODEL        316
DOCKED: USER    Run = 316
DOCKED: USER
DOCKED: USER    Estimated Free Energy of Binding    =  -5.58 kcal/mol  [=(1)+(2)+(3)-(4)]
DOCKED: USER
DOCKED: USER    (1) Final Intermolecular Energy     =  -7.07 kcal/mol
DOCKED: USER        vdW + Hbond + desolv Energy     =  -7.07 kcal/mol
DOCKED: USER        Electrostatic Energy            =  +0.00 kcal/mol
DOCKED: USER        Moving Ligand-Fixed Receptor    =  -7.07 kcal/mol
DOCKED: USER        Moving Ligand-Moving Receptor   =  +0.00 kcal/mol
DOCKED: USER    (2) Final Total Internal Energy     =  -1.18 kcal/mol
DOCKED: USER    (3) Torsional Free Energy           =  +1.49 kcal/mol
DOCKED: USER    (4) Unbound System's Energy         =  -1.18 kcal/mol
DOCKED: USER
DOCKED: USER
DOCKED: REMARK  5 active torsions:
DOCKED: REMARK  status: ('A' for Active; 'I' for Inactive)
DOCKED: REMARK    1  A    between atoms: C_2  and  C_19 
DOCKED: REMARK    2  A    between atoms: C_2  and  C_11 
DOCKED: REMARK    3  A    between atoms: C_19  and  C_20 
DOCKED: REMARK    4  A    between atoms: C_20  and  C_21 
DOCKED: REMARK    5  A    between atoms: C_21  and  N_22 
DOCKED: USER                              x       y       z     vdW  Elec       q    Type
DOCKED: USER                           _______ _______ _______ _____ _____    ______ ____
DOCKED: ROOT
DOCKED: ATOM      1  O   UNL     1     -57.295 -35.983   7.750 -0.07 -0.00    -0.346 OA 
DOCKED: ATOM      2  C   UNL     1     -57.125 -37.433   7.847 -0.22 +0.00    +0.130 C  
DOCKED: ATOM      3  C   UNL     1     -57.715 -37.951   6.568 -0.34 +0.00    +0.004 A  
DOCKED: ATOM      4  C   UNL     1     -58.089 -36.886   5.761 -0.31 +0.00    +0.006 A  
DOCKED: ATOM      5  C   UNL     1     -57.766 -35.608   6.434 -0.23 +0.00    +0.169 C  
DOCKED: ATOM      6  C   UNL     1     -57.896 -39.261   6.146 -0.42 -0.00    -0.001 A  
DOCKED: ATOM      7  C   UNL     1     -58.657 -37.090   4.515 -0.03 +0.00    +0.008 A  
DOCKED: ATOM      8  C   UNL     1     -58.471 -39.483   4.894 -0.48 +0.00    +0.010 A  
DOCKED: ATOM      9  C   UNL     1     -58.849 -38.403   4.083 -0.41 +0.00    +0.068 A  
DOCKED: ATOM     10  N   UNL     1     -59.910 -38.851   1.762 -2.81 -0.00    -0.191 NA 
DOCKED: ATOM     11  C   UNL     1     -59.435 -38.650   2.803 -0.45 +0.00    +0.101 C  
DOCKED: ENDROOT
DOCKED: BRANCH   2  12
DOCKED: ATOM     12  C   UNL     1     -55.637 -37.737   7.980 -0.21 +0.00    +0.038 C  
DOCKED: BRANCH  12  13
DOCKED: ATOM     13  C   UNL     1     -55.093 -37.274   9.331 -0.17 +0.00    +0.038 C  
DOCKED: BRANCH  13  14
DOCKED: ATOM     14  C   UNL     1     -54.958 -35.753   9.377 -0.06 +0.00    +0.251 C  
DOCKED: BRANCH  14  15
DOCKED: ATOM     15  N   UNL     1     -53.590 -35.356   9.066 -0.05 +0.00    +0.141 N  
DOCKED: ATOM     16  C   UNL     1     -53.551 -34.553   7.843 -0.06 +0.00    +0.285 C  
DOCKED: ATOM     17  C   UNL     1     -53.004 -34.611  10.182 -0.01 +0.00    +0.285 C  
DOCKED: ENDBRANCH  14  15
DOCKED: ENDBRANCH  13  14
DOCKED: ENDBRANCH  12  13
DOCKED: ENDBRANCH   2  12
DOCKED: BRANCH   2  18
DOCKED: ATOM     18  C   UNL     1     -57.876 -37.881   9.057 -0.16 +0.00    +0.006 A  
DOCKED: ATOM     19  C   UNL     1     -58.632 -36.964   9.786 -0.07 +0.00    +0.001 A  
DOCKED: ATOM     20  C   UNL     1     -59.334 -37.384  10.917 -0.05 +0.00    +0.029 A  
DOCKED: ATOM     21  C   UNL     1     -59.278 -38.718  11.317 -0.08 +0.00    +0.140 A  
DOCKED: ATOM     22  C   UNL     1     -58.521 -39.634  10.587 -0.13 +0.00    +0.029 A  
DOCKED: ATOM     23  F   UNL     1     -59.953 -39.121  12.401 -0.01 -0.00    -0.204 F  
DOCKED: ATOM     24  C   UNL     1     -57.819 -39.216   9.456 -0.25 +0.00    +0.001 A  
DOCKED: ENDBRANCH   2  18
DOCKED: TORSDOF 5
DOCKED: TER
DOCKED: ENDMDL
________________________________________________________________________________


    FINAL DOCKED STATE:
    ________________________


Run:   317 / 512
Time taken for this run:   0.002s

DOCKED: MODEL        317
DOCKED: USER    Run = 317
DOCKED: USER
DOCKED: USER    Estimated Free Energy of Binding    =  -4.73 kcal/mol  [=(1)+(2)+(3)-(4)]
DOCKED: USER
DOCKED: USER    (1) Final Intermolecular Energy     =  -6.22 kcal/mol
DOCKED: USER        vdW + Hbond + desolv Energy     =  -6.22 kcal/mol
DOCKED: USER        Electrostatic Energy            =  +0.00 kcal/mol
DOCKED: USER        Moving Ligand-Fixed Receptor    =  -6.22 kcal/mol
DOCKED: USER        Moving Ligand-Moving Receptor   =  +0.00 kcal/mol
DOCKED: USER    (2) Final Total Internal Energy     =  -1.29 kcal/mol
DOCKED: USER    (3) Torsional Free Energy           =  +1.49 kcal/mol
DOCKED: USER    (4) Unbound System's Energy         =  -1.29 kcal/mol
DOCKED: USER
DOCKED: USER
DOCKED: REMARK  5 active torsions:
DOCKED: REMARK  status: ('A' for Active; 'I' for Inactive)
DOCKED: REMARK    1  A    between atoms: C_2  and  C_19 
DOCKED: REMARK    2  A    between atoms: C_2  and  C_11 
DOCKED: REMARK    3  A    between atoms: C_19  and  C_20 
DOCKED: REMARK    4  A    between atoms: C_20  and  C_21 
DOCKED: REMARK    5  A    between atoms: C_21  and  N_22 
DOCKED: USER                              x       y       z     vdW  Elec       q    Type
DOCKED: USER                           _______ _______ _______ _____ _____    ______ ____
DOCKED: ROOT
DOCKED: ATOM      1  O   UNL     1     -59.683 -38.475   8.733 -0.04 -0.00    -0.346 OA 
DOCKED: ATOM      2  C   UNL     1     -58.960 -37.318   8.202 -0.12 +0.00    +0.130 C  
DOCKED: ATOM      3  C   UNL     1     -59.015 -37.511   6.715 -0.27 +0.00    +0.004 A  
DOCKED: ATOM      4  C   UNL     1     -59.796 -38.619   6.416 -0.29 +0.00    +0.006 A  
DOCKED: ATOM      5  C   UNL     1     -60.314 -39.220   7.665 -0.17 +0.00    +0.169 C  
DOCKED: ATOM      6  C   UNL     1     -58.432 -36.759   5.705 -0.33 -0.00    -0.001 A  
DOCKED: ATOM      7  C   UNL     1     -60.015 -39.014   5.108 -0.40 +0.00    +0.008 A  
DOCKED: ATOM      8  C   UNL     1     -58.640 -37.147   4.381 +0.02 +0.00    +0.010 A  
DOCKED: ATOM      9  C   UNL     1     -59.428 -38.269   4.084 -0.39 +0.00    +0.068 A  
DOCKED: ATOM     10  N   UNL     1     -59.799 -38.960   1.614 -2.88 -0.00    -0.191 NA 
DOCKED: ATOM     11  C   UNL     1     -59.632 -38.650   2.722 -0.34 +0.00    +0.101 C  
DOCKED: ENDROOT
DOCKED: BRANCH   2  12
DOCKED: ATOM     12  C   UNL     1     -59.670 -36.051   8.664 -0.09 +0.00    +0.038 C  
DOCKED: BRANCH  12  13
DOCKED: ATOM     13  C   UNL     1     -59.582 -35.884  10.179 -0.04 +0.00    +0.038 C  
DOCKED: BRANCH  13  14
DOCKED: ATOM     14  C   UNL     1     -60.828 -36.437  10.867 -0.01 +0.00    +0.251 C  
DOCKED: BRANCH  14  15
DOCKED: ATOM     15  N   UNL     1     -60.532 -37.714  11.504 -0.03 +0.00    +0.141 N  
DOCKED: ATOM     16  C   UNL     1     -60.419 -37.554  12.955 -0.01 +0.00    +0.285 C  
DOCKED: ATOM     17  C   UNL     1     -61.562 -38.703  11.181 -0.04 +0.00    +0.285 C  
DOCKED: ENDBRANCH  14  15
DOCKED: ENDBRANCH  13  14
DOCKED: ENDBRANCH  12  13
DOCKED: ENDBRANCH   2  12
DOCKED: BRANCH   2  18
DOCKED: ATOM     18  C   UNL     1     -57.571 -37.385   8.746 -0.15 +0.00    +0.006 A  
DOCKED: ATOM     19  C   UNL     1     -56.528 -36.754   8.070 -0.20 +0.00    +0.001 A  
DOCKED: ATOM     20  C   UNL     1     -55.230 -36.817   8.580 -0.17 +0.00    +0.029 A  
DOCKED: ATOM     21  C   UNL     1     -54.978 -37.511   9.762 -0.05 +0.00    +0.140 A  
DOCKED: ATOM     22  C   UNL     1     -56.023 -38.142  10.437 -0.05 +0.00    +0.029 A  
DOCKED: ATOM     23  F   UNL     1     -53.733 -37.570  10.252 -0.03 -0.00    -0.204 F  
DOCKED: ATOM     24  C   UNL     1     -57.321 -38.079   9.929 -0.15 +0.00    +0.001 A  
DOCKED: ENDBRANCH   2  18
DOCKED: TORSDOF 5
DOCKED: TER
DOCKED: ENDMDL
________________________________________________________________________________


    FINAL DOCKED STATE:
    ________________________


Run:   318 / 512
Time taken for this run:   0.002s

DOCKED: MODEL        318
DOCKED: USER    Run = 318
DOCKED: USER
DOCKED: USER    Estimated Free Energy of Binding    =  -5.16 kcal/mol  [=(1)+(2)+(3)-(4)]
DOCKED: USER
DOCKED: USER    (1) Final Intermolecular Energy     =  -6.65 kcal/mol
DOCKED: USER        vdW + Hbond + desolv Energy     =  -6.65 kcal/mol
DOCKED: USER        Electrostatic Energy            =  +0.00 kcal/mol
DOCKED: USER        Moving Ligand-Fixed Receptor    =  -6.65 kcal/mol
DOCKED: USER        Moving Ligand-Moving Receptor   =  +0.00 kcal/mol
DOCKED: USER    (2) Final Total Internal Energy     =  -0.86 kcal/mol
DOCKED: USER    (3) Torsional Free Energy           =  +1.49 kcal/mol
DOCKED: USER    (4) Unbound System's Energy         =  -0.86 kcal/mol
DOCKED: USER
DOCKED: USER
DOCKED: REMARK  5 active torsions:
DOCKED: REMARK  status: ('A' for Active; 'I' for Inactive)
DOCKED: REMARK    1  A    between atoms: C_2  and  C_19 
DOCKED: REMARK    2  A    between atoms: C_2  and  C_11 
DOCKED: REMARK    3  A    between atoms: C_19  and  C_20 
DOCKED: REMARK    4  A    between atoms: C_20  and  C_21 
DOCKED: REMARK    5  A    between atoms: C_21  and  N_22 
DOCKED: USER                              x       y       z     vdW  Elec       q    Type
DOCKED: USER                           _______ _______ _______ _____ _____    ______ ____
DOCKED: ROOT
DOCKED: ATOM      1  O   UNL     1     -52.851 -30.092  -0.375 -0.02 -0.00    -0.346 OA 
DOCKED: ATOM      2  C   UNL     1     -54.251 -30.197   0.038 -0.16 +0.00    +0.130 C  
DOCKED: ATOM      3  C   UNL     1     -54.995 -29.428  -1.014 -0.28 +0.00    +0.004 A  
DOCKED: ATOM      4  C   UNL     1     -54.112 -29.014  -2.002 -0.23 +0.00    +0.006 A  
DOCKED: ATOM      5  C   UNL     1     -52.745 -29.484  -1.683 -0.08 +0.00    +0.169 C  
DOCKED: ATOM      6  C   UNL     1     -56.347 -29.128  -1.097 -0.20 -0.00    -0.001 A  
DOCKED: ATOM      7  C   UNL     1     -54.546 -28.287  -3.097 -0.28 +0.00    +0.008 A  
DOCKED: ATOM      8  C   UNL     1     -56.799 -28.392  -2.193 -0.37 +0.00    +0.010 A  
DOCKED: ATOM      9  C   UNL     1     -55.903 -27.974  -3.189 -0.28 +0.00    +0.068 A  
DOCKED: ATOM     10  N   UNL     1     -56.777 -26.614  -5.213 -2.42 -0.00    -0.191 NA 
DOCKED: ATOM     11  C   UNL     1     -56.385 -27.223  -4.305 -0.38 +0.00    +0.101 C  
DOCKED: ENDROOT
DOCKED: BRANCH   2  12
DOCKED: ATOM     12  C   UNL     1     -54.633 -31.672   0.077 -0.21 +0.00    +0.038 C  
DOCKED: BRANCH  12  13
DOCKED: ATOM     13  C   UNL     1     -54.905 -32.139   1.506 -0.18 +0.00    +0.038 C  
DOCKED: BRANCH  13  14
DOCKED: ATOM     14  C   UNL     1     -53.767 -33.016   2.023 -0.09 +0.00    +0.251 C  
DOCKED: BRANCH  14  15
DOCKED: ATOM     15  N   UNL     1     -54.124 -34.426   1.918 -0.22 +0.00    +0.141 N  
DOCKED: ATOM     16  C   UNL     1     -55.528 -34.575   1.529 -0.07 +0.00    +0.285 C  
DOCKED: ATOM     17  C   UNL     1     -53.256 -35.108   0.956 -0.19 +0.00    +0.285 C  
DOCKED: ENDBRANCH  14  15
DOCKED: ENDBRANCH  13  14
DOCKED: ENDBRANCH  12  13
DOCKED: ENDBRANCH   2  12
DOCKED: BRANCH   2  18
DOCKED: ATOM     18  C   UNL     1     -54.353 -29.578   1.393 -0.18 +0.00    +0.006 A  
DOCKED: ATOM     19  C   UNL     1     -53.196 -29.271   2.107 -0.13 +0.00    +0.001 A  
DOCKED: ATOM     20  C   UNL     1     -53.294 -28.693   3.374 -0.10 +0.00    +0.029 A  
DOCKED: ATOM     21  C   UNL     1     -54.546 -28.422   3.923 -0.12 +0.00    +0.140 A  
DOCKED: ATOM     22  C   UNL     1     -55.703 -28.730   3.207 -0.20 +0.00    +0.029 A  
DOCKED: ATOM     23  F   UNL     1     -54.639 -27.866   5.137 -0.04 -0.00    -0.204 F  
DOCKED: ATOM     24  C   UNL     1     -55.607 -29.309   1.940 -0.23 +0.00    +0.001 A  
DOCKED: ENDBRANCH   2  18
DOCKED: TORSDOF 5
DOCKED: TER
DOCKED: ENDMDL
________________________________________________________________________________


    FINAL DOCKED STATE:
    ________________________


Run:   319 / 512
Time taken for this run:   0.002s

DOCKED: MODEL        319
DOCKED: USER    Run = 319
DOCKED: USER
DOCKED: USER    Estimated Free Energy of Binding    =  -4.41 kcal/mol  [=(1)+(2)+(3)-(4)]
DOCKED: USER
DOCKED: USER    (1) Final Intermolecular Energy     =  -5.90 kcal/mol
DOCKED: USER        vdW + Hbond + desolv Energy     =  -5.90 kcal/mol
DOCKED: USER        Electrostatic Energy            =  +0.00 kcal/mol
DOCKED: USER        Moving Ligand-Fixed Receptor    =  -5.90 kcal/mol
DOCKED: USER        Moving Ligand-Moving Receptor   =  +0.00 kcal/mol
DOCKED: USER    (2) Final Total Internal Energy     =  -1.44 kcal/mol
DOCKED: USER    (3) Torsional Free Energy           =  +1.49 kcal/mol
DOCKED: USER    (4) Unbound System's Energy         =  -1.44 kcal/mol
DOCKED: USER
DOCKED: USER
DOCKED: REMARK  5 active torsions:
DOCKED: REMARK  status: ('A' for Active; 'I' for Inactive)
DOCKED: REMARK    1  A    between atoms: C_2  and  C_19 
DOCKED: REMARK    2  A    between atoms: C_2  and  C_11 
DOCKED: REMARK    3  A    between atoms: C_19  and  C_20 
DOCKED: REMARK    4  A    between atoms: C_20  and  C_21 
DOCKED: REMARK    5  A    between atoms: C_21  and  N_22 
DOCKED: USER                              x       y       z     vdW  Elec       q    Type
DOCKED: USER                           _______ _______ _______ _____ _____    ______ ____
DOCKED: ROOT
DOCKED: ATOM      1  O   UNL     1     -57.456 -33.993   7.704 -0.03 -0.00    -0.346 OA 
DOCKED: ATOM      2  C   UNL     1     -58.916 -34.062   7.771 -0.13 +0.00    +0.130 C  
DOCKED: ATOM      3  C   UNL     1     -59.239 -35.417   7.211 -0.21 +0.00    +0.004 A  
DOCKED: ATOM      4  C   UNL     1     -58.063 -36.106   6.950 -0.26 +0.00    +0.006 A  
DOCKED: ATOM      5  C   UNL     1     -56.899 -35.273   7.325 -0.17 +0.00    +0.169 C  
DOCKED: ATOM      6  C   UNL     1     -60.474 -35.997   6.963 -0.22 -0.00    -0.001 A  
DOCKED: ATOM      7  C   UNL     1     -58.081 -37.390   6.432 -0.33 +0.00    +0.008 A  
DOCKED: ATOM      8  C   UNL     1     -60.508 -37.290   6.437 -0.24 +0.00    +0.010 A  
DOCKED: ATOM      9  C   UNL     1     -59.317 -37.982   6.173 -0.26 +0.00    +0.068 A  
DOCKED: ATOM     10  N   UNL     1     -59.416 -40.382   5.200 -2.52 -0.00    -0.191 NA 
DOCKED: ATOM     11  C   UNL     1     -59.372 -39.305   5.636 -0.37 +0.00    +0.101 C  
DOCKED: ENDROOT
DOCKED: BRANCH   2  12
DOCKED: ATOM     12  C   UNL     1     -59.340 -33.904   9.226 -0.04 +0.00    +0.038 C  
DOCKED: BRANCH  12  13
DOCKED: ATOM     13  C   UNL     1     -58.462 -34.740  10.155 -0.03 +0.00    +0.038 C  
DOCKED: BRANCH  13  14
DOCKED: ATOM     14  C   UNL     1     -59.298 -35.751  10.939 -0.00 +0.00    +0.251 C  
DOCKED: BRANCH  14  15
DOCKED: ATOM     15  N   UNL     1     -58.740 -37.090  10.796 -0.03 +0.00    +0.141 N  
DOCKED: ATOM     16  C   UNL     1     -59.474 -37.850   9.784 -0.04 +0.00    +0.285 C  
DOCKED: ATOM     17  C   UNL     1     -57.319 -37.022  10.449 -0.04 +0.00    +0.285 C  
DOCKED: ENDBRANCH  14  15
DOCKED: ENDBRANCH  13  14
DOCKED: ENDBRANCH  12  13
DOCKED: ENDBRANCH   2  12
DOCKED: BRANCH   2  18
DOCKED: ATOM     18  C   UNL     1     -59.445 -32.945   6.933 -0.19 +0.00    +0.006 A  
DOCKED: ATOM     19  C   UNL     1     -58.565 -32.144   6.205 -0.16 +0.00    +0.001 A  
DOCKED: ATOM     20  C   UNL     1     -59.061 -31.101   5.422 -0.15 +0.00    +0.029 A  
DOCKED: ATOM     21  C   UNL     1     -60.433 -30.860   5.367 -0.08 +0.00    +0.140 A  
DOCKED: ATOM     22  C   UNL     1     -61.311 -31.663   6.095 -0.16 +0.00    +0.029 A  
DOCKED: ATOM     23  F   UNL     1     -60.908 -29.860   4.614 -0.03 -0.00    -0.204 F  
DOCKED: ATOM     24  C   UNL     1     -60.817 -32.706   6.879 -0.21 +0.00    +0.001 A  
DOCKED: ENDBRANCH   2  18
DOCKED: TORSDOF 5
DOCKED: TER
DOCKED: ENDMDL
________________________________________________________________________________


    FINAL DOCKED STATE:
    ________________________


Run:   320 / 512
Time taken for this run:   0.002s

DOCKED: MODEL        320
DOCKED: USER    Run = 320
DOCKED: USER
DOCKED: USER    Estimated Free Energy of Binding    =  -3.80 kcal/mol  [=(1)+(2)+(3)-(4)]
DOCKED: USER
DOCKED: USER    (1) Final Intermolecular Energy     =  -5.29 kcal/mol
DOCKED: USER        vdW + Hbond + desolv Energy     =  -5.29 kcal/mol
DOCKED: USER        Electrostatic Energy            =  +0.00 kcal/mol
DOCKED: USER        Moving Ligand-Fixed Receptor    =  -5.29 kcal/mol
DOCKED: USER        Moving Ligand-Moving Receptor   =  +0.00 kcal/mol
DOCKED: USER    (2) Final Total Internal Energy     =  -1.22 kcal/mol
DOCKED: USER    (3) Torsional Free Energy           =  +1.49 kcal/mol
DOCKED: USER    (4) Unbound System's Energy         =  -1.22 kcal/mol
DOCKED: USER
DOCKED: USER
DOCKED: REMARK  5 active torsions:
DOCKED: REMARK  status: ('A' for Active; 'I' for Inactive)
DOCKED: REMARK    1  A    between atoms: C_2  and  C_19 
DOCKED: REMARK    2  A    between atoms: C_2  and  C_11 
DOCKED: REMARK    3  A    between atoms: C_19  and  C_20 
DOCKED: REMARK    4  A    between atoms: C_20  and  C_21 
DOCKED: REMARK    5  A    between atoms: C_21  and  N_22 
DOCKED: USER                              x       y       z     vdW  Elec       q    Type
DOCKED: USER                           _______ _______ _______ _____ _____    ______ ____
DOCKED: ROOT
DOCKED: ATOM      1  O   UNL     1     -50.568 -34.600   1.402 +0.01 -0.00    -0.346 OA 
DOCKED: ATOM      2  C   UNL     1     -50.804 -35.540   0.305 -0.08 +0.00    +0.130 C  
DOCKED: ATOM      3  C   UNL     1     -51.136 -36.829   1.000 -0.14 +0.00    +0.004 A  
DOCKED: ATOM      4  C   UNL     1     -51.194 -36.618   2.371 -0.15 +0.00    +0.006 A  
DOCKED: ATOM      5  C   UNL     1     -50.921 -35.195   2.672 -0.06 +0.00    +0.169 C  
DOCKED: ATOM      6  C   UNL     1     -51.378 -38.084   0.462 -0.13 -0.00    -0.001 A  
DOCKED: ATOM      7  C   UNL     1     -51.489 -37.649   3.246 -0.24 +0.00    +0.008 A  
DOCKED: ATOM      8  C   UNL     1     -51.673 -39.135   1.332 -0.30 +0.00    +0.010 A  
DOCKED: ATOM      9  C   UNL     1     -51.729 -38.918   2.717 -0.31 +0.00    +0.068 A  
DOCKED: ATOM     10  N   UNL     1     -52.285 -40.890   4.304 -2.58 -0.00    -0.191 NA 
DOCKED: ATOM     11  C   UNL     1     -52.035 -40.006   3.592 -0.33 +0.00    +0.101 C  
DOCKED: ENDROOT
DOCKED: BRANCH   2  12
DOCKED: ATOM     12  C   UNL     1     -51.954 -35.012  -0.545 -0.16 +0.00    +0.038 C  
DOCKED: BRANCH  12  13
DOCKED: ATOM     13  C   UNL     1     -51.630 -33.636  -1.126 -0.09 +0.00    +0.038 C  
DOCKED: BRANCH  13  14
DOCKED: ATOM     14  C   UNL     1     -51.300 -33.733  -2.614 -0.06 +0.00    +0.251 C  
DOCKED: BRANCH  14  15
DOCKED: ATOM     15  N   UNL     1     -52.220 -34.647  -3.280 -0.20 +0.00    +0.141 N  
DOCKED: ATOM     16  C   UNL     1     -53.373 -33.920  -3.814 -0.21 +0.00    +0.285 C  
DOCKED: ATOM     17  C   UNL     1     -51.539 -35.376  -4.351 -0.14 +0.00    +0.285 C  
DOCKED: ENDBRANCH  14  15
DOCKED: ENDBRANCH  13  14
DOCKED: ENDBRANCH  12  13
DOCKED: ENDBRANCH   2  12
DOCKED: BRANCH   2  18
DOCKED: ATOM     18  C   UNL     1     -49.540 -35.614  -0.485 -0.03 +0.00    +0.006 A  
DOCKED: ATOM     19  C   UNL     1     -48.407 -34.927  -0.053 -0.00 +0.00    +0.001 A  
DOCKED: ATOM     20  C   UNL     1     -47.226 -34.997  -0.793 -0.00 +0.00    +0.029 A  
DOCKED: ATOM     21  C   UNL     1     -47.180 -35.753  -1.963 +0.00 +0.00    +0.140 A  
DOCKED: ATOM     22  C   UNL     1     -48.314 -36.441  -2.395 -0.01 +0.00    +0.029 A  
DOCKED: ATOM     23  F   UNL     1     -46.046 -35.822  -2.672 +0.00 -0.00    -0.204 F  
DOCKED: ATOM     24  C   UNL     1     -49.496 -36.371  -1.655 -0.06 +0.00    +0.001 A  
DOCKED: ENDBRANCH   2  18
DOCKED: TORSDOF 5
DOCKED: TER
DOCKED: ENDMDL
________________________________________________________________________________


    FINAL DOCKED STATE:
    ________________________


Run:   321 / 512
Time taken for this run:   0.002s

DOCKED: MODEL        321
DOCKED: USER    Run = 321
DOCKED: USER
DOCKED: USER    Estimated Free Energy of Binding    =  -3.76 kcal/mol  [=(1)+(2)+(3)-(4)]
DOCKED: USER
DOCKED: USER    (1) Final Intermolecular Energy     =  -5.25 kcal/mol
DOCKED: USER        vdW + Hbond + desolv Energy     =  -5.25 kcal/mol
DOCKED: USER        Electrostatic Energy            =  +0.00 kcal/mol
DOCKED: USER        Moving Ligand-Fixed Receptor    =  -5.25 kcal/mol
DOCKED: USER        Moving Ligand-Moving Receptor   =  +0.00 kcal/mol
DOCKED: USER    (2) Final Total Internal Energy     =  -1.47 kcal/mol
DOCKED: USER    (3) Torsional Free Energy           =  +1.49 kcal/mol
DOCKED: USER    (4) Unbound System's Energy         =  -1.47 kcal/mol
DOCKED: USER
DOCKED: USER
DOCKED: REMARK  5 active torsions:
DOCKED: REMARK  status: ('A' for Active; 'I' for Inactive)
DOCKED: REMARK    1  A    between atoms: C_2  and  C_19 
DOCKED: REMARK    2  A    between atoms: C_2  and  C_11 
DOCKED: REMARK    3  A    between atoms: C_19  and  C_20 
DOCKED: REMARK    4  A    between atoms: C_20  and  C_21 
DOCKED: REMARK    5  A    between atoms: C_21  and  N_22 
DOCKED: USER                              x       y       z     vdW  Elec       q    Type
DOCKED: USER                           _______ _______ _______ _____ _____    ______ ____
DOCKED: ROOT
DOCKED: ATOM      1  O   UNL     1     -55.700 -37.230  10.245 -0.05 -0.00    -0.346 OA 
DOCKED: ATOM      2  C   UNL     1     -55.700 -36.327   9.094 -0.12 +0.00    +0.130 C  
DOCKED: ATOM      3  C   UNL     1     -56.621 -36.993   8.114 -0.21 +0.00    +0.004 A  
DOCKED: ATOM      4  C   UNL     1     -57.185 -38.120   8.695 -0.22 +0.00    +0.006 A  
DOCKED: ATOM      5  C   UNL     1     -56.694 -38.268  10.083 -0.08 +0.00    +0.169 C  
DOCKED: ATOM      6  C   UNL     1     -56.944 -36.625   6.816 -0.16 -0.00    -0.001 A  
DOCKED: ATOM      7  C   UNL     1     -58.082 -38.916   8.003 -0.28 +0.00    +0.008 A  
DOCKED: ATOM      8  C   UNL     1     -57.843 -37.420   6.103 -0.33 +0.00    +0.010 A  
DOCKED: ATOM      9  C   UNL     1     -58.409 -38.559   6.694 -0.29 +0.00    +0.068 A  
DOCKED: ATOM     10  N   UNL     1     -60.079 -40.009   5.344 -2.35 -0.00    -0.191 NA 
DOCKED: ATOM     11  C   UNL     1     -59.329 -39.359   5.949 -0.24 +0.00    +0.101 C  
DOCKED: ENDROOT
DOCKED: BRANCH   2  12
DOCKED: ATOM     12  C   UNL     1     -56.205 -34.963   9.551 -0.05 +0.00    +0.038 C  
DOCKED: BRANCH  12  13
DOCKED: ATOM     13  C   UNL     1     -57.465 -35.093  10.404 -0.03 +0.00    +0.038 C  
DOCKED: BRANCH  13  14
DOCKED: ATOM     14  C   UNL     1     -58.719 -34.811   9.579 -0.02 +0.00    +0.251 C  
DOCKED: BRANCH  14  15
DOCKED: ATOM     15  N   UNL     1     -59.596 -35.975   9.574 -0.03 +0.00    +0.141 N  
DOCKED: ATOM     16  C   UNL     1     -60.316 -36.084  10.843 -0.00 +0.00    +0.285 C  
DOCKED: ATOM     17  C   UNL     1     -60.540 -35.905   8.458 -0.03 +0.00    +0.285 C  
DOCKED: ENDBRANCH  14  15
DOCKED: ENDBRANCH  13  14
DOCKED: ENDBRANCH  12  13
DOCKED: ENDBRANCH   2  12
DOCKED: BRANCH   2  18
DOCKED: ATOM     18  C   UNL     1     -54.292 -36.244   8.605 -0.14 +0.00    +0.006 A  
DOCKED: ATOM     19  C   UNL     1     -53.795 -35.037   8.115 -0.11 +0.00    +0.001 A  
DOCKED: ATOM     20  C   UNL     1     -52.479 -34.960   7.658 -0.09 +0.00    +0.029 A  
DOCKED: ATOM     21  C   UNL     1     -51.662 -36.090   7.692 -0.08 +0.00    +0.140 A  
DOCKED: ATOM     22  C   UNL     1     -52.161 -37.297   8.182 -0.16 +0.00    +0.029 A  
DOCKED: ATOM     23  F   UNL     1     -50.399 -36.016   7.254 -0.00 -0.00    -0.204 F  
DOCKED: ATOM     24  C   UNL     1     -53.477 -37.374   8.639 -0.18 +0.00    +0.001 A  
DOCKED: ENDBRANCH   2  18
DOCKED: TORSDOF 5
DOCKED: TER
DOCKED: ENDMDL
________________________________________________________________________________


    FINAL DOCKED STATE:
    ________________________


Run:   322 / 512
Time taken for this run:   0.002s

DOCKED: MODEL        322
DOCKED: USER    Run = 322
DOCKED: USER
DOCKED: USER    Estimated Free Energy of Binding    =  -5.26 kcal/mol  [=(1)+(2)+(3)-(4)]
DOCKED: USER
DOCKED: USER    (1) Final Intermolecular Energy     =  -6.75 kcal/mol
DOCKED: USER        vdW + Hbond + desolv Energy     =  -6.75 kcal/mol
DOCKED: USER        Electrostatic Energy            =  +0.00 kcal/mol
DOCKED: USER        Moving Ligand-Fixed Receptor    =  -6.75 kcal/mol
DOCKED: USER        Moving Ligand-Moving Receptor   =  +0.00 kcal/mol
DOCKED: USER    (2) Final Total Internal Energy     =  -1.07 kcal/mol
DOCKED: USER    (3) Torsional Free Energy           =  +1.49 kcal/mol
DOCKED: USER    (4) Unbound System's Energy         =  -1.07 kcal/mol
DOCKED: USER
DOCKED: USER
DOCKED: REMARK  5 active torsions:
DOCKED: REMARK  status: ('A' for Active; 'I' for Inactive)
DOCKED: REMARK    1  A    between atoms: C_2  and  C_19 
DOCKED: REMARK    2  A    between atoms: C_2  and  C_11 
DOCKED: REMARK    3  A    between atoms: C_19  and  C_20 
DOCKED: REMARK    4  A    between atoms: C_20  and  C_21 
DOCKED: REMARK    5  A    between atoms: C_21  and  N_22 
DOCKED: USER                              x       y       z     vdW  Elec       q    Type
DOCKED: USER                           _______ _______ _______ _____ _____    ______ ____
DOCKED: ROOT
DOCKED: ATOM      1  O   UNL     1     -57.770 -36.056   8.174 -0.03 -0.00    -0.346 OA 
DOCKED: ATOM      2  C   UNL     1     -57.330 -37.452   8.162 -0.19 +0.00    +0.130 C  
DOCKED: ATOM      3  C   UNL     1     -57.813 -37.970   6.839 -0.33 +0.00    +0.004 A  
DOCKED: ATOM      4  C   UNL     1     -58.381 -36.934   6.111 -0.33 +0.00    +0.006 A  
DOCKED: ATOM      5  C   UNL     1     -58.303 -35.675   6.884 -0.21 +0.00    +0.169 C  
DOCKED: ATOM      6  C   UNL     1     -57.744 -39.253   6.316 -0.41 -0.00    -0.001 A  
DOCKED: ATOM      7  C   UNL     1     -58.901 -37.144   4.845 -0.09 +0.00    +0.008 A  
DOCKED: ATOM      8  C   UNL     1     -58.269 -39.482   5.042 -0.46 +0.00    +0.010 A  
DOCKED: ATOM      9  C   UNL     1     -58.844 -38.432   4.311 -0.41 +0.00    +0.068 A  
DOCKED: ATOM     10  N   UNL     1     -59.803 -38.889   1.948 -2.59 -0.00    -0.191 NA 
DOCKED: ATOM     11  C   UNL     1     -59.373 -38.684   3.008 -0.49 +0.00    +0.101 C  
DOCKED: ENDROOT
DOCKED: BRANCH   2  12
DOCKED: ATOM     12  C   UNL     1     -55.812 -37.480   8.293 -0.24 +0.00    +0.038 C  
DOCKED: BRANCH  12  13
DOCKED: ATOM     13  C   UNL     1     -55.209 -36.091   8.091 -0.15 +0.00    +0.038 C  
DOCKED: BRANCH  13  14
DOCKED: ATOM     14  C   UNL     1     -55.042 -35.367   9.426 -0.04 +0.00    +0.251 C  
DOCKED: BRANCH  14  15
DOCKED: ATOM     15  N   UNL     1     -53.640 -35.034   9.650 -0.03 +0.00    +0.141 N  
DOCKED: ATOM     16  C   UNL     1     -53.439 -33.585   9.602 -0.01 +0.00    +0.285 C  
DOCKED: ATOM     17  C   UNL     1     -53.182 -35.568  10.933 -0.01 +0.00    +0.285 C  
DOCKED: ENDBRANCH  14  15
DOCKED: ENDBRANCH  13  14
DOCKED: ENDBRANCH  12  13
DOCKED: ENDBRANCH   2  12
DOCKED: BRANCH   2  18
DOCKED: ATOM     18  C   UNL     1     -57.982 -38.125   9.323 -0.16 +0.00    +0.006 A  
DOCKED: ATOM     19  C   UNL     1     -59.144 -37.588   9.877 -0.09 +0.00    +0.001 A  
DOCKED: ATOM     20  C   UNL     1     -59.753 -38.218  10.963 -0.09 +0.00    +0.029 A  
DOCKED: ATOM     21  C   UNL     1     -59.201 -39.383  11.493 -0.10 +0.00    +0.140 A  
DOCKED: ATOM     22  C   UNL     1     -58.039 -39.919  10.939 -0.11 +0.00    +0.029 A  
DOCKED: ATOM     23  F   UNL     1     -59.787 -39.988  12.534 -0.03 -0.00    -0.204 F  
DOCKED: ATOM     24  C   UNL     1     -57.428 -39.290   9.853 -0.15 +0.00    +0.001 A  
DOCKED: ENDBRANCH   2  18
DOCKED: TORSDOF 5
DOCKED: TER
DOCKED: ENDMDL
________________________________________________________________________________


    FINAL DOCKED STATE:
    ________________________


Run:   323 / 512
Time taken for this run:   0.002s

DOCKED: MODEL        323
DOCKED: USER    Run = 323
DOCKED: USER
DOCKED: USER    Estimated Free Energy of Binding    =  -4.00 kcal/mol  [=(1)+(2)+(3)-(4)]
DOCKED: USER
DOCKED: USER    (1) Final Intermolecular Energy     =  -5.49 kcal/mol
DOCKED: USER        vdW + Hbond + desolv Energy     =  -5.49 kcal/mol
DOCKED: USER        Electrostatic Energy            =  +0.00 kcal/mol
DOCKED: USER        Moving Ligand-Fixed Receptor    =  -5.49 kcal/mol
DOCKED: USER        Moving Ligand-Moving Receptor   =  +0.00 kcal/mol
DOCKED: USER    (2) Final Total Internal Energy     =  -0.99 kcal/mol
DOCKED: USER    (3) Torsional Free Energy           =  +1.49 kcal/mol
DOCKED: USER    (4) Unbound System's Energy         =  -0.99 kcal/mol
DOCKED: USER
DOCKED: USER
DOCKED: REMARK  5 active torsions:
DOCKED: REMARK  status: ('A' for Active; 'I' for Inactive)
DOCKED: REMARK    1  A    between atoms: C_2  and  C_19 
DOCKED: REMARK    2  A    between atoms: C_2  and  C_11 
DOCKED: REMARK    3  A    between atoms: C_19  and  C_20 
DOCKED: REMARK    4  A    between atoms: C_20  and  C_21 
DOCKED: REMARK    5  A    between atoms: C_21  and  N_22 
DOCKED: USER                              x       y       z     vdW  Elec       q    Type
DOCKED: USER                           _______ _______ _______ _____ _____    ______ ____
DOCKED: ROOT
DOCKED: ATOM      1  O   UNL     1     -53.569 -29.988  -0.192 -0.04 -0.00    -0.346 OA 
DOCKED: ATOM      2  C   UNL     1     -52.665 -30.016  -1.342 -0.08 +0.00    +0.130 C  
DOCKED: ATOM      3  C   UNL     1     -53.423 -29.288  -2.414 -0.17 +0.00    +0.004 A  
DOCKED: ATOM      4  C   UNL     1     -54.608 -28.791  -1.892 -0.27 +0.00    +0.006 A  
DOCKED: ATOM      5  C   UNL     1     -54.710 -29.139  -0.457 -0.16 +0.00    +0.169 C  
DOCKED: ATOM      6  C   UNL     1     -53.084 -29.073  -3.742 -0.15 -0.00    -0.001 A  
DOCKED: ATOM      7  C   UNL     1     -55.494 -28.070  -2.675 -0.36 +0.00    +0.008 A  
DOCKED: ATOM      8  C   UNL     1     -53.969 -28.352  -4.546 -0.23 +0.00    +0.010 A  
DOCKED: ATOM      9  C   UNL     1     -55.168 -27.853  -4.014 -0.25 +0.00    +0.068 A  
DOCKED: ATOM     10  N   UNL     1     -56.785 -26.514  -5.532 -2.57 -0.00    -0.191 NA 
DOCKED: ATOM     11  C   UNL     1     -56.060 -27.115  -4.851 -0.35 +0.00    +0.101 C  
DOCKED: ENDROOT
DOCKED: BRANCH   2  12
DOCKED: ATOM     12  C   UNL     1     -51.368 -29.316  -0.953 -0.05 +0.00    +0.038 C  
DOCKED: BRANCH  12  13
DOCKED: ATOM     13  C   UNL     1     -50.467 -29.096  -2.167 -0.02 +0.00    +0.038 C  
DOCKED: BRANCH  13  14
DOCKED: ATOM     14  C   UNL     1     -49.016 -29.450  -1.846 -0.00 +0.00    +0.251 C  
DOCKED: BRANCH  14  15
DOCKED: ATOM     15  N   UNL     1     -48.567 -28.724  -0.664 -0.00 +0.00    +0.141 N  
DOCKED: ATOM     16  C   UNL     1     -48.275 -29.651   0.431 -0.00 +0.00    +0.285 C  
DOCKED: ATOM     17  C   UNL     1     -47.386 -27.916  -0.973 +0.00 +0.00    +0.285 C  
DOCKED: ENDBRANCH  14  15
DOCKED: ENDBRANCH  13  14
DOCKED: ENDBRANCH  12  13
DOCKED: ENDBRANCH   2  12
DOCKED: BRANCH   2  18
DOCKED: ATOM     18  C   UNL     1     -52.424 -31.451  -1.672 -0.07 +0.00    +0.006 A  
DOCKED: ATOM     19  C   UNL     1     -53.314 -32.135  -2.499 -0.20 +0.00    +0.001 A  
DOCKED: ATOM     20  C   UNL     1     -53.088 -33.477  -2.807 -0.23 +0.00    +0.029 A  
DOCKED: ATOM     21  C   UNL     1     -51.972 -34.133  -2.289 -0.14 +0.00    +0.140 A  
DOCKED: ATOM     22  C   UNL     1     -51.082 -33.448  -1.462 -0.04 +0.00    +0.029 A  
DOCKED: ATOM     23  F   UNL     1     -51.754 -35.420  -2.586 -0.08 -0.00    -0.204 F  
DOCKED: ATOM     24  C   UNL     1     -51.308 -32.106  -1.153 -0.02 +0.00    +0.001 A  
DOCKED: ENDBRANCH   2  18
DOCKED: TORSDOF 5
DOCKED: TER
DOCKED: ENDMDL
________________________________________________________________________________


    FINAL DOCKED STATE:
    ________________________


Run:   324 / 512
Time taken for this run:   0.002s

DOCKED: MODEL        324
DOCKED: USER    Run = 324
DOCKED: USER
DOCKED: USER    Estimated Free Energy of Binding    =  -4.25 kcal/mol  [=(1)+(2)+(3)-(4)]
DOCKED: USER
DOCKED: USER    (1) Final Intermolecular Energy     =  -5.74 kcal/mol
DOCKED: USER        vdW + Hbond + desolv Energy     =  -5.74 kcal/mol
DOCKED: USER        Electrostatic Energy            =  +0.00 kcal/mol
DOCKED: USER        Moving Ligand-Fixed Receptor    =  -5.74 kcal/mol
DOCKED: USER        Moving Ligand-Moving Receptor   =  +0.00 kcal/mol
DOCKED: USER    (2) Final Total Internal Energy     =  -1.24 kcal/mol
DOCKED: USER    (3) Torsional Free Energy           =  +1.49 kcal/mol
DOCKED: USER    (4) Unbound System's Energy         =  -1.24 kcal/mol
DOCKED: USER
DOCKED: USER
DOCKED: REMARK  5 active torsions:
DOCKED: REMARK  status: ('A' for Active; 'I' for Inactive)
DOCKED: REMARK    1  A    between atoms: C_2  and  C_19 
DOCKED: REMARK    2  A    between atoms: C_2  and  C_11 
DOCKED: REMARK    3  A    between atoms: C_19  and  C_20 
DOCKED: REMARK    4  A    between atoms: C_20  and  C_21 
DOCKED: REMARK    5  A    between atoms: C_21  and  N_22 
DOCKED: USER                              x       y       z     vdW  Elec       q    Type
DOCKED: USER                           _______ _______ _______ _____ _____    ______ ____
DOCKED: ROOT
DOCKED: ATOM      1  O   UNL     1     -55.462 -35.287   8.121 -0.07 -0.00    -0.346 OA 
DOCKED: ATOM      2  C   UNL     1     -56.700 -34.617   7.722 -0.13 +0.00    +0.130 C  
DOCKED: ATOM      3  C   UNL     1     -57.533 -35.720   7.135 -0.23 +0.00    +0.004 A  
DOCKED: ATOM      4  C   UNL     1     -56.875 -36.933   7.287 -0.24 +0.00    +0.006 A  
DOCKED: ATOM      5  C   UNL     1     -55.587 -36.722   7.984 -0.13 +0.00    +0.169 C  
DOCKED: ATOM      6  C   UNL     1     -58.778 -35.657   6.527 -0.26 -0.00    -0.001 A  
DOCKED: ATOM      7  C   UNL     1     -57.433 -38.116   6.834 -0.33 +0.00    +0.008 A  
DOCKED: ATOM      8  C   UNL     1     -59.352 -36.842   6.062 -0.26 +0.00    +0.010 A  
DOCKED: ATOM      9  C   UNL     1     -58.683 -38.065   6.215 -0.30 +0.00    +0.068 A  
DOCKED: ATOM     10  N   UNL     1     -59.778 -40.246   5.345 -2.55 -0.00    -0.191 NA 
DOCKED: ATOM     11  C   UNL     1     -59.287 -39.268   5.735 -0.37 +0.00    +0.101 C  
DOCKED: ENDROOT
DOCKED: BRANCH   2  12
DOCKED: ATOM     12  C   UNL     1     -57.331 -33.991   8.960 -0.05 +0.00    +0.038 C  
DOCKED: BRANCH  12  13
DOCKED: ATOM     13  C   UNL     1     -58.274 -34.968   9.659 -0.04 +0.00    +0.038 C  
DOCKED: BRANCH  13  14
DOCKED: ATOM     14  C   UNL     1     -59.465 -34.237  10.275 -0.00 +0.00    +0.251 C  
DOCKED: BRANCH  14  15
DOCKED: ATOM     15  N   UNL     1     -60.076 -33.347   9.294 -0.02 +0.00    +0.141 N  
DOCKED: ATOM     16  C   UNL     1     -61.020 -34.080   8.449 -0.04 +0.00    +0.285 C  
DOCKED: ATOM     17  C   UNL     1     -60.752 -32.232   9.961 -0.00 +0.00    +0.285 C  
DOCKED: ENDBRANCH  14  15
DOCKED: ENDBRANCH  13  14
DOCKED: ENDBRANCH  12  13
DOCKED: ENDBRANCH   2  12
DOCKED: BRANCH   2  18
DOCKED: ATOM     18  C   UNL     1     -56.329 -33.574   6.721 -0.16 +0.00    +0.006 A  
DOCKED: ATOM     19  C   UNL     1     -56.973 -32.338   6.731 -0.11 +0.00    +0.001 A  
DOCKED: ATOM     20  C   UNL     1     -56.625 -31.364   5.794 -0.10 +0.00    +0.029 A  
DOCKED: ATOM     21  C   UNL     1     -55.634 -31.627   4.850 -0.07 +0.00    +0.140 A  
DOCKED: ATOM     22  C   UNL     1     -54.989 -32.863   4.841 -0.13 +0.00    +0.029 A  
DOCKED: ATOM     23  F   UNL     1     -55.298 -30.691   3.953 -0.01 -0.00    -0.204 F  
DOCKED: ATOM     24  C   UNL     1     -55.337 -33.839   5.777 -0.13 +0.00    +0.001 A  
DOCKED: ENDBRANCH   2  18
DOCKED: TORSDOF 5
DOCKED: TER
DOCKED: ENDMDL
________________________________________________________________________________


    FINAL DOCKED STATE:
    ________________________


Run:   325 / 512
Time taken for this run:   0.002s

DOCKED: MODEL        325
DOCKED: USER    Run = 325
DOCKED: USER
DOCKED: USER    Estimated Free Energy of Binding    =  -3.30 kcal/mol  [=(1)+(2)+(3)-(4)]
DOCKED: USER
DOCKED: USER    (1) Final Intermolecular Energy     =  -4.79 kcal/mol
DOCKED: USER        vdW + Hbond + desolv Energy     =  -4.79 kcal/mol
DOCKED: USER        Electrostatic Energy            =  +0.00 kcal/mol
DOCKED: USER        Moving Ligand-Fixed Receptor    =  -4.79 kcal/mol
DOCKED: USER        Moving Ligand-Moving Receptor   =  +0.00 kcal/mol
DOCKED: USER    (2) Final Total Internal Energy     =  -1.37 kcal/mol
DOCKED: USER    (3) Torsional Free Energy           =  +1.49 kcal/mol
DOCKED: USER    (4) Unbound System's Energy         =  -1.37 kcal/mol
DOCKED: USER
DOCKED: USER
DOCKED: REMARK  5 active torsions:
DOCKED: REMARK  status: ('A' for Active; 'I' for Inactive)
DOCKED: REMARK    1  A    between atoms: C_2  and  C_19 
DOCKED: REMARK    2  A    between atoms: C_2  and  C_11 
DOCKED: REMARK    3  A    between atoms: C_19  and  C_20 
DOCKED: REMARK    4  A    between atoms: C_20  and  C_21 
DOCKED: REMARK    5  A    between atoms: C_21  and  N_22 
DOCKED: USER                              x       y       z     vdW  Elec       q    Type
DOCKED: USER                           _______ _______ _______ _____ _____    ______ ____
DOCKED: ROOT
DOCKED: ATOM      1  O   UNL     1     -51.406 -25.171  -1.412 -0.05 -0.00    -0.346 OA 
DOCKED: ATOM      2  C   UNL     1     -51.024 -25.573  -2.767 -0.08 +0.00    +0.130 C  
DOCKED: ATOM      3  C   UNL     1     -52.317 -26.014  -3.389 -0.16 +0.00    +0.004 A  
DOCKED: ATOM      4  C   UNL     1     -53.363 -25.780  -2.508 -0.26 +0.00    +0.006 A  
DOCKED: ATOM      5  C   UNL     1     -52.845 -25.166  -1.265 -0.12 +0.00    +0.169 C  
DOCKED: ATOM      6  C   UNL     1     -52.550 -26.566  -4.640 -0.17 -0.00    -0.001 A  
DOCKED: ATOM      7  C   UNL     1     -54.670 -26.092  -2.841 -0.22 +0.00    +0.008 A  
DOCKED: ATOM      8  C   UNL     1     -53.862 -26.891  -4.990 -0.29 +0.00    +0.010 A  
DOCKED: ATOM      9  C   UNL     1     -54.916 -26.654  -4.095 -0.37 +0.00    +0.068 A  
DOCKED: ATOM     10  N   UNL     1     -57.341 -27.263  -4.777 -2.48 -0.00    -0.191 NA 
DOCKED: ATOM     11  C   UNL     1     -56.253 -26.991  -4.471 -0.35 +0.00    +0.101 C  
DOCKED: ENDROOT
DOCKED: BRANCH   2  12
DOCKED: ATOM     12  C   UNL     1     -50.405 -24.372  -3.471 -0.10 +0.00    +0.038 C  
DOCKED: BRANCH  12  13
DOCKED: ATOM     13  C   UNL     1     -49.123 -23.918  -2.775 -0.04 +0.00    +0.038 C  
DOCKED: BRANCH  13  14
DOCKED: ATOM     14  C   UNL     1     -49.416 -22.848  -1.726 -0.01 +0.00    +0.251 C  
DOCKED: BRANCH  14  15
DOCKED: ATOM     15  N   UNL     1     -48.766 -23.183  -0.464 -0.01 +0.00    +0.141 N  
DOCKED: ATOM     16  C   UNL     1     -49.453 -22.541   0.657 -0.01 +0.00    +0.285 C  
DOCKED: ATOM     17  C   UNL     1     -48.727 -24.634  -0.273 -0.01 +0.00    +0.285 C  
DOCKED: ENDBRANCH  14  15
DOCKED: ENDBRANCH  13  14
DOCKED: ENDBRANCH  12  13
DOCKED: ENDBRANCH   2  12
DOCKED: BRANCH   2  18
DOCKED: ATOM     18  C   UNL     1     -50.036 -26.684  -2.630 -0.03 +0.00    +0.006 A  
DOCKED: ATOM     19  C   UNL     1     -50.054 -27.496  -1.497 -0.03 +0.00    +0.001 A  
DOCKED: ATOM     20  C   UNL     1     -49.130 -28.534  -1.370 -0.01 +0.00    +0.029 A  
DOCKED: ATOM     21  C   UNL     1     -48.191 -28.759  -2.375 -0.00 +0.00    +0.140 A  
DOCKED: ATOM     22  C   UNL     1     -48.174 -27.946  -3.508 -0.00 +0.00    +0.029 A  
DOCKED: ATOM     23  F   UNL     1     -47.305 -29.756  -2.254 +0.00 -0.00    -0.204 F  
DOCKED: ATOM     24  C   UNL     1     -49.097 -26.907  -3.636 -0.01 +0.00    +0.001 A  
DOCKED: ENDBRANCH   2  18
DOCKED: TORSDOF 5
DOCKED: TER
DOCKED: ENDMDL
________________________________________________________________________________


    FINAL DOCKED STATE:
    ________________________


Run:   326 / 512
Time taken for this run:   0.002s

DOCKED: MODEL        326
DOCKED: USER    Run = 326
DOCKED: USER
DOCKED: USER    Estimated Free Energy of Binding    =  -3.13 kcal/mol  [=(1)+(2)+(3)-(4)]
DOCKED: USER
DOCKED: USER    (1) Final Intermolecular Energy     =  -4.62 kcal/mol
DOCKED: USER        vdW + Hbond + desolv Energy     =  -4.62 kcal/mol
DOCKED: USER        Electrostatic Energy            =  +0.00 kcal/mol
DOCKED: USER        Moving Ligand-Fixed Receptor    =  -4.62 kcal/mol
DOCKED: USER        Moving Ligand-Moving Receptor   =  +0.00 kcal/mol
DOCKED: USER    (2) Final Total Internal Energy     =  -1.22 kcal/mol
DOCKED: USER    (3) Torsional Free Energy           =  +1.49 kcal/mol
DOCKED: USER    (4) Unbound System's Energy         =  -1.22 kcal/mol
DOCKED: USER
DOCKED: USER
DOCKED: REMARK  5 active torsions:
DOCKED: REMARK  status: ('A' for Active; 'I' for Inactive)
DOCKED: REMARK    1  A    between atoms: C_2  and  C_19 
DOCKED: REMARK    2  A    between atoms: C_2  and  C_11 
DOCKED: REMARK    3  A    between atoms: C_19  and  C_20 
DOCKED: REMARK    4  A    between atoms: C_20  and  C_21 
DOCKED: REMARK    5  A    between atoms: C_21  and  N_22 
DOCKED: USER                              x       y       z     vdW  Elec       q    Type
DOCKED: USER                           _______ _______ _______ _____ _____    ______ ____
DOCKED: ROOT
DOCKED: ATOM      1  O   UNL     1     -55.760 -21.599   3.314 -0.07 -0.00    -0.346 OA 
DOCKED: ATOM      2  C   UNL     1     -56.243 -20.796   2.189 -0.11 +0.00    +0.130 C  
DOCKED: ATOM      3  C   UNL     1     -57.710 -21.107   2.130 -0.15 +0.00    +0.004 A  
DOCKED: ATOM      4  C   UNL     1     -58.058 -21.927   3.194 -0.13 +0.00    +0.006 A  
DOCKED: ATOM      5  C   UNL     1     -56.865 -22.202   4.026 -0.10 +0.00    +0.169 C  
DOCKED: ATOM      6  C   UNL     1     -58.664 -20.687   1.214 -0.19 -0.00    -0.001 A  
DOCKED: ATOM      7  C   UNL     1     -59.361 -22.358   3.376 -0.15 +0.00    +0.008 A  
DOCKED: ATOM      8  C   UNL     1     -59.982 -21.117   1.382 -0.20 +0.00    +0.010 A  
DOCKED: ATOM      9  C   UNL     1     -60.328 -21.948   2.458 -0.16 +0.00    +0.068 A  
DOCKED: ATOM     10  N   UNL     1     -62.784 -22.723   2.743 -1.67 -0.00    -0.191 NA 
DOCKED: ATOM     11  C   UNL     1     -61.682 -22.376   2.615 -0.11 +0.00    +0.101 C  
DOCKED: ENDROOT
DOCKED: BRANCH   2  12
DOCKED: ATOM     12  C   UNL     1     -55.958 -19.329   2.486 -0.05 +0.00    +0.038 C  
DOCKED: BRANCH  12  13
DOCKED: ATOM     13  C   UNL     1     -56.518 -18.917   3.847 -0.02 +0.00    +0.038 C  
DOCKED: BRANCH  13  14
DOCKED: ATOM     14  C   UNL     1     -57.865 -18.212   3.696 -0.00 +0.00    +0.251 C  
DOCKED: BRANCH  14  15
DOCKED: ATOM     15  N   UNL     1     -58.537 -18.120   4.987 -0.00 +0.00    +0.141 N  
DOCKED: ATOM     16  C   UNL     1     -59.360 -19.306   5.226 +0.00 +0.00    +0.285 C  
DOCKED: ATOM     17  C   UNL     1     -57.561 -17.953   6.065 -0.00 +0.00    +0.285 C  
DOCKED: ENDBRANCH  14  15
DOCKED: ENDBRANCH  13  14
DOCKED: ENDBRANCH  12  13
DOCKED: ENDBRANCH   2  12
DOCKED: BRANCH   2  18
DOCKED: ATOM     18  C   UNL     1     -55.502 -21.253   0.977 -0.20 +0.00    +0.006 A  
DOCKED: ATOM     19  C   UNL     1     -56.112 -21.195  -0.275 -0.32 +0.00    +0.001 A  
DOCKED: ATOM     20  C   UNL     1     -55.418 -21.623  -1.408 -0.30 +0.00    +0.029 A  
DOCKED: ATOM     21  C   UNL     1     -54.117 -22.108  -1.287 -0.24 +0.00    +0.140 A  
DOCKED: ATOM     22  C   UNL     1     -53.508 -22.166  -0.033 -0.23 +0.00    +0.029 A  
DOCKED: ATOM     23  F   UNL     1     -53.451 -22.518  -2.374 -0.04 -0.00    -0.204 F  
DOCKED: ATOM     24  C   UNL     1     -54.201 -21.739   1.100 -0.19 +0.00    +0.001 A  
DOCKED: ENDBRANCH   2  18
DOCKED: TORSDOF 5
DOCKED: TER
DOCKED: ENDMDL
________________________________________________________________________________


    FINAL DOCKED STATE:
    ________________________


Run:   327 / 512
Time taken for this run:   0.002s

DOCKED: MODEL        327
DOCKED: USER    Run = 327
DOCKED: USER
DOCKED: USER    Estimated Free Energy of Binding    =  -3.38 kcal/mol  [=(1)+(2)+(3)-(4)]
DOCKED: USER
DOCKED: USER    (1) Final Intermolecular Energy     =  -4.87 kcal/mol
DOCKED: USER        vdW + Hbond + desolv Energy     =  -4.87 kcal/mol
DOCKED: USER        Electrostatic Energy            =  +0.00 kcal/mol
DOCKED: USER        Moving Ligand-Fixed Receptor    =  -4.87 kcal/mol
DOCKED: USER        Moving Ligand-Moving Receptor   =  +0.00 kcal/mol
DOCKED: USER    (2) Final Total Internal Energy     =  -1.44 kcal/mol
DOCKED: USER    (3) Torsional Free Energy           =  +1.49 kcal/mol
DOCKED: USER    (4) Unbound System's Energy         =  -1.44 kcal/mol
DOCKED: USER
DOCKED: USER
DOCKED: REMARK  5 active torsions:
DOCKED: REMARK  status: ('A' for Active; 'I' for Inactive)
DOCKED: REMARK    1  A    between atoms: C_2  and  C_19 
DOCKED: REMARK    2  A    between atoms: C_2  and  C_11 
DOCKED: REMARK    3  A    between atoms: C_19  and  C_20 
DOCKED: REMARK    4  A    between atoms: C_20  and  C_21 
DOCKED: REMARK    5  A    between atoms: C_21  and  N_22 
DOCKED: USER                              x       y       z     vdW  Elec       q    Type
DOCKED: USER                           _______ _______ _______ _____ _____    ______ ____
DOCKED: ROOT
DOCKED: ATOM      1  O   UNL     1     -49.455 -36.173  -0.516 +0.01 -0.00    -0.346 OA 
DOCKED: ATOM      2  C   UNL     1     -50.046 -35.386   0.567 -0.04 +0.00    +0.130 C  
DOCKED: ATOM      3  C   UNL     1     -50.628 -36.420   1.486 -0.09 +0.00    +0.004 A  
DOCKED: ATOM      4  C   UNL     1     -50.302 -37.689   1.028 -0.10 +0.00    +0.006 A  
DOCKED: ATOM      5  C   UNL     1     -49.484 -37.584  -0.201 -0.05 +0.00    +0.169 C  
DOCKED: ATOM      6  C   UNL     1     -51.375 -36.252   2.643 -0.16 -0.00    -0.001 A  
DOCKED: ATOM      7  C   UNL     1     -50.714 -38.826   1.701 -0.20 +0.00    +0.008 A  
DOCKED: ATOM      8  C   UNL     1     -51.802 -37.389   3.331 -0.22 +0.00    +0.010 A  
DOCKED: ATOM      9  C   UNL     1     -51.472 -38.670   2.862 -0.27 +0.00    +0.068 A  
DOCKED: ATOM     10  N   UNL     1     -52.275 -40.760   4.166 -2.66 -0.00    -0.191 NA 
DOCKED: ATOM     11  C   UNL     1     -51.915 -39.823   3.581 -0.37 +0.00    +0.101 C  
DOCKED: ENDROOT
DOCKED: BRANCH   2  12
DOCKED: ATOM     12  C   UNL     1     -48.943 -34.563   1.223 -0.01 +0.00    +0.038 C  
DOCKED: BRANCH  12  13
DOCKED: ATOM     13  C   UNL     1     -47.815 -35.453   1.738 -0.01 +0.00    +0.038 C  
DOCKED: BRANCH  13  14
DOCKED: ATOM     14  C   UNL     1     -47.984 -35.749   3.227 -0.00 +0.00    +0.251 C  
DOCKED: BRANCH  14  15
DOCKED: ATOM     15  N   UNL     1     -47.252 -36.956   3.591 -0.01 +0.00    +0.141 N  
DOCKED: ATOM     16  C   UNL     1     -47.882 -37.616   4.735 -0.01 +0.00    +0.285 C  
DOCKED: ATOM     17  C   UNL     1     -47.173 -37.874   2.454 -0.00 +0.00    +0.285 C  
DOCKED: ENDBRANCH  14  15
DOCKED: ENDBRANCH  13  14
DOCKED: ENDBRANCH  12  13
DOCKED: ENDBRANCH   2  12
DOCKED: BRANCH   2  18
DOCKED: ATOM     18  C   UNL     1     -51.082 -34.506  -0.048 -0.07 +0.00    +0.006 A  
DOCKED: ATOM     19  C   UNL     1     -51.059 -33.132   0.189 -0.03 +0.00    +0.001 A  
DOCKED: ATOM     20  C   UNL     1     -52.028 -32.310  -0.386 -0.04 +0.00    +0.029 A  
DOCKED: ATOM     21  C   UNL     1     -53.018 -32.862  -1.198 -0.14 +0.00    +0.140 A  
DOCKED: ATOM     22  C   UNL     1     -53.041 -34.236  -1.434 -0.16 +0.00    +0.029 A  
DOCKED: ATOM     23  F   UNL     1     -53.948 -32.072  -1.751 -0.08 -0.00    -0.204 F  
DOCKED: ATOM     24  C   UNL     1     -52.072 -35.059  -0.859 -0.15 +0.00    +0.001 A  
DOCKED: ENDBRANCH   2  18
DOCKED: TORSDOF 5
DOCKED: TER
DOCKED: ENDMDL
________________________________________________________________________________


    FINAL DOCKED STATE:
    ________________________


Run:   328 / 512
Time taken for this run:   0.002s

DOCKED: MODEL        328
DOCKED: USER    Run = 328
DOCKED: USER
DOCKED: USER    Estimated Free Energy of Binding    =  -4.13 kcal/mol  [=(1)+(2)+(3)-(4)]
DOCKED: USER
DOCKED: USER    (1) Final Intermolecular Energy     =  -5.62 kcal/mol
DOCKED: USER        vdW + Hbond + desolv Energy     =  -5.62 kcal/mol
DOCKED: USER        Electrostatic Energy            =  +0.00 kcal/mol
DOCKED: USER        Moving Ligand-Fixed Receptor    =  -5.62 kcal/mol
DOCKED: USER        Moving Ligand-Moving Receptor   =  +0.00 kcal/mol
DOCKED: USER    (2) Final Total Internal Energy     =  -1.15 kcal/mol
DOCKED: USER    (3) Torsional Free Energy           =  +1.49 kcal/mol
DOCKED: USER    (4) Unbound System's Energy         =  -1.15 kcal/mol
DOCKED: USER
DOCKED: USER
DOCKED: REMARK  5 active torsions:
DOCKED: REMARK  status: ('A' for Active; 'I' for Inactive)
DOCKED: REMARK    1  A    between atoms: C_2  and  C_19 
DOCKED: REMARK    2  A    between atoms: C_2  and  C_11 
DOCKED: REMARK    3  A    between atoms: C_19  and  C_20 
DOCKED: REMARK    4  A    between atoms: C_20  and  C_21 
DOCKED: REMARK    5  A    between atoms: C_21  and  N_22 
DOCKED: USER                              x       y       z     vdW  Elec       q    Type
DOCKED: USER                           _______ _______ _______ _____ _____    ______ ____
DOCKED: ROOT
DOCKED: ATOM      1  O   UNL     1     -51.379 -27.214  -0.678 -0.06 -0.00    -0.346 OA 
DOCKED: ATOM      2  C   UNL     1     -52.019 -28.530  -0.680 -0.10 +0.00    +0.130 C  
DOCKED: ATOM      3  C   UNL     1     -53.174 -28.365  -1.625 -0.16 +0.00    +0.004 A  
DOCKED: ATOM      4  C   UNL     1     -53.133 -27.101  -2.197 -0.19 +0.00    +0.006 A  
DOCKED: ATOM      5  C   UNL     1     -51.959 -26.358  -1.689 -0.13 +0.00    +0.169 C  
DOCKED: ATOM      6  C   UNL     1     -54.175 -29.266  -1.960 -0.23 -0.00    -0.001 A  
DOCKED: ATOM      7  C   UNL     1     -54.087 -26.695  -3.115 -0.30 +0.00    +0.008 A  
DOCKED: ATOM      8  C   UNL     1     -55.146 -28.869  -2.881 -0.08 +0.00    +0.010 A  
DOCKED: ATOM      9  C   UNL     1     -55.102 -27.590  -3.455 -0.34 +0.00    +0.068 A  
DOCKED: ATOM     10  N   UNL     1     -56.918 -26.887  -5.165 -2.55 -0.00    -0.191 NA 
DOCKED: ATOM     11  C   UNL     1     -56.104 -27.202  -4.398 -0.42 +0.00    +0.101 C  
DOCKED: ENDROOT
DOCKED: BRANCH   2  12
DOCKED: ATOM     12  C   UNL     1     -51.004 -29.560  -1.159 -0.03 +0.00    +0.038 C  
DOCKED: BRANCH  12  13
DOCKED: ATOM     13  C   UNL     1     -51.502 -30.984  -0.923 -0.03 +0.00    +0.038 C  
DOCKED: BRANCH  13  14
DOCKED: ATOM     14  C   UNL     1     -51.336 -31.839  -2.178 -0.02 +0.00    +0.251 C  
DOCKED: BRANCH  14  15
DOCKED: ATOM     15  N   UNL     1     -52.474 -31.656  -3.071 -0.09 +0.00    +0.141 N  
DOCKED: ATOM     16  C   UNL     1     -52.068 -30.951  -4.287 -0.07 +0.00    +0.285 C  
DOCKED: ATOM     17  C   UNL     1     -53.077 -32.947  -3.410 -0.18 +0.00    +0.285 C  
DOCKED: ENDBRANCH  14  15
DOCKED: ENDBRANCH  13  14
DOCKED: ENDBRANCH  12  13
DOCKED: ENDBRANCH   2  12
DOCKED: BRANCH   2  18
DOCKED: ATOM     18  C   UNL     1     -52.450 -28.808   0.721 -0.13 +0.00    +0.006 A  
DOCKED: ATOM     19  C   UNL     1     -53.575 -29.595   0.961 -0.15 +0.00    +0.001 A  
DOCKED: ATOM     20  C   UNL     1     -53.976 -29.855   2.272 -0.13 +0.00    +0.029 A  
DOCKED: ATOM     21  C   UNL     1     -53.252 -29.327   3.340 -0.09 +0.00    +0.140 A  
DOCKED: ATOM     22  C   UNL     1     -52.127 -28.540   3.100 -0.08 +0.00    +0.029 A  
DOCKED: ATOM     23  F   UNL     1     -53.637 -29.578   4.599 -0.01 -0.00    -0.204 F  
DOCKED: ATOM     24  C   UNL     1     -51.725 -28.280   1.789 -0.07 +0.00    +0.001 A  
DOCKED: ENDBRANCH   2  18
DOCKED: TORSDOF 5
DOCKED: TER
DOCKED: ENDMDL
________________________________________________________________________________


    FINAL DOCKED STATE:
    ________________________


Run:   329 / 512
Time taken for this run:   0.002s

DOCKED: MODEL        329
DOCKED: USER    Run = 329
DOCKED: USER
DOCKED: USER    Estimated Free Energy of Binding    =  -4.49 kcal/mol  [=(1)+(2)+(3)-(4)]
DOCKED: USER
DOCKED: USER    (1) Final Intermolecular Energy     =  -5.99 kcal/mol
DOCKED: USER        vdW + Hbond + desolv Energy     =  -5.99 kcal/mol
DOCKED: USER        Electrostatic Energy            =  +0.00 kcal/mol
DOCKED: USER        Moving Ligand-Fixed Receptor    =  -5.99 kcal/mol
DOCKED: USER        Moving Ligand-Moving Receptor   =  +0.00 kcal/mol
DOCKED: USER    (2) Final Total Internal Energy     =  -0.98 kcal/mol
DOCKED: USER    (3) Torsional Free Energy           =  +1.49 kcal/mol
DOCKED: USER    (4) Unbound System's Energy         =  -0.98 kcal/mol
DOCKED: USER
DOCKED: USER
DOCKED: REMARK  5 active torsions:
DOCKED: REMARK  status: ('A' for Active; 'I' for Inactive)
DOCKED: REMARK    1  A    between atoms: C_2  and  C_19 
DOCKED: REMARK    2  A    between atoms: C_2  and  C_11 
DOCKED: REMARK    3  A    between atoms: C_19  and  C_20 
DOCKED: REMARK    4  A    between atoms: C_20  and  C_21 
DOCKED: REMARK    5  A    between atoms: C_21  and  N_22 
DOCKED: USER                              x       y       z     vdW  Elec       q    Type
DOCKED: USER                           _______ _______ _______ _____ _____    ______ ____
DOCKED: ROOT
DOCKED: ATOM      1  O   UNL     1     -56.290 -29.933   1.726 -0.10 -0.00    -0.346 OA 
DOCKED: ATOM      2  C   UNL     1     -54.985 -29.940   1.064 -0.19 +0.00    +0.130 C  
DOCKED: ATOM      3  C   UNL     1     -55.267 -29.365  -0.294 -0.25 +0.00    +0.004 A  
DOCKED: ATOM      4  C   UNL     1     -56.593 -28.961  -0.364 -0.11 +0.00    +0.006 A  
DOCKED: ATOM      5  C   UNL     1     -57.267 -29.225   0.927 -0.19 +0.00    +0.169 C  
DOCKED: ATOM      6  C   UNL     1     -54.416 -29.201  -1.377 -0.24 -0.00    -0.001 A  
DOCKED: ATOM      7  C   UNL     1     -57.112 -28.387  -1.511 -0.07 +0.00    +0.008 A  
DOCKED: ATOM      8  C   UNL     1     -54.925 -28.628  -2.543 -0.29 +0.00    +0.010 A  
DOCKED: ATOM      9  C   UNL     1     -56.267 -28.222  -2.610 -0.29 +0.00    +0.068 A  
DOCKED: ATOM     10  N   UNL     1     -57.179 -27.157  -4.788 -2.45 -0.00    -0.191 NA 
DOCKED: ATOM     11  C   UNL     1     -56.770 -27.636  -3.811 -0.30 +0.00    +0.101 C  
DOCKED: ENDROOT
DOCKED: BRANCH   2  12
DOCKED: ATOM     12  C   UNL     1     -54.024 -29.087   1.882 -0.17 +0.00    +0.038 C  
DOCKED: BRANCH  12  13
DOCKED: ATOM     13  C   UNL     1     -52.660 -28.978   1.204 -0.14 +0.00    +0.038 C  
DOCKED: BRANCH  13  14
DOCKED: ATOM     14  C   UNL     1     -51.693 -30.032   1.741 -0.04 +0.00    +0.251 C  
DOCKED: BRANCH  14  15
DOCKED: ATOM     15  N   UNL     1     -51.261 -29.683   3.089 -0.03 +0.00    +0.141 N  
DOCKED: ATOM     16  C   UNL     1     -50.118 -30.504   3.494 -0.00 +0.00    +0.285 C  
DOCKED: ATOM     17  C   UNL     1     -50.918 -28.262   3.169 -0.05 +0.00    +0.285 C  
DOCKED: ENDBRANCH  14  15
DOCKED: ENDBRANCH  13  14
DOCKED: ENDBRANCH  12  13
DOCKED: ENDBRANCH   2  12
DOCKED: BRANCH   2  18
DOCKED: ATOM     18  C   UNL     1     -54.532 -31.361   1.010 -0.14 +0.00    +0.006 A  
DOCKED: ATOM     19  C   UNL     1     -54.116 -31.914  -0.200 -0.17 +0.00    +0.001 A  
DOCKED: ATOM     20  C   UNL     1     -53.692 -33.243  -0.249 -0.18 +0.00    +0.029 A  
DOCKED: ATOM     21  C   UNL     1     -53.684 -34.016   0.911 -0.18 +0.00    +0.140 A  
DOCKED: ATOM     22  C   UNL     1     -54.100 -33.461   2.122 -0.17 +0.00    +0.029 A  
DOCKED: ATOM     23  F   UNL     1     -53.276 -35.290   0.865 -0.09 -0.00    -0.204 F  
DOCKED: ATOM     24  C   UNL     1     -54.524 -32.132   2.172 -0.13 +0.00    +0.001 A  
DOCKED: ENDBRANCH   2  18
DOCKED: TORSDOF 5
DOCKED: TER
DOCKED: ENDMDL
________________________________________________________________________________


    FINAL DOCKED STATE:
    ________________________


Run:   330 / 512
Time taken for this run:   0.002s

DOCKED: MODEL        330
DOCKED: USER    Run = 330
DOCKED: USER
DOCKED: USER    Estimated Free Energy of Binding    =  -3.73 kcal/mol  [=(1)+(2)+(3)-(4)]
DOCKED: USER
DOCKED: USER    (1) Final Intermolecular Energy     =  -5.22 kcal/mol
DOCKED: USER        vdW + Hbond + desolv Energy     =  -5.22 kcal/mol
DOCKED: USER        Electrostatic Energy            =  +0.00 kcal/mol
DOCKED: USER        Moving Ligand-Fixed Receptor    =  -5.22 kcal/mol
DOCKED: USER        Moving Ligand-Moving Receptor   =  +0.00 kcal/mol
DOCKED: USER    (2) Final Total Internal Energy     =  -1.22 kcal/mol
DOCKED: USER    (3) Torsional Free Energy           =  +1.49 kcal/mol
DOCKED: USER    (4) Unbound System's Energy         =  -1.22 kcal/mol
DOCKED: USER
DOCKED: USER
DOCKED: REMARK  5 active torsions:
DOCKED: REMARK  status: ('A' for Active; 'I' for Inactive)
DOCKED: REMARK    1  A    between atoms: C_2  and  C_19 
DOCKED: REMARK    2  A    between atoms: C_2  and  C_11 
DOCKED: REMARK    3  A    between atoms: C_19  and  C_20 
DOCKED: REMARK    4  A    between atoms: C_20  and  C_21 
DOCKED: REMARK    5  A    between atoms: C_21  and  N_22 
DOCKED: USER                              x       y       z     vdW  Elec       q    Type
DOCKED: USER                           _______ _______ _______ _____ _____    ______ ____
DOCKED: ROOT
DOCKED: ATOM      1  O   UNL     1     -61.204 -34.280   8.540 -0.01 -0.00    -0.346 OA 
DOCKED: ATOM      2  C   UNL     1     -59.850 -34.114   8.008 -0.11 +0.00    +0.130 C  
DOCKED: ATOM      3  C   UNL     1     -59.550 -35.438   7.368 -0.19 +0.00    +0.004 A  
DOCKED: ATOM      4  C   UNL     1     -60.672 -36.252   7.430 -0.18 +0.00    +0.006 A  
DOCKED: ATOM      5  C   UNL     1     -61.780 -35.530   8.094 -0.10 +0.00    +0.169 C  
DOCKED: ATOM      6  C   UNL     1     -58.381 -35.883   6.768 -0.26 -0.00    -0.001 A  
DOCKED: ATOM      7  C   UNL     1     -60.664 -37.532   6.903 -0.22 +0.00    +0.008 A  
DOCKED: ATOM      8  C   UNL     1     -58.355 -37.173   6.235 -0.33 +0.00    +0.010 A  
DOCKED: ATOM      9  C   UNL     1     -59.491 -37.993   6.302 -0.24 +0.00    +0.068 A  
DOCKED: ATOM     10  N   UNL     1     -59.412 -40.380   5.299 -2.59 -0.00    -0.191 NA 
DOCKED: ATOM     11  C   UNL     1     -59.447 -39.310   5.749 -0.34 +0.00    +0.101 C  
DOCKED: ENDROOT
DOCKED: BRANCH   2  12
DOCKED: ATOM     12  C   UNL     1     -59.862 -32.961   7.010 -0.21 +0.00    +0.038 C  
DOCKED: BRANCH  12  13
DOCKED: ATOM     13  C   UNL     1     -61.193 -32.884   6.265 -0.15 +0.00    +0.038 C  
DOCKED: BRANCH  13  14
DOCKED: ATOM     14  C   UNL     1     -61.692 -31.443   6.181 -0.11 +0.00    +0.251 C  
DOCKED: BRANCH  14  15
DOCKED: ATOM     15  N   UNL     1     -61.166 -30.658   7.291 -0.05 +0.00    +0.141 N  
DOCKED: ATOM     16  C   UNL     1     -61.167 -29.232   6.961 -0.01 +0.00    +0.285 C  
DOCKED: ATOM     17  C   UNL     1     -61.944 -30.898   8.507 -0.01 +0.00    +0.285 C  
DOCKED: ENDBRANCH  14  15
DOCKED: ENDBRANCH  13  14
DOCKED: ENDBRANCH  12  13
DOCKED: ENDBRANCH   2  12
DOCKED: BRANCH   2  18
DOCKED: ATOM     18  C   UNL     1     -58.960 -33.813   9.167 -0.04 +0.00    +0.006 A  
DOCKED: ATOM     19  C   UNL     1     -58.819 -32.500   9.616 -0.02 +0.00    +0.001 A  
DOCKED: ATOM     20  C   UNL     1     -57.986 -32.220  10.700 -0.00 +0.00    +0.029 A  
DOCKED: ATOM     21  C   UNL     1     -57.297 -33.252  11.334 -0.00 +0.00    +0.140 A  
DOCKED: ATOM     22  C   UNL     1     -57.438 -34.565  10.885 -0.01 +0.00    +0.029 A  
DOCKED: ATOM     23  F   UNL     1     -56.499 -32.984  12.375 +0.00 -0.00    -0.204 F  
DOCKED: ATOM     24  C   UNL     1     -58.271 -34.846   9.800 -0.03 +0.00    +0.001 A  
DOCKED: ENDBRANCH   2  18
DOCKED: TORSDOF 5
DOCKED: TER
DOCKED: ENDMDL
________________________________________________________________________________


    FINAL DOCKED STATE:
    ________________________


Run:   331 / 512
Time taken for this run:   0.002s

DOCKED: MODEL        331
DOCKED: USER    Run = 331
DOCKED: USER
DOCKED: USER    Estimated Free Energy of Binding    =  -5.83 kcal/mol  [=(1)+(2)+(3)-(4)]
DOCKED: USER
DOCKED: USER    (1) Final Intermolecular Energy     =  -7.32 kcal/mol
DOCKED: USER        vdW + Hbond + desolv Energy     =  -7.32 kcal/mol
DOCKED: USER        Electrostatic Energy            =  +0.00 kcal/mol
DOCKED: USER        Moving Ligand-Fixed Receptor    =  -7.32 kcal/mol
DOCKED: USER        Moving Ligand-Moving Receptor   =  +0.00 kcal/mol
DOCKED: USER    (2) Final Total Internal Energy     =  -1.46 kcal/mol
DOCKED: USER    (3) Torsional Free Energy           =  +1.49 kcal/mol
DOCKED: USER    (4) Unbound System's Energy         =  -1.46 kcal/mol
DOCKED: USER
DOCKED: USER
DOCKED: REMARK  5 active torsions:
DOCKED: REMARK  status: ('A' for Active; 'I' for Inactive)
DOCKED: REMARK    1  A    between atoms: C_2  and  C_19 
DOCKED: REMARK    2  A    between atoms: C_2  and  C_11 
DOCKED: REMARK    3  A    between atoms: C_19  and  C_20 
DOCKED: REMARK    4  A    between atoms: C_20  and  C_21 
DOCKED: REMARK    5  A    between atoms: C_21  and  N_22 
DOCKED: USER                              x       y       z     vdW  Elec       q    Type
DOCKED: USER                           _______ _______ _______ _____ _____    ______ ____
DOCKED: ROOT
DOCKED: ATOM      1  O   UNL     1     -57.661 -36.309   7.915 -0.05 -0.00    -0.346 OA 
DOCKED: ATOM      2  C   UNL     1     -57.394 -37.748   7.898 -0.23 +0.00    +0.130 C  
DOCKED: ATOM      3  C   UNL     1     -57.895 -38.191   6.554 -0.35 +0.00    +0.004 A  
DOCKED: ATOM      4  C   UNL     1     -58.309 -37.086   5.823 -0.35 +0.00    +0.006 A  
DOCKED: ATOM      5  C   UNL     1     -58.103 -35.853   6.615 -0.24 +0.00    +0.169 C  
DOCKED: ATOM      6  C   UNL     1     -57.967 -39.467   6.016 -0.30 -0.00    -0.001 A  
DOCKED: ATOM      7  C   UNL     1     -58.811 -37.218   4.540 -0.04 +0.00    +0.008 A  
DOCKED: ATOM      8  C   UNL     1     -58.475 -39.618   4.725 -0.47 +0.00    +0.010 A  
DOCKED: ATOM      9  C   UNL     1     -58.895 -38.499   3.990 -0.42 +0.00    +0.068 A  
DOCKED: ATOM     10  N   UNL     1     -59.828 -38.813   1.594 -3.02 -0.00    -0.191 NA 
DOCKED: ATOM     11  C   UNL     1     -59.410 -38.672   2.669 -0.41 +0.00    +0.101 C  
DOCKED: ENDROOT
DOCKED: BRANCH   2  12
DOCKED: ATOM     12  C   UNL     1     -55.895 -37.963   8.073 -0.21 +0.00    +0.038 C  
DOCKED: BRANCH  12  13
DOCKED: ATOM     13  C   UNL     1     -55.197 -36.680   8.522 -0.19 +0.00    +0.038 C  
DOCKED: BRANCH  13  14
DOCKED: ATOM     14  C   UNL     1     -55.517 -36.362   9.981 -0.06 +0.00    +0.251 C  
DOCKED: BRANCH  14  15
DOCKED: ATOM     15  N   UNL     1     -56.360 -35.176  10.068 -0.02 +0.00    +0.141 N  
DOCKED: ATOM     16  C   UNL     1     -56.948 -35.057  11.404 -0.00 +0.00    +0.285 C  
DOCKED: ATOM     17  C   UNL     1     -55.593 -33.973   9.743 -0.01 +0.00    +0.285 C  
DOCKED: ENDBRANCH  14  15
DOCKED: ENDBRANCH  13  14
DOCKED: ENDBRANCH  12  13
DOCKED: ENDBRANCH   2  12
DOCKED: BRANCH   2  18
DOCKED: ATOM     18  C   UNL     1     -58.159 -38.347   9.030 -0.19 +0.00    +0.006 A  
DOCKED: ATOM     19  C   UNL     1     -57.481 -38.949  10.089 -0.20 +0.00    +0.001 A  
DOCKED: ATOM     20  C   UNL     1     -58.198 -39.509  11.146 -0.20 +0.00    +0.029 A  
DOCKED: ATOM     21  C   UNL     1     -59.591 -39.466  11.145 -0.05 +0.00    +0.140 A  
DOCKED: ATOM     22  C   UNL     1     -60.269 -38.863  10.086 -0.14 +0.00    +0.029 A  
DOCKED: ATOM     23  F   UNL     1     -60.279 -40.002  12.161 -0.04 -0.00    -0.204 F  
DOCKED: ATOM     24  C   UNL     1     -59.553 -38.303   9.027 -0.15 +0.00    +0.001 A  
DOCKED: ENDBRANCH   2  18
DOCKED: TORSDOF 5
DOCKED: TER
DOCKED: ENDMDL
________________________________________________________________________________


    FINAL DOCKED STATE:
    ________________________


Run:   332 / 512
Time taken for this run:   0.002s

DOCKED: MODEL        332
DOCKED: USER    Run = 332
DOCKED: USER
DOCKED: USER    Estimated Free Energy of Binding    =  -3.97 kcal/mol  [=(1)+(2)+(3)-(4)]
DOCKED: USER
DOCKED: USER    (1) Final Intermolecular Energy     =  -5.46 kcal/mol
DOCKED: USER        vdW + Hbond + desolv Energy     =  -5.46 kcal/mol
DOCKED: USER        Electrostatic Energy            =  +0.00 kcal/mol
DOCKED: USER        Moving Ligand-Fixed Receptor    =  -5.46 kcal/mol
DOCKED: USER        Moving Ligand-Moving Receptor   =  +0.00 kcal/mol
DOCKED: USER    (2) Final Total Internal Energy     =  -1.33 kcal/mol
DOCKED: USER    (3) Torsional Free Energy           =  +1.49 kcal/mol
DOCKED: USER    (4) Unbound System's Energy         =  -1.33 kcal/mol
DOCKED: USER
DOCKED: USER
DOCKED: REMARK  5 active torsions:
DOCKED: REMARK  status: ('A' for Active; 'I' for Inactive)
DOCKED: REMARK    1  A    between atoms: C_2  and  C_19 
DOCKED: REMARK    2  A    between atoms: C_2  and  C_11 
DOCKED: REMARK    3  A    between atoms: C_19  and  C_20 
DOCKED: REMARK    4  A    between atoms: C_20  and  C_21 
DOCKED: REMARK    5  A    between atoms: C_21  and  N_22 
DOCKED: USER                              x       y       z     vdW  Elec       q    Type
DOCKED: USER                           _______ _______ _______ _____ _____    ______ ____
DOCKED: ROOT
DOCKED: ATOM      1  O   UNL     1     -51.217 -26.077  -1.238 -0.04 -0.00    -0.346 OA 
DOCKED: ATOM      2  C   UNL     1     -51.501 -27.511  -1.303 -0.09 +0.00    +0.130 C  
DOCKED: ATOM      3  C   UNL     1     -52.758 -27.592  -2.120 -0.15 +0.00    +0.004 A  
DOCKED: ATOM      4  C   UNL     1     -53.101 -26.327  -2.576 -0.22 +0.00    +0.006 A  
DOCKED: ATOM      5  C   UNL     1     -52.103 -25.338  -2.110 -0.16 +0.00    +0.169 C  
DOCKED: ATOM      6  C   UNL     1     -53.530 -28.698  -2.444 -0.18 -0.00    -0.001 A  
DOCKED: ATOM      7  C   UNL     1     -54.222 -26.123  -3.362 -0.29 +0.00    +0.008 A  
DOCKED: ATOM      8  C   UNL     1     -54.666 -28.509  -3.232 -0.24 +0.00    +0.010 A  
DOCKED: ATOM      9  C   UNL     1     -55.010 -27.228  -3.689 -0.35 +0.00    +0.068 A  
DOCKED: ATOM     10  N   UNL     1     -57.123 -26.912  -5.155 -2.54 -0.00    -0.191 NA 
DOCKED: ATOM     11  C   UNL     1     -56.175 -27.053  -4.497 -0.38 +0.00    +0.101 C  
DOCKED: ENDROOT
DOCKED: BRANCH   2  12
DOCKED: ATOM     12  C   UNL     1     -50.318 -28.208  -1.964 -0.03 +0.00    +0.038 C  
DOCKED: BRANCH  12  13
DOCKED: ATOM     13  C   UNL     1     -49.573 -27.267  -2.908 -0.02 +0.00    +0.038 C  
DOCKED: BRANCH  13  14
DOCKED: ATOM     14  C   UNL     1     -49.732 -27.708  -4.362 +0.00 +0.00    +0.251 C  
DOCKED: BRANCH  14  15
DOCKED: ATOM     15  N   UNL     1     -51.135 -27.663  -4.755 -0.03 +0.00    +0.141 N  
DOCKED: ATOM     16  C   UNL     1     -51.394 -26.505  -5.612 -0.04 +0.00    +0.285 C  
DOCKED: ATOM     17  C   UNL     1     -51.518 -28.898  -5.442 -0.02 +0.00    +0.285 C  
DOCKED: ENDBRANCH  14  15
DOCKED: ENDBRANCH  13  14
DOCKED: ENDBRANCH  12  13
DOCKED: ENDBRANCH   2  12
DOCKED: BRANCH   2  18
DOCKED: ATOM     18  C   UNL     1     -51.689 -27.982   0.100 -0.13 +0.00    +0.006 A  
DOCKED: ATOM     19  C   UNL     1     -50.778 -27.609   1.088 -0.10 +0.00    +0.001 A  
DOCKED: ATOM     20  C   UNL     1     -50.954 -28.051   2.400 -0.08 +0.00    +0.029 A  
DOCKED: ATOM     21  C   UNL     1     -52.040 -28.864   2.722 -0.08 +0.00    +0.140 A  
DOCKED: ATOM     22  C   UNL     1     -52.950 -29.237   1.734 -0.13 +0.00    +0.029 A  
DOCKED: ATOM     23  F   UNL     1     -52.210 -29.286   3.982 -0.02 -0.00    -0.204 F  
DOCKED: ATOM     24  C   UNL     1     -52.775 -28.796   0.421 -0.14 +0.00    +0.001 A  
DOCKED: ENDBRANCH   2  18
DOCKED: TORSDOF 5
DOCKED: TER
DOCKED: ENDMDL
________________________________________________________________________________


    FINAL DOCKED STATE:
    ________________________


Run:   333 / 512
Time taken for this run:   0.002s

DOCKED: MODEL        333
DOCKED: USER    Run = 333
DOCKED: USER
DOCKED: USER    Estimated Free Energy of Binding    =  -3.14 kcal/mol  [=(1)+(2)+(3)-(4)]
DOCKED: USER
DOCKED: USER    (1) Final Intermolecular Energy     =  -4.63 kcal/mol
DOCKED: USER        vdW + Hbond + desolv Energy     =  -4.63 kcal/mol
DOCKED: USER        Electrostatic Energy            =  +0.00 kcal/mol
DOCKED: USER        Moving Ligand-Fixed Receptor    =  -4.63 kcal/mol
DOCKED: USER        Moving Ligand-Moving Receptor   =  +0.00 kcal/mol
DOCKED: USER    (2) Final Total Internal Energy     =  -1.43 kcal/mol
DOCKED: USER    (3) Torsional Free Energy           =  +1.49 kcal/mol
DOCKED: USER    (4) Unbound System's Energy         =  -1.43 kcal/mol
DOCKED: USER
DOCKED: USER
DOCKED: REMARK  5 active torsions:
DOCKED: REMARK  status: ('A' for Active; 'I' for Inactive)
DOCKED: REMARK    1  A    between atoms: C_2  and  C_19 
DOCKED: REMARK    2  A    between atoms: C_2  and  C_11 
DOCKED: REMARK    3  A    between atoms: C_19  and  C_20 
DOCKED: REMARK    4  A    between atoms: C_20  and  C_21 
DOCKED: REMARK    5  A    between atoms: C_21  and  N_22 
DOCKED: USER                              x       y       z     vdW  Elec       q    Type
DOCKED: USER                           _______ _______ _______ _____ _____    ______ ____
DOCKED: ROOT
DOCKED: ATOM      1  O   UNL     1     -55.772 -21.207   3.037 -0.06 -0.00    -0.346 OA 
DOCKED: ATOM      2  C   UNL     1     -56.217 -20.502   1.834 -0.11 +0.00    +0.130 C  
DOCKED: ATOM      3  C   UNL     1     -57.683 -20.814   1.756 -0.15 +0.00    +0.004 A  
DOCKED: ATOM      4  C   UNL     1     -58.066 -21.542   2.874 -0.13 +0.00    +0.006 A  
DOCKED: ATOM      5  C   UNL     1     -56.900 -21.747   3.763 -0.10 +0.00    +0.169 C  
DOCKED: ATOM      6  C   UNL     1     -58.607 -20.472   0.779 -0.19 -0.00    -0.001 A  
DOCKED: ATOM      7  C   UNL     1     -59.376 -21.954   3.052 -0.15 +0.00    +0.008 A  
DOCKED: ATOM      8  C   UNL     1     -59.931 -20.884   0.942 -0.21 +0.00    +0.010 A  
DOCKED: ATOM      9  C   UNL     1     -60.313 -21.621   2.073 -0.16 +0.00    +0.068 A  
DOCKED: ATOM     10  N   UNL     1     -62.779 -22.366   2.347 -1.82 -0.00    -0.191 NA 
DOCKED: ATOM     11  C   UNL     1     -61.673 -22.032   2.224 -0.08 +0.00    +0.101 C  
DOCKED: ENDROOT
DOCKED: BRANCH   2  12
DOCKED: ATOM     12  C   UNL     1     -55.936 -19.015   2.015 -0.04 +0.00    +0.038 C  
DOCKED: BRANCH  12  13
DOCKED: ATOM     13  C   UNL     1     -54.582 -18.781   2.684 -0.02 +0.00    +0.038 C  
DOCKED: BRANCH  13  14
DOCKED: ATOM     14  C   UNL     1     -53.523 -18.385   1.657 -0.00 +0.00    +0.251 C  
DOCKED: BRANCH  14  15
DOCKED: ATOM     15  N   UNL     1     -52.254 -19.034   1.962 -0.01 +0.00    +0.141 N  
DOCKED: ATOM     16  C   UNL     1     -52.447 -20.122   2.921 -0.02 +0.00    +0.285 C  
DOCKED: ATOM     17  C   UNL     1     -51.627 -19.541   0.740 -0.00 +0.00    +0.285 C  
DOCKED: ENDBRANCH  14  15
DOCKED: ENDBRANCH  13  14
DOCKED: ENDBRANCH  12  13
DOCKED: ENDBRANCH   2  12
DOCKED: BRANCH   2  18
DOCKED: ATOM     18  C   UNL     1     -55.441 -21.061   0.688 -0.20 +0.00    +0.006 A  
DOCKED: ATOM     19  C   UNL     1     -55.712 -20.633  -0.611 -0.26 +0.00    +0.001 A  
DOCKED: ATOM     20  C   UNL     1     -54.986 -21.157  -1.681 -0.21 +0.00    +0.029 A  
DOCKED: ATOM     21  C   UNL     1     -53.991 -22.106  -1.452 -0.21 +0.00    +0.140 A  
DOCKED: ATOM     22  C   UNL     1     -53.721 -22.533  -0.152 -0.27 +0.00    +0.029 A  
DOCKED: ATOM     23  F   UNL     1     -53.294 -22.607  -2.479 -0.05 -0.00    -0.204 F  
DOCKED: ATOM     24  C   UNL     1     -54.447 -22.010   0.920 -0.18 +0.00    +0.001 A  
DOCKED: ENDBRANCH   2  18
DOCKED: TORSDOF 5
DOCKED: TER
DOCKED: ENDMDL
________________________________________________________________________________


    FINAL DOCKED STATE:
    ________________________


Run:   334 / 512
Time taken for this run:   0.002s

DOCKED: MODEL        334
DOCKED: USER    Run = 334
DOCKED: USER
DOCKED: USER    Estimated Free Energy of Binding    =  -4.65 kcal/mol  [=(1)+(2)+(3)-(4)]
DOCKED: USER
DOCKED: USER    (1) Final Intermolecular Energy     =  -6.14 kcal/mol
DOCKED: USER        vdW + Hbond + desolv Energy     =  -6.14 kcal/mol
DOCKED: USER        Electrostatic Energy            =  +0.00 kcal/mol
DOCKED: USER        Moving Ligand-Fixed Receptor    =  -6.14 kcal/mol
DOCKED: USER        Moving Ligand-Moving Receptor   =  +0.00 kcal/mol
DOCKED: USER    (2) Final Total Internal Energy     =  -1.32 kcal/mol
DOCKED: USER    (3) Torsional Free Energy           =  +1.49 kcal/mol
DOCKED: USER    (4) Unbound System's Energy         =  -1.32 kcal/mol
DOCKED: USER
DOCKED: USER
DOCKED: REMARK  5 active torsions:
DOCKED: REMARK  status: ('A' for Active; 'I' for Inactive)
DOCKED: REMARK    1  A    between atoms: C_2  and  C_19 
DOCKED: REMARK    2  A    between atoms: C_2  and  C_11 
DOCKED: REMARK    3  A    between atoms: C_19  and  C_20 
DOCKED: REMARK    4  A    between atoms: C_20  and  C_21 
DOCKED: REMARK    5  A    between atoms: C_21  and  N_22 
DOCKED: USER                              x       y       z     vdW  Elec       q    Type
DOCKED: USER                           _______ _______ _______ _____ _____    ______ ____
DOCKED: ROOT
DOCKED: ATOM      1  O   UNL     1     -55.758 -30.353   0.824 -0.09 -0.00    -0.346 OA 
DOCKED: ATOM      2  C   UNL     1     -54.445 -30.128   0.218 -0.17 +0.00    +0.130 C  
DOCKED: ATOM      3  C   UNL     1     -54.755 -29.368  -1.039 -0.26 +0.00    +0.004 A  
DOCKED: ATOM      4  C   UNL     1     -56.113 -29.086  -1.092 -0.26 +0.00    +0.006 A  
DOCKED: ATOM      5  C   UNL     1     -56.784 -29.621   0.115 -0.07 +0.00    +0.169 C  
DOCKED: ATOM      6  C   UNL     1     -53.902 -28.949  -2.049 -0.21 -0.00    -0.001 A  
DOCKED: ATOM      7  C   UNL     1     -56.662 -28.385  -2.151 -0.38 +0.00    +0.008 A  
DOCKED: ATOM      8  C   UNL     1     -54.441 -28.245  -3.127 -0.27 +0.00    +0.010 A  
DOCKED: ATOM      9  C   UNL     1     -55.815 -27.964  -3.177 -0.30 +0.00    +0.068 A  
DOCKED: ATOM     10  N   UNL     1     -56.784 -26.649  -5.188 -2.44 -0.00    -0.191 NA 
DOCKED: ATOM     11  C   UNL     1     -56.349 -27.239  -4.286 -0.39 +0.00    +0.101 C  
DOCKED: ENDROOT
DOCKED: BRANCH   2  12
DOCKED: ATOM     12  C   UNL     1     -53.591 -29.332   1.198 -0.16 +0.00    +0.038 C  
DOCKED: BRANCH  12  13
DOCKED: ATOM     13  C   UNL     1     -52.345 -28.767   0.519 -0.14 +0.00    +0.038 C  
DOCKED: BRANCH  13  14
DOCKED: ATOM     14  C   UNL     1     -51.081 -29.462   1.025 -0.04 +0.00    +0.251 C  
DOCKED: BRANCH  14  15
DOCKED: ATOM     15  N   UNL     1     -50.807 -30.654   0.232 -0.01 +0.00    +0.141 N  
DOCKED: ATOM     16  C   UNL     1     -50.395 -30.289  -1.125 -0.00 +0.00    +0.285 C  
DOCKED: ATOM     17  C   UNL     1     -49.775 -31.472   0.872 +0.00 +0.00    +0.285 C  
DOCKED: ENDBRANCH  14  15
DOCKED: ENDBRANCH  13  14
DOCKED: ENDBRANCH  12  13
DOCKED: ENDBRANCH   2  12
DOCKED: BRANCH   2  18
DOCKED: ATOM     18  C   UNL     1     -53.850 -31.471  -0.046 -0.13 +0.00    +0.006 A  
DOCKED: ATOM     19  C   UNL     1     -53.683 -31.913  -1.357 -0.19 +0.00    +0.001 A  
DOCKED: ATOM     20  C   UNL     1     -53.127 -33.169  -1.603 -0.19 +0.00    +0.029 A  
DOCKED: ATOM     21  C   UNL     1     -52.740 -33.981  -0.538 -0.15 +0.00    +0.140 A  
DOCKED: ATOM     22  C   UNL     1     -52.907 -33.538   0.774 -0.12 +0.00    +0.029 A  
DOCKED: ATOM     23  F   UNL     1     -52.205 -35.186  -0.774 -0.07 -0.00    -0.204 F  
DOCKED: ATOM     24  C   UNL     1     -53.464 -32.281   1.021 -0.10 +0.00    +0.001 A  
DOCKED: ENDBRANCH   2  18
DOCKED: TORSDOF 5
DOCKED: TER
DOCKED: ENDMDL
________________________________________________________________________________


    FINAL DOCKED STATE:
    ________________________


Run:   335 / 512
Time taken for this run:   0.002s

DOCKED: MODEL        335
DOCKED: USER    Run = 335
DOCKED: USER
DOCKED: USER    Estimated Free Energy of Binding    =  -4.81 kcal/mol  [=(1)+(2)+(3)-(4)]
DOCKED: USER
DOCKED: USER    (1) Final Intermolecular Energy     =  -6.30 kcal/mol
DOCKED: USER        vdW + Hbond + desolv Energy     =  -6.30 kcal/mol
DOCKED: USER        Electrostatic Energy            =  +0.00 kcal/mol
DOCKED: USER        Moving Ligand-Fixed Receptor    =  -6.30 kcal/mol
DOCKED: USER        Moving Ligand-Moving Receptor   =  +0.00 kcal/mol
DOCKED: USER    (2) Final Total Internal Energy     =  -1.08 kcal/mol
DOCKED: USER    (3) Torsional Free Energy           =  +1.49 kcal/mol
DOCKED: USER    (4) Unbound System's Energy         =  -1.08 kcal/mol
DOCKED: USER
DOCKED: USER
DOCKED: REMARK  5 active torsions:
DOCKED: REMARK  status: ('A' for Active; 'I' for Inactive)
DOCKED: REMARK    1  A    between atoms: C_2  and  C_19 
DOCKED: REMARK    2  A    between atoms: C_2  and  C_11 
DOCKED: REMARK    3  A    between atoms: C_19  and  C_20 
DOCKED: REMARK    4  A    between atoms: C_20  and  C_21 
DOCKED: REMARK    5  A    between atoms: C_21  and  N_22 
DOCKED: USER                              x       y       z     vdW  Elec       q    Type
DOCKED: USER                           _______ _______ _______ _____ _____    ______ ____
DOCKED: ROOT
DOCKED: ATOM      1  O   UNL     1     -52.872 -30.436  -0.680 -0.01 -0.00    -0.346 OA 
DOCKED: ATOM      2  C   UNL     1     -54.220 -30.325  -0.120 -0.16 +0.00    +0.130 C  
DOCKED: ATOM      3  C   UNL     1     -54.961 -29.496  -1.129 -0.28 +0.00    +0.004 A  
DOCKED: ATOM      4  C   UNL     1     -54.143 -29.248  -2.222 -0.23 +0.00    +0.006 A  
DOCKED: ATOM      5  C   UNL     1     -52.827 -29.896  -2.021 -0.09 +0.00    +0.169 C  
DOCKED: ATOM      6  C   UNL     1     -56.260 -29.010  -1.088 -0.22 -0.00    -0.001 A  
DOCKED: ATOM      7  C   UNL     1     -54.588 -28.507  -3.303 -0.25 +0.00    +0.008 A  
DOCKED: ATOM      8  C   UNL     1     -56.723 -28.258  -2.168 -0.36 +0.00    +0.010 A  
DOCKED: ATOM      9  C   UNL     1     -55.891 -28.008  -3.270 -0.25 +0.00    +0.068 A  
DOCKED: ATOM     10  N   UNL     1     -56.784 -26.611  -5.262 -2.45 -0.00    -0.191 NA 
DOCKED: ATOM     11  C   UNL     1     -56.383 -27.237  -4.368 -0.38 +0.00    +0.101 C  
DOCKED: ENDROOT
DOCKED: BRANCH   2  12
DOCKED: ATOM     12  C   UNL     1     -54.796 -31.728   0.033 -0.22 +0.00    +0.038 C  
DOCKED: BRANCH  12  13
DOCKED: ATOM     13  C   UNL     1     -54.054 -32.520   1.109 -0.16 +0.00    +0.038 C  
DOCKED: BRANCH  13  14
DOCKED: ATOM     14  C   UNL     1     -54.711 -32.337   2.476 -0.09 +0.00    +0.251 C  
DOCKED: BRANCH  14  15
DOCKED: ATOM     15  N   UNL     1     -53.826 -32.815   3.532 -0.09 +0.00    +0.141 N  
DOCKED: ATOM     16  C   UNL     1     -54.597 -33.219   4.708 -0.11 +0.00    +0.285 C  
DOCKED: ATOM     17  C   UNL     1     -53.007 -33.930   3.053 -0.09 +0.00    +0.285 C  
DOCKED: ENDBRANCH  14  15
DOCKED: ENDBRANCH  13  14
DOCKED: ENDBRANCH  12  13
DOCKED: ENDBRANCH   2  12
DOCKED: BRANCH   2  18
DOCKED: ATOM     18  C   UNL     1     -54.089 -29.649   1.204 -0.17 +0.00    +0.006 A  
DOCKED: ATOM     19  C   UNL     1     -52.828 -29.472   1.774 -0.12 +0.00    +0.001 A  
DOCKED: ATOM     20  C   UNL     1     -52.707 -28.840   3.012 -0.10 +0.00    +0.029 A  
DOCKED: ATOM     21  C   UNL     1     -53.844 -28.387   3.678 -0.07 +0.00    +0.140 A  
DOCKED: ATOM     22  C   UNL     1     -55.105 -28.564   3.107 -0.18 +0.00    +0.029 A  
DOCKED: ATOM     23  F   UNL     1     -53.727 -27.779   4.866 -0.04 -0.00    -0.204 F  
DOCKED: ATOM     24  C   UNL     1     -55.227 -29.197   1.869 -0.21 +0.00    +0.001 A  
DOCKED: ENDBRANCH   2  18
DOCKED: TORSDOF 5
DOCKED: TER
DOCKED: ENDMDL
________________________________________________________________________________


    FINAL DOCKED STATE:
    ________________________


Run:   336 / 512
Time taken for this run:   0.002s

DOCKED: MODEL        336
DOCKED: USER    Run = 336
DOCKED: USER
DOCKED: USER    Estimated Free Energy of Binding    =  -3.57 kcal/mol  [=(1)+(2)+(3)-(4)]
DOCKED: USER
DOCKED: USER    (1) Final Intermolecular Energy     =  -5.06 kcal/mol
DOCKED: USER        vdW + Hbond + desolv Energy     =  -5.06 kcal/mol
DOCKED: USER        Electrostatic Energy            =  +0.00 kcal/mol
DOCKED: USER        Moving Ligand-Fixed Receptor    =  -5.06 kcal/mol
DOCKED: USER        Moving Ligand-Moving Receptor   =  +0.00 kcal/mol
DOCKED: USER    (2) Final Total Internal Energy     =  -1.14 kcal/mol
DOCKED: USER    (3) Torsional Free Energy           =  +1.49 kcal/mol
DOCKED: USER    (4) Unbound System's Energy         =  -1.14 kcal/mol
DOCKED: USER
DOCKED: USER
DOCKED: REMARK  5 active torsions:
DOCKED: REMARK  status: ('A' for Active; 'I' for Inactive)
DOCKED: REMARK    1  A    between atoms: C_2  and  C_19 
DOCKED: REMARK    2  A    between atoms: C_2  and  C_11 
DOCKED: REMARK    3  A    between atoms: C_19  and  C_20 
DOCKED: REMARK    4  A    between atoms: C_20  and  C_21 
DOCKED: REMARK    5  A    between atoms: C_21  and  N_22 
DOCKED: USER                              x       y       z     vdW  Elec       q    Type
DOCKED: USER                           _______ _______ _______ _____ _____    ______ ____
DOCKED: ROOT
DOCKED: ATOM      1  O   UNL     1     -52.841 -29.816  -0.558 -0.02 -0.00    -0.346 OA 
DOCKED: ATOM      2  C   UNL     1     -52.023 -28.746  -1.130 -0.08 +0.00    +0.130 C  
DOCKED: ATOM      3  C   UNL     1     -52.917 -28.125  -2.165 -0.14 +0.00    +0.004 A  
DOCKED: ATOM      4  C   UNL     1     -54.172 -28.715  -2.113 -0.23 +0.00    +0.006 A  
DOCKED: ATOM      5  C   UNL     1     -54.200 -29.742  -1.048 -0.18 +0.00    +0.169 C  
DOCKED: ATOM      6  C   UNL     1     -52.643 -27.112  -3.072 -0.14 -0.00    -0.001 A  
DOCKED: ATOM      7  C   UNL     1     -55.190 -28.318  -2.963 -0.29 +0.00    +0.008 A  
DOCKED: ATOM      8  C   UNL     1     -53.658 -26.703  -3.939 -0.26 +0.00    +0.010 A  
DOCKED: ATOM      9  C   UNL     1     -54.925 -27.304  -3.884 -0.34 +0.00    +0.068 A  
DOCKED: ATOM     10  N   UNL     1     -56.789 -26.519  -5.504 -2.55 -0.00    -0.191 NA 
DOCKED: ATOM     11  C   UNL     1     -55.953 -26.871  -4.778 -0.43 +0.00    +0.101 C  
DOCKED: ENDROOT
DOCKED: BRANCH   2  12
DOCKED: ATOM     12  C   UNL     1     -51.646 -27.778  -0.014 -0.13 +0.00    +0.038 C  
DOCKED: BRANCH  12  13
DOCKED: ATOM     13  C   UNL     1     -51.858 -28.405   1.362 -0.12 +0.00    +0.038 C  
DOCKED: BRANCH  13  14
DOCKED: ATOM     14  C   UNL     1     -50.550 -28.455   2.150 -0.06 +0.00    +0.251 C  
DOCKED: BRANCH  14  15
DOCKED: ATOM     15  N   UNL     1     -50.161 -29.838   2.400 -0.01 +0.00    +0.141 N  
DOCKED: ATOM     16  C   UNL     1     -48.924 -29.893   3.180 -0.00 +0.00    +0.285 C  
DOCKED: ATOM     17  C   UNL     1     -51.231 -30.558   3.094 -0.01 +0.00    +0.285 C  
DOCKED: ENDBRANCH  14  15
DOCKED: ENDBRANCH  13  14
DOCKED: ENDBRANCH  12  13
DOCKED: ENDBRANCH   2  12
DOCKED: BRANCH   2  18
DOCKED: ATOM     18  C   UNL     1     -50.812 -29.389  -1.717 -0.02 +0.00    +0.006 A  
DOCKED: ATOM     19  C   UNL     1     -50.352 -30.603  -1.209 -0.01 +0.00    +0.001 A  
DOCKED: ATOM     20  C   UNL     1     -49.219 -31.204  -1.759 -0.00 +0.00    +0.029 A  
DOCKED: ATOM     21  C   UNL     1     -48.548 -30.590  -2.816 -0.00 +0.00    +0.140 A  
DOCKED: ATOM     22  C   UNL     1     -49.009 -29.376  -3.325 -0.00 +0.00    +0.029 A  
DOCKED: ATOM     23  F   UNL     1     -47.462 -31.168  -3.345 +0.00 -0.00    -0.204 F  
DOCKED: ATOM     24  C   UNL     1     -50.142 -28.774  -2.775 -0.01 +0.00    +0.001 A  
DOCKED: ENDBRANCH   2  18
DOCKED: TORSDOF 5
DOCKED: TER
DOCKED: ENDMDL
________________________________________________________________________________


    FINAL DOCKED STATE:
    ________________________


Run:   337 / 512
Time taken for this run:   0.002s

DOCKED: MODEL        337
DOCKED: USER    Run = 337
DOCKED: USER
DOCKED: USER    Estimated Free Energy of Binding    =  -3.67 kcal/mol  [=(1)+(2)+(3)-(4)]
DOCKED: USER
DOCKED: USER    (1) Final Intermolecular Energy     =  -5.16 kcal/mol
DOCKED: USER        vdW + Hbond + desolv Energy     =  -5.16 kcal/mol
DOCKED: USER        Electrostatic Energy            =  +0.00 kcal/mol
DOCKED: USER        Moving Ligand-Fixed Receptor    =  -5.16 kcal/mol
DOCKED: USER        Moving Ligand-Moving Receptor   =  +0.00 kcal/mol
DOCKED: USER    (2) Final Total Internal Energy     =  -1.43 kcal/mol
DOCKED: USER    (3) Torsional Free Energy           =  +1.49 kcal/mol
DOCKED: USER    (4) Unbound System's Energy         =  -1.43 kcal/mol
DOCKED: USER
DOCKED: USER
DOCKED: REMARK  5 active torsions:
DOCKED: REMARK  status: ('A' for Active; 'I' for Inactive)
DOCKED: REMARK    1  A    between atoms: C_2  and  C_19 
DOCKED: REMARK    2  A    between atoms: C_2  and  C_11 
DOCKED: REMARK    3  A    between atoms: C_19  and  C_20 
DOCKED: REMARK    4  A    between atoms: C_20  and  C_21 
DOCKED: REMARK    5  A    between atoms: C_21  and  N_22 
DOCKED: USER                              x       y       z     vdW  Elec       q    Type
DOCKED: USER                           _______ _______ _______ _____ _____    ______ ____
DOCKED: ROOT
DOCKED: ATOM      1  O   UNL     1     -58.171 -32.899   7.198 -0.05 -0.00    -0.346 OA 
DOCKED: ATOM      2  C   UNL     1     -59.583 -33.095   7.529 -0.14 +0.00    +0.130 C  
DOCKED: ATOM      3  C   UNL     1     -59.839 -34.532   7.177 -0.21 +0.00    +0.004 A  
DOCKED: ATOM      4  C   UNL     1     -58.652 -35.135   6.785 -0.23 +0.00    +0.006 A  
DOCKED: ATOM      5  C   UNL     1     -57.543 -34.158   6.861 -0.17 +0.00    +0.169 C  
DOCKED: ATOM      6  C   UNL     1     -61.024 -35.251   7.213 -0.21 -0.00    -0.001 A  
DOCKED: ATOM      7  C   UNL     1     -58.610 -36.468   6.413 -0.29 +0.00    +0.008 A  
DOCKED: ATOM      8  C   UNL     1     -60.999 -36.595   6.836 -0.22 +0.00    +0.010 A  
DOCKED: ATOM      9  C   UNL     1     -59.798 -37.200   6.439 -0.22 +0.00    +0.068 A  
DOCKED: ATOM     10  N   UNL     1     -59.785 -39.698   5.751 -2.04 -0.00    -0.191 NA 
DOCKED: ATOM     11  C   UNL     1     -59.790 -38.577   6.058 -0.31 +0.00    +0.101 C  
DOCKED: ENDROOT
DOCKED: BRANCH   2  12
DOCKED: ATOM     12  C   UNL     1     -59.776 -32.803   9.012 -0.04 +0.00    +0.038 C  
DOCKED: BRANCH  12  13
DOCKED: ATOM     13  C   UNL     1     -59.161 -31.460   9.400 -0.02 +0.00    +0.038 C  
DOCKED: BRANCH  13  14
DOCKED: ATOM     14  C   UNL     1     -60.219 -30.359   9.427 -0.00 +0.00    +0.251 C  
DOCKED: BRANCH  14  15
DOCKED: ATOM     15  N   UNL     1     -59.645 -29.094   8.981 -0.00 +0.00    +0.141 N  
DOCKED: ATOM     16  C   UNL     1     -58.425 -29.325   8.206 -0.00 +0.00    +0.285 C  
DOCKED: ATOM     17  C   UNL     1     -60.616 -28.340   8.186 +0.00 +0.00    +0.285 C  
DOCKED: ENDBRANCH  14  15
DOCKED: ENDBRANCH  13  14
DOCKED: ENDBRANCH  12  13
DOCKED: ENDBRANCH   2  12
DOCKED: BRANCH   2  18
DOCKED: ATOM     18  C   UNL     1     -60.364 -32.142   6.687 -0.20 +0.00    +0.006 A  
DOCKED: ATOM     19  C   UNL     1     -59.705 -31.299   5.794 -0.17 +0.00    +0.001 A  
DOCKED: ATOM     20  C   UNL     1     -60.437 -30.408   5.007 -0.14 +0.00    +0.029 A  
DOCKED: ATOM     21  C   UNL     1     -61.826 -30.363   5.114 -0.09 +0.00    +0.140 A  
DOCKED: ATOM     22  C   UNL     1     -62.485 -31.207   6.008 -0.18 +0.00    +0.029 A  
DOCKED: ATOM     23  F   UNL     1     -62.528 -29.509   4.358 -0.04 -0.00    -0.204 F  
DOCKED: ATOM     24  C   UNL     1     -61.754 -32.098   6.795 -0.19 +0.00    +0.001 A  
DOCKED: ENDBRANCH   2  18
DOCKED: TORSDOF 5
DOCKED: TER
DOCKED: ENDMDL
________________________________________________________________________________


    FINAL DOCKED STATE:
    ________________________


Run:   338 / 512
Time taken for this run:   0.002s

DOCKED: MODEL        338
DOCKED: USER    Run = 338
DOCKED: USER
DOCKED: USER    Estimated Free Energy of Binding    =  -3.85 kcal/mol  [=(1)+(2)+(3)-(4)]
DOCKED: USER
DOCKED: USER    (1) Final Intermolecular Energy     =  -5.34 kcal/mol
DOCKED: USER        vdW + Hbond + desolv Energy     =  -5.34 kcal/mol
DOCKED: USER        Electrostatic Energy            =  +0.00 kcal/mol
DOCKED: USER        Moving Ligand-Fixed Receptor    =  -5.34 kcal/mol
DOCKED: USER        Moving Ligand-Moving Receptor   =  +0.00 kcal/mol
DOCKED: USER    (2) Final Total Internal Energy     =  -0.99 kcal/mol
DOCKED: USER    (3) Torsional Free Energy           =  +1.49 kcal/mol
DOCKED: USER    (4) Unbound System's Energy         =  -0.99 kcal/mol
DOCKED: USER
DOCKED: USER
DOCKED: REMARK  5 active torsions:
DOCKED: REMARK  status: ('A' for Active; 'I' for Inactive)
DOCKED: REMARK    1  A    between atoms: C_2  and  C_19 
DOCKED: REMARK    2  A    between atoms: C_2  and  C_11 
DOCKED: REMARK    3  A    between atoms: C_19  and  C_20 
DOCKED: REMARK    4  A    between atoms: C_20  and  C_21 
DOCKED: REMARK    5  A    between atoms: C_21  and  N_22 
DOCKED: USER                              x       y       z     vdW  Elec       q    Type
DOCKED: USER                           _______ _______ _______ _____ _____    ______ ____
DOCKED: ROOT
DOCKED: ATOM      1  O   UNL     1     -48.938 -37.863  -1.360 +0.00 -0.00    -0.346 OA 
DOCKED: ATOM      2  C   UNL     1     -49.586 -36.774  -0.627 -0.06 +0.00    +0.130 C  
DOCKED: ATOM      3  C   UNL     1     -50.284 -37.469   0.506 -0.10 +0.00    +0.004 A  
DOCKED: ATOM      4  C   UNL     1     -49.973 -38.821   0.488 -0.12 +0.00    +0.006 A  
DOCKED: ATOM      5  C   UNL     1     -49.051 -39.109  -0.633 -0.05 +0.00    +0.169 C  
DOCKED: ATOM      6  C   UNL     1     -51.119 -36.944   1.482 -0.15 -0.00    -0.001 A  
DOCKED: ATOM      7  C   UNL     1     -50.485 -39.691   1.435 -0.23 +0.00    +0.008 A  
DOCKED: ATOM      8  C   UNL     1     -51.647 -37.809   2.442 -0.27 +0.00    +0.010 A  
DOCKED: ATOM      9  C   UNL     1     -51.331 -39.176   2.419 -0.29 +0.00    +0.068 A  
DOCKED: ATOM     10  N   UNL     1     -52.324 -40.754   4.218 -2.64 -0.00    -0.191 NA 
DOCKED: ATOM     11  C   UNL     1     -51.879 -40.046   3.411 -0.39 +0.00    +0.101 C  
DOCKED: ENDROOT
DOCKED: BRANCH   2  12
DOCKED: ATOM     12  C   UNL     1     -48.510 -35.803  -0.156 -0.01 +0.00    +0.038 C  
DOCKED: BRANCH  12  13
DOCKED: ATOM     13  C   UNL     1     -48.897 -35.144   1.167 -0.02 +0.00    +0.038 C  
DOCKED: BRANCH  13  14
DOCKED: ATOM     14  C   UNL     1     -48.497 -33.670   1.183 -0.00 +0.00    +0.251 C  
DOCKED: BRANCH  14  15
DOCKED: ATOM     15  N   UNL     1     -49.658 -32.826   0.929 -0.00 +0.00    +0.141 N  
DOCKED: ATOM     16  C   UNL     1     -49.834 -32.609  -0.508 +0.00 +0.00    +0.285 C  
DOCKED: ATOM     17  C   UNL     1     -50.865 -33.424   1.503 -0.01 +0.00    +0.285 C  
DOCKED: ENDBRANCH  14  15
DOCKED: ENDBRANCH  13  14
DOCKED: ENDBRANCH  12  13
DOCKED: ENDBRANCH   2  12
DOCKED: BRANCH   2  18
DOCKED: ATOM     18  C   UNL     1     -50.531 -36.113  -1.574 -0.11 +0.00    +0.006 A  
DOCKED: ATOM     19  C   UNL     1     -51.536 -35.279  -1.087 -0.14 +0.00    +0.001 A  
DOCKED: ATOM     20  C   UNL     1     -52.419 -34.661  -1.974 -0.17 +0.00    +0.029 A  
DOCKED: ATOM     21  C   UNL     1     -52.295 -34.878  -3.345 -0.20 +0.00    +0.140 A  
DOCKED: ATOM     22  C   UNL     1     -51.289 -35.712  -3.832 -0.17 +0.00    +0.029 A  
DOCKED: ATOM     23  F   UNL     1     -53.142 -34.283  -4.196 -0.13 -0.00    -0.204 F  
DOCKED: ATOM     24  C   UNL     1     -50.406 -36.331  -2.946 -0.12 +0.00    +0.001 A  
DOCKED: ENDBRANCH   2  18
DOCKED: TORSDOF 5
DOCKED: TER
DOCKED: ENDMDL
________________________________________________________________________________


    FINAL DOCKED STATE:
    ________________________


Run:   339 / 512
Time taken for this run:   0.002s

DOCKED: MODEL        339
DOCKED: USER    Run = 339
DOCKED: USER
DOCKED: USER    Estimated Free Energy of Binding    =  -4.64 kcal/mol  [=(1)+(2)+(3)-(4)]
DOCKED: USER
DOCKED: USER    (1) Final Intermolecular Energy     =  -6.14 kcal/mol
DOCKED: USER        vdW + Hbond + desolv Energy     =  -6.14 kcal/mol
DOCKED: USER        Electrostatic Energy            =  +0.00 kcal/mol
DOCKED: USER        Moving Ligand-Fixed Receptor    =  -6.14 kcal/mol
DOCKED: USER        Moving Ligand-Moving Receptor   =  +0.00 kcal/mol
DOCKED: USER    (2) Final Total Internal Energy     =  -1.44 kcal/mol
DOCKED: USER    (3) Torsional Free Energy           =  +1.49 kcal/mol
DOCKED: USER    (4) Unbound System's Energy         =  -1.44 kcal/mol
DOCKED: USER
DOCKED: USER
DOCKED: REMARK  5 active torsions:
DOCKED: REMARK  status: ('A' for Active; 'I' for Inactive)
DOCKED: REMARK    1  A    between atoms: C_2  and  C_19 
DOCKED: REMARK    2  A    between atoms: C_2  and  C_11 
DOCKED: REMARK    3  A    between atoms: C_19  and  C_20 
DOCKED: REMARK    4  A    between atoms: C_20  and  C_21 
DOCKED: REMARK    5  A    between atoms: C_21  and  N_22 
DOCKED: USER                              x       y       z     vdW  Elec       q    Type
DOCKED: USER                           _______ _______ _______ _____ _____    ______ ____
DOCKED: ROOT
DOCKED: ATOM      1  O   UNL     1     -57.495 -33.840   7.344 -0.05 -0.00    -0.346 OA 
DOCKED: ATOM      2  C   UNL     1     -58.897 -34.022   7.722 -0.13 +0.00    +0.130 C  
DOCKED: ATOM      3  C   UNL     1     -59.224 -35.403   7.234 -0.21 +0.00    +0.004 A  
DOCKED: ATOM      4  C   UNL     1     -58.081 -36.001   6.721 -0.27 +0.00    +0.006 A  
DOCKED: ATOM      5  C   UNL     1     -56.933 -35.076   6.845 -0.19 +0.00    +0.169 C  
DOCKED: ATOM      6  C   UNL     1     -60.434 -36.081   7.252 -0.20 -0.00    -0.001 A  
DOCKED: ATOM      7  C   UNL     1     -58.108 -37.286   6.208 -0.34 +0.00    +0.008 A  
DOCKED: ATOM      8  C   UNL     1     -60.479 -37.377   6.734 -0.22 +0.00    +0.010 A  
DOCKED: ATOM      9  C   UNL     1     -59.322 -37.976   6.216 -0.26 +0.00    +0.068 A  
DOCKED: ATOM     10  N   UNL     1     -59.438 -40.384   5.267 -2.57 -0.00    -0.191 NA 
DOCKED: ATOM     11  C   UNL     1     -59.386 -39.304   5.692 -0.36 +0.00    +0.101 C  
DOCKED: ENDROOT
DOCKED: BRANCH   2  12
DOCKED: ATOM     12  C   UNL     1     -59.010 -33.885   9.236 -0.04 +0.00    +0.038 C  
DOCKED: BRANCH  12  13
DOCKED: ATOM     13  C   UNL     1     -58.854 -35.237   9.930 -0.04 +0.00    +0.038 C  
DOCKED: BRANCH  13  14
DOCKED: ATOM     14  C   UNL     1     -57.388 -35.528  10.244 -0.01 +0.00    +0.251 C  
DOCKED: BRANCH  14  15
DOCKED: ATOM     15  N   UNL     1     -57.154 -36.966  10.287 -0.05 +0.00    +0.141 N  
DOCKED: ATOM     16  C   UNL     1     -58.394 -37.699  10.025 -0.05 +0.00    +0.285 C  
DOCKED: ATOM     17  C   UNL     1     -56.124 -37.350   9.321 -0.10 +0.00    +0.285 C  
DOCKED: ENDBRANCH  14  15
DOCKED: ENDBRANCH  13  14
DOCKED: ENDBRANCH  12  13
DOCKED: ENDBRANCH   2  12
DOCKED: BRANCH   2  18
DOCKED: ATOM     18  C   UNL     1     -59.678 -32.958   7.026 -0.19 +0.00    +0.006 A  
DOCKED: ATOM     19  C   UNL     1     -61.067 -32.927   7.140 -0.20 +0.00    +0.001 A  
DOCKED: ATOM     20  C   UNL     1     -61.797 -31.932   6.488 -0.19 +0.00    +0.029 A  
DOCKED: ATOM     21  C   UNL     1     -61.137 -30.970   5.724 -0.11 +0.00    +0.140 A  
DOCKED: ATOM     22  C   UNL     1     -59.747 -31.002   5.611 -0.16 +0.00    +0.029 A  
DOCKED: ATOM     23  F   UNL     1     -61.837 -30.014   5.100 -0.03 -0.00    -0.204 F  
DOCKED: ATOM     24  C   UNL     1     -59.016 -31.998   6.262 -0.18 +0.00    +0.001 A  
DOCKED: ENDBRANCH   2  18
DOCKED: TORSDOF 5
DOCKED: TER
DOCKED: ENDMDL
________________________________________________________________________________


    FINAL DOCKED STATE:
    ________________________


Run:   340 / 512
Time taken for this run:   0.002s

DOCKED: MODEL        340
DOCKED: USER    Run = 340
DOCKED: USER
DOCKED: USER    Estimated Free Energy of Binding    =  -4.06 kcal/mol  [=(1)+(2)+(3)-(4)]
DOCKED: USER
DOCKED: USER    (1) Final Intermolecular Energy     =  -5.56 kcal/mol
DOCKED: USER        vdW + Hbond + desolv Energy     =  -5.56 kcal/mol
DOCKED: USER        Electrostatic Energy            =  +0.00 kcal/mol
DOCKED: USER        Moving Ligand-Fixed Receptor    =  -5.56 kcal/mol
DOCKED: USER        Moving Ligand-Moving Receptor   =  +0.00 kcal/mol
DOCKED: USER    (2) Final Total Internal Energy     =  -1.14 kcal/mol
DOCKED: USER    (3) Torsional Free Energy           =  +1.49 kcal/mol
DOCKED: USER    (4) Unbound System's Energy         =  -1.14 kcal/mol
DOCKED: USER
DOCKED: USER
DOCKED: REMARK  5 active torsions:
DOCKED: REMARK  status: ('A' for Active; 'I' for Inactive)
DOCKED: REMARK    1  A    between atoms: C_2  and  C_19 
DOCKED: REMARK    2  A    between atoms: C_2  and  C_11 
DOCKED: REMARK    3  A    between atoms: C_19  and  C_20 
DOCKED: REMARK    4  A    between atoms: C_20  and  C_21 
DOCKED: REMARK    5  A    between atoms: C_21  and  N_22 
DOCKED: USER                              x       y       z     vdW  Elec       q    Type
DOCKED: USER                           _______ _______ _______ _____ _____    ______ ____
DOCKED: ROOT
DOCKED: ATOM      1  O   UNL     1     -55.958 -35.067   8.598 -0.03 -0.00    -0.346 OA 
DOCKED: ATOM      2  C   UNL     1     -57.026 -34.468   7.797 -0.12 +0.00    +0.130 C  
DOCKED: ATOM      3  C   UNL     1     -57.682 -35.644   7.134 -0.23 +0.00    +0.004 A  
DOCKED: ATOM      4  C   UNL     1     -57.112 -36.821   7.601 -0.23 +0.00    +0.006 A  
DOCKED: ATOM      5  C   UNL     1     -56.064 -36.509   8.599 -0.14 +0.00    +0.169 C  
DOCKED: ATOM      6  C   UNL     1     -58.708 -35.672   6.201 -0.22 -0.00    -0.001 A  
DOCKED: ATOM      7  C   UNL     1     -57.542 -38.057   7.152 -0.32 +0.00    +0.008 A  
DOCKED: ATOM      8  C   UNL     1     -59.150 -36.912   5.735 -0.26 +0.00    +0.010 A  
DOCKED: ATOM      9  C   UNL     1     -58.570 -38.098   6.209 -0.30 +0.00    +0.068 A  
DOCKED: ATOM     10  N   UNL     1     -59.417 -40.382   5.327 -2.61 -0.00    -0.191 NA 
DOCKED: ATOM     11  C   UNL     1     -59.037 -39.358   5.722 -0.33 +0.00    +0.101 C  
DOCKED: ENDROOT
DOCKED: BRANCH   2  12
DOCKED: ATOM     12  C   UNL     1     -57.965 -33.713   8.730 -0.06 +0.00    +0.038 C  
DOCKED: BRANCH  12  13
DOCKED: ATOM     13  C   UNL     1     -57.263 -33.323  10.029 -0.02 +0.00    +0.038 C  
DOCKED: BRANCH  13  14
DOCKED: ATOM     14  C   UNL     1     -58.176 -32.475  10.913 -0.00 +0.00    +0.251 C  
DOCKED: BRANCH  14  15
DOCKED: ATOM     15  N   UNL     1     -57.707 -31.095  10.951 -0.00 +0.00    +0.141 N  
DOCKED: ATOM     16  C   UNL     1     -56.265 -31.046  11.195 +0.00 +0.00    +0.285 C  
DOCKED: ATOM     17  C   UNL     1     -58.034 -30.405   9.701 -0.00 +0.00    +0.285 C  
DOCKED: ENDBRANCH  14  15
DOCKED: ENDBRANCH  13  14
DOCKED: ENDBRANCH  12  13
DOCKED: ENDBRANCH   2  12
DOCKED: BRANCH   2  18
DOCKED: ATOM     18  C   UNL     1     -56.374 -33.542   6.825 -0.15 +0.00    +0.006 A  
DOCKED: ATOM     19  C   UNL     1     -55.336 -34.000   6.015 -0.14 +0.00    +0.001 A  
DOCKED: ATOM     20  C   UNL     1     -54.727 -33.133   5.107 -0.14 +0.00    +0.029 A  
DOCKED: ATOM     21  C   UNL     1     -55.157 -31.810   5.009 -0.07 +0.00    +0.140 A  
DOCKED: ATOM     22  C   UNL     1     -56.196 -31.353   5.819 -0.08 +0.00    +0.029 A  
DOCKED: ATOM     23  F   UNL     1     -54.574 -30.979   4.136 -0.01 -0.00    -0.204 F  
DOCKED: ATOM     24  C   UNL     1     -56.805 -32.219   6.728 -0.10 +0.00    +0.001 A  
DOCKED: ENDBRANCH   2  18
DOCKED: TORSDOF 5
DOCKED: TER
DOCKED: ENDMDL
________________________________________________________________________________


    FINAL DOCKED STATE:
    ________________________


Run:   341 / 512
Time taken for this run:   0.002s

DOCKED: MODEL        341
DOCKED: USER    Run = 341
DOCKED: USER
DOCKED: USER    Estimated Free Energy of Binding    =  -3.52 kcal/mol  [=(1)+(2)+(3)-(4)]
DOCKED: USER
DOCKED: USER    (1) Final Intermolecular Energy     =  -5.01 kcal/mol
DOCKED: USER        vdW + Hbond + desolv Energy     =  -5.01 kcal/mol
DOCKED: USER        Electrostatic Energy            =  +0.00 kcal/mol
DOCKED: USER        Moving Ligand-Fixed Receptor    =  -5.01 kcal/mol
DOCKED: USER        Moving Ligand-Moving Receptor   =  +0.00 kcal/mol
DOCKED: USER    (2) Final Total Internal Energy     =  -1.31 kcal/mol
DOCKED: USER    (3) Torsional Free Energy           =  +1.49 kcal/mol
DOCKED: USER    (4) Unbound System's Energy         =  -1.31 kcal/mol
DOCKED: USER
DOCKED: USER
DOCKED: REMARK  5 active torsions:
DOCKED: REMARK  status: ('A' for Active; 'I' for Inactive)
DOCKED: REMARK    1  A    between atoms: C_2  and  C_19 
DOCKED: REMARK    2  A    between atoms: C_2  and  C_11 
DOCKED: REMARK    3  A    between atoms: C_19  and  C_20 
DOCKED: REMARK    4  A    between atoms: C_20  and  C_21 
DOCKED: REMARK    5  A    between atoms: C_21  and  N_22 
DOCKED: USER                              x       y       z     vdW  Elec       q    Type
DOCKED: USER                           _______ _______ _______ _____ _____    ______ ____
DOCKED: ROOT
DOCKED: ATOM      1  O   UNL     1     -56.289 -34.168   9.186 -0.01 -0.00    -0.346 OA 
DOCKED: ATOM      2  C   UNL     1     -56.483 -34.097   7.737 -0.11 +0.00    +0.130 C  
DOCKED: ATOM      3  C   UNL     1     -57.222 -35.362   7.411 -0.19 +0.00    +0.004 A  
DOCKED: ATOM      4  C   UNL     1     -57.522 -36.043   8.582 -0.11 +0.00    +0.006 A  
DOCKED: ATOM      5  C   UNL     1     -57.021 -35.281   9.748 -0.03 +0.00    +0.169 C  
DOCKED: ATOM      6  C   UNL     1     -57.608 -35.865   6.177 -0.25 -0.00    -0.001 A  
DOCKED: ATOM      7  C   UNL     1     -58.210 -37.244   8.561 -0.13 +0.00    +0.008 A  
DOCKED: ATOM      8  C   UNL     1     -58.298 -37.077   6.139 -0.34 +0.00    +0.010 A  
DOCKED: ATOM      9  C   UNL     1     -58.598 -37.763   7.325 -0.19 +0.00    +0.068 A  
DOCKED: ATOM     10  N   UNL     1     -59.886 -40.009   7.220 -1.97 -0.00    -0.191 NA 
DOCKED: ATOM     11  C   UNL     1     -59.307 -39.002   7.267 -0.23 +0.00    +0.101 C  
DOCKED: ENDROOT
DOCKED: BRANCH   2  12
DOCKED: ATOM     12  C   UNL     1     -57.286 -32.841   7.419 -0.11 +0.00    +0.038 C  
DOCKED: BRANCH  12  13
DOCKED: ATOM     13  C   UNL     1     -58.782 -33.070   7.626 -0.13 +0.00    +0.038 C  
DOCKED: BRANCH  13  14
DOCKED: ATOM     14  C   UNL     1     -59.543 -32.957   6.307 -0.11 +0.00    +0.251 C  
DOCKED: BRANCH  14  15
DOCKED: ATOM     15  N   UNL     1     -60.831 -33.634   6.404 -0.21 +0.00    +0.141 N  
DOCKED: ATOM     16  C   UNL     1     -60.738 -34.796   7.290 -0.13 +0.00    +0.285 C  
DOCKED: ATOM     17  C   UNL     1     -61.863 -32.712   6.883 -0.13 +0.00    +0.285 C  
DOCKED: ENDBRANCH  14  15
DOCKED: ENDBRANCH  13  14
DOCKED: ENDBRANCH  12  13
DOCKED: ENDBRANCH   2  12
DOCKED: BRANCH   2  18
DOCKED: ATOM     18  C   UNL     1     -55.126 -34.039   7.118 -0.13 +0.00    +0.006 A  
DOCKED: ATOM     19  C   UNL     1     -54.858 -33.111   6.112 -0.13 +0.00    +0.001 A  
DOCKED: ATOM     20  C   UNL     1     -53.589 -33.059   5.534 -0.09 +0.00    +0.029 A  
DOCKED: ATOM     21  C   UNL     1     -52.591 -33.933   5.961 -0.08 +0.00    +0.140 A  
DOCKED: ATOM     22  C   UNL     1     -52.860 -34.861   6.967 -0.09 +0.00    +0.029 A  
DOCKED: ATOM     23  F   UNL     1     -51.373 -33.881   5.407 -0.01 -0.00    -0.204 F  
DOCKED: ATOM     24  C   UNL     1     -54.129 -34.915   7.546 -0.10 +0.00    +0.001 A  
DOCKED: ENDBRANCH   2  18
DOCKED: TORSDOF 5
DOCKED: TER
DOCKED: ENDMDL
________________________________________________________________________________


    FINAL DOCKED STATE:
    ________________________


Run:   342 / 512
Time taken for this run:   0.002s

DOCKED: MODEL        342
DOCKED: USER    Run = 342
DOCKED: USER
DOCKED: USER    Estimated Free Energy of Binding    =  -3.38 kcal/mol  [=(1)+(2)+(3)-(4)]
DOCKED: USER
DOCKED: USER    (1) Final Intermolecular Energy     =  -4.87 kcal/mol
DOCKED: USER        vdW + Hbond + desolv Energy     =  -4.87 kcal/mol
DOCKED: USER        Electrostatic Energy            =  +0.00 kcal/mol
DOCKED: USER        Moving Ligand-Fixed Receptor    =  -4.87 kcal/mol
DOCKED: USER        Moving Ligand-Moving Receptor   =  +0.00 kcal/mol
DOCKED: USER    (2) Final Total Internal Energy     =  -1.36 kcal/mol
DOCKED: USER    (3) Torsional Free Energy           =  +1.49 kcal/mol
DOCKED: USER    (4) Unbound System's Energy         =  -1.36 kcal/mol
DOCKED: USER
DOCKED: USER
DOCKED: REMARK  5 active torsions:
DOCKED: REMARK  status: ('A' for Active; 'I' for Inactive)
DOCKED: REMARK    1  A    between atoms: C_2  and  C_19 
DOCKED: REMARK    2  A    between atoms: C_2  and  C_11 
DOCKED: REMARK    3  A    between atoms: C_19  and  C_20 
DOCKED: REMARK    4  A    between atoms: C_20  and  C_21 
DOCKED: REMARK    5  A    between atoms: C_21  and  N_22 
DOCKED: USER                              x       y       z     vdW  Elec       q    Type
DOCKED: USER                           _______ _______ _______ _____ _____    ______ ____
DOCKED: ROOT
DOCKED: ATOM      1  O   UNL     1     -59.014 -34.782   9.341 -0.00 -0.00    -0.346 OA 
DOCKED: ATOM      2  C   UNL     1     -60.333 -34.745   8.708 -0.06 +0.00    +0.130 C  
DOCKED: ATOM      3  C   UNL     1     -60.326 -35.936   7.793 -0.15 +0.00    +0.004 A  
DOCKED: ATOM      4  C   UNL     1     -59.152 -36.653   7.969 -0.13 +0.00    +0.006 A  
DOCKED: ATOM      5  C   UNL     1     -58.318 -36.005   9.006 -0.05 +0.00    +0.169 C  
DOCKED: ATOM      6  C   UNL     1     -61.288 -36.356   6.886 -0.23 -0.00    -0.001 A  
DOCKED: ATOM      7  C   UNL     1     -58.897 -37.806   7.246 -0.22 +0.00    +0.008 A  
DOCKED: ATOM      8  C   UNL     1     -61.044 -37.515   6.147 -0.26 +0.00    +0.010 A  
DOCKED: ATOM      9  C   UNL     1     -59.854 -38.236   6.326 -0.24 +0.00    +0.068 A  
DOCKED: ATOM     10  N   UNL     1     -59.434 -40.385   4.941 -2.33 -0.00    -0.191 NA 
DOCKED: ATOM     11  C   UNL     1     -59.622 -39.421   5.562 -0.34 +0.00    +0.101 C  
DOCKED: ENDROOT
DOCKED: BRANCH   2  12
DOCKED: ATOM     12  C   UNL     1     -61.394 -34.840   9.797 -0.04 +0.00    +0.038 C  
DOCKED: BRANCH  12  13
DOCKED: ATOM     13  C   UNL     1     -61.182 -33.778  10.875 -0.02 +0.00    +0.038 C  
DOCKED: BRANCH  13  14
DOCKED: ATOM     14  C   UNL     1     -62.366 -32.815  10.938 -0.00 +0.00    +0.251 C  
DOCKED: BRANCH  14  15
DOCKED: ATOM     15  N   UNL     1     -61.902 -31.457  11.194 -0.00 +0.00    +0.141 N  
DOCKED: ATOM     16  C   UNL     1     -60.608 -31.474  11.878 +0.00 +0.00    +0.285 C  
DOCKED: ATOM     17  C   UNL     1     -61.805 -30.701   9.944 +0.00 +0.00    +0.285 C  
DOCKED: ENDBRANCH  14  15
DOCKED: ENDBRANCH  13  14
DOCKED: ENDBRANCH  12  13
DOCKED: ENDBRANCH   2  12
DOCKED: BRANCH   2  18
DOCKED: ATOM     18  C   UNL     1     -60.429 -33.449   7.974 -0.12 +0.00    +0.006 A  
DOCKED: ATOM     19  C   UNL     1     -61.649 -33.039   7.440 -0.18 +0.00    +0.001 A  
DOCKED: ATOM     20  C   UNL     1     -61.737 -31.827   6.754 -0.17 +0.00    +0.029 A  
DOCKED: ATOM     21  C   UNL     1     -60.606 -31.027   6.605 -0.10 +0.00    +0.140 A  
DOCKED: ATOM     22  C   UNL     1     -59.385 -31.437   7.140 -0.10 +0.00    +0.029 A  
DOCKED: ATOM     23  F   UNL     1     -60.691 -29.863   5.948 -0.01 -0.00    -0.204 F  
DOCKED: ATOM     24  C   UNL     1     -59.296 -32.650   7.825 -0.10 +0.00    +0.001 A  
DOCKED: ENDBRANCH   2  18
DOCKED: TORSDOF 5
DOCKED: TER
DOCKED: ENDMDL
________________________________________________________________________________


    FINAL DOCKED STATE:
    ________________________


Run:   343 / 512
Time taken for this run:   0.002s

DOCKED: MODEL        343
DOCKED: USER    Run = 343
DOCKED: USER
DOCKED: USER    Estimated Free Energy of Binding    =  -4.86 kcal/mol  [=(1)+(2)+(3)-(4)]
DOCKED: USER
DOCKED: USER    (1) Final Intermolecular Energy     =  -6.36 kcal/mol
DOCKED: USER        vdW + Hbond + desolv Energy     =  -6.36 kcal/mol
DOCKED: USER        Electrostatic Energy            =  +0.00 kcal/mol
DOCKED: USER        Moving Ligand-Fixed Receptor    =  -6.36 kcal/mol
DOCKED: USER        Moving Ligand-Moving Receptor   =  +0.00 kcal/mol
DOCKED: USER    (2) Final Total Internal Energy     =  -1.10 kcal/mol
DOCKED: USER    (3) Torsional Free Energy           =  +1.49 kcal/mol
DOCKED: USER    (4) Unbound System's Energy         =  -1.10 kcal/mol
DOCKED: USER
DOCKED: USER
DOCKED: REMARK  5 active torsions:
DOCKED: REMARK  status: ('A' for Active; 'I' for Inactive)
DOCKED: REMARK    1  A    between atoms: C_2  and  C_19 
DOCKED: REMARK    2  A    between atoms: C_2  and  C_11 
DOCKED: REMARK    3  A    between atoms: C_19  and  C_20 
DOCKED: REMARK    4  A    between atoms: C_20  and  C_21 
DOCKED: REMARK    5  A    between atoms: C_21  and  N_22 
DOCKED: USER                              x       y       z     vdW  Elec       q    Type
DOCKED: USER                           _______ _______ _______ _____ _____    ______ ____
DOCKED: ROOT
DOCKED: ATOM      1  O   UNL     1     -54.834 -30.080   0.296 -0.08 -0.00    -0.346 OA 
DOCKED: ATOM      2  C   UNL     1     -53.674 -30.031  -0.596 -0.14 +0.00    +0.130 C  
DOCKED: ATOM      3  C   UNL     1     -54.178 -29.288  -1.800 -0.23 +0.00    +0.004 A  
DOCKED: ATOM      4  C   UNL     1     -55.476 -28.854  -1.571 -0.30 +0.00    +0.006 A  
DOCKED: ATOM      5  C   UNL     1     -55.911 -29.262  -0.216 -0.24 +0.00    +0.169 C  
DOCKED: ATOM      6  C   UNL     1     -53.535 -29.009  -2.997 -0.18 -0.00    -0.001 A  
DOCKED: ATOM      7  C   UNL     1     -56.174 -28.134  -2.526 -0.38 +0.00    +0.008 A  
DOCKED: ATOM      8  C   UNL     1     -54.227 -28.287  -3.971 -0.24 +0.00    +0.010 A  
DOCKED: ATOM      9  C   UNL     1     -55.540 -27.852  -3.736 -0.24 +0.00    +0.068 A  
DOCKED: ATOM     10  N   UNL     1     -56.794 -26.511  -5.565 -2.54 -0.00    -0.191 NA 
DOCKED: ATOM     11  C   UNL     1     -56.232 -27.113  -4.745 -0.32 +0.00    +0.101 C  
DOCKED: ENDROOT
DOCKED: BRANCH   2  12
DOCKED: ATOM     12  C   UNL     1     -52.544 -29.302   0.121 -0.12 +0.00    +0.038 C  
DOCKED: BRANCH  12  13
DOCKED: ATOM     13  C   UNL     1     -51.564 -28.681  -0.872 -0.08 +0.00    +0.038 C  
DOCKED: BRANCH  13  14
DOCKED: ATOM     14  C   UNL     1     -51.562 -27.157  -0.763 -0.10 +0.00    +0.251 C  
DOCKED: BRANCH  14  15
DOCKED: ATOM     15  N   UNL     1     -51.999 -26.559  -2.019 -0.10 +0.00    +0.141 N  
DOCKED: ATOM     16  C   UNL     1     -53.053 -25.571  -1.781 -0.13 +0.00    +0.285 C  
DOCKED: ATOM     17  C   UNL     1     -50.870 -25.939  -2.715 -0.02 +0.00    +0.285 C  
DOCKED: ENDBRANCH  14  15
DOCKED: ENDBRANCH  13  14
DOCKED: ENDBRANCH  12  13
DOCKED: ENDBRANCH   2  12
DOCKED: BRANCH   2  18
DOCKED: ATOM     18  C   UNL     1     -53.297 -31.442  -0.900 -0.12 +0.00    +0.006 A  
DOCKED: ATOM     19  C   UNL     1     -53.749 -32.476  -0.080 -0.16 +0.00    +0.001 A  
DOCKED: ATOM     20  C   UNL     1     -53.395 -33.795  -0.365 -0.19 +0.00    +0.029 A  
DOCKED: ATOM     21  C   UNL     1     -52.592 -34.079  -1.468 -0.16 +0.00    +0.140 A  
DOCKED: ATOM     22  C   UNL     1     -52.141 -33.045  -2.288 -0.12 +0.00    +0.029 A  
DOCKED: ATOM     23  F   UNL     1     -52.254 -35.346  -1.743 -0.07 -0.00    -0.204 F  
DOCKED: ATOM     24  C   UNL     1     -52.494 -31.725  -2.004 -0.09 +0.00    +0.001 A  
DOCKED: ENDBRANCH   2  18
DOCKED: TORSDOF 5
DOCKED: TER
DOCKED: ENDMDL
________________________________________________________________________________


    FINAL DOCKED STATE:
    ________________________


Run:   344 / 512
Time taken for this run:   0.002s

DOCKED: MODEL        344
DOCKED: USER    Run = 344
DOCKED: USER
DOCKED: USER    Estimated Free Energy of Binding    =  -4.42 kcal/mol  [=(1)+(2)+(3)-(4)]
DOCKED: USER
DOCKED: USER    (1) Final Intermolecular Energy     =  -5.92 kcal/mol
DOCKED: USER        vdW + Hbond + desolv Energy     =  -5.92 kcal/mol
DOCKED: USER        Electrostatic Energy            =  +0.00 kcal/mol
DOCKED: USER        Moving Ligand-Fixed Receptor    =  -5.92 kcal/mol
DOCKED: USER        Moving Ligand-Moving Receptor   =  +0.00 kcal/mol
DOCKED: USER    (2) Final Total Internal Energy     =  -1.15 kcal/mol
DOCKED: USER    (3) Torsional Free Energy           =  +1.49 kcal/mol
DOCKED: USER    (4) Unbound System's Energy         =  -1.15 kcal/mol
DOCKED: USER
DOCKED: USER
DOCKED: REMARK  5 active torsions:
DOCKED: REMARK  status: ('A' for Active; 'I' for Inactive)
DOCKED: REMARK    1  A    between atoms: C_2  and  C_19 
DOCKED: REMARK    2  A    between atoms: C_2  and  C_11 
DOCKED: REMARK    3  A    between atoms: C_19  and  C_20 
DOCKED: REMARK    4  A    between atoms: C_20  and  C_21 
DOCKED: REMARK    5  A    between atoms: C_21  and  N_22 
DOCKED: USER                              x       y       z     vdW  Elec       q    Type
DOCKED: USER                           _______ _______ _______ _____ _____    ______ ____
DOCKED: ROOT
DOCKED: ATOM      1  O   UNL     1     -55.244 -35.964   8.732 -0.06 -0.00    -0.346 OA 
DOCKED: ATOM      2  C   UNL     1     -56.100 -35.126   7.891 -0.13 +0.00    +0.130 C  
DOCKED: ATOM      3  C   UNL     1     -57.000 -36.109   7.201 -0.23 +0.00    +0.004 A  
DOCKED: ATOM      4  C   UNL     1     -56.757 -37.386   7.687 -0.26 +0.00    +0.006 A  
DOCKED: ATOM      5  C   UNL     1     -55.703 -37.336   8.725 -0.17 +0.00    +0.169 C  
DOCKED: ATOM      6  C   UNL     1     -57.966 -35.890   6.230 -0.28 -0.00    -0.001 A  
DOCKED: ATOM      7  C   UNL     1     -57.462 -38.482   7.219 -0.34 +0.00    +0.008 A  
DOCKED: ATOM      8  C   UNL     1     -58.683 -36.985   5.745 -0.34 +0.00    +0.010 A  
DOCKED: ATOM      9  C   UNL     1     -58.432 -38.274   6.238 -0.31 +0.00    +0.068 A  
DOCKED: ATOM     10  N   UNL     1     -59.783 -40.285   5.319 -2.53 -0.00    -0.191 NA 
DOCKED: ATOM     11  C   UNL     1     -59.177 -39.383   5.731 -0.31 +0.00    +0.101 C  
DOCKED: ENDROOT
DOCKED: BRANCH   2  12
DOCKED: ATOM     12  C   UNL     1     -56.857 -34.156   8.790 -0.06 +0.00    +0.038 C  
DOCKED: BRANCH  12  13
DOCKED: ATOM     13  C   UNL     1     -57.684 -33.167   7.970 -0.09 +0.00    +0.038 C  
DOCKED: BRANCH  13  14
DOCKED: ATOM     14  C   UNL     1     -59.178 -33.460   8.100 -0.06 +0.00    +0.251 C  
DOCKED: BRANCH  14  15
DOCKED: ATOM     15  N   UNL     1     -59.404 -34.523   9.072 -0.03 +0.00    +0.141 N  
DOCKED: ATOM     16  C   UNL     1     -59.861 -33.967  10.347 -0.00 +0.00    +0.285 C  
DOCKED: ATOM     17  C   UNL     1     -60.377 -35.490   8.562 -0.03 +0.00    +0.285 C  
DOCKED: ENDBRANCH  14  15
DOCKED: ENDBRANCH  13  14
DOCKED: ENDBRANCH  12  13
DOCKED: ENDBRANCH   2  12
DOCKED: BRANCH   2  18
DOCKED: ATOM     18  C   UNL     1     -55.203 -34.397   6.947 -0.14 +0.00    +0.006 A  
DOCKED: ATOM     19  C   UNL     1     -53.856 -34.221   7.260 -0.11 +0.00    +0.001 A  
DOCKED: ATOM     20  C   UNL     1     -53.019 -33.538   6.376 -0.08 +0.00    +0.029 A  
DOCKED: ATOM     21  C   UNL     1     -53.530 -33.033   5.181 -0.08 +0.00    +0.140 A  
DOCKED: ATOM     22  C   UNL     1     -54.878 -33.210   4.869 -0.14 +0.00    +0.029 A  
DOCKED: ATOM     23  F   UNL     1     -52.726 -32.380   4.332 -0.00 -0.00    -0.204 F  
DOCKED: ATOM     24  C   UNL     1     -55.716 -33.892   5.752 -0.13 +0.00    +0.001 A  
DOCKED: ENDBRANCH   2  18
DOCKED: TORSDOF 5
DOCKED: TER
DOCKED: ENDMDL
________________________________________________________________________________


    FINAL DOCKED STATE:
    ________________________


Run:   345 / 512
Time taken for this run:   0.002s

DOCKED: MODEL        345
DOCKED: USER    Run = 345
DOCKED: USER
DOCKED: USER    Estimated Free Energy of Binding    =  -3.89 kcal/mol  [=(1)+(2)+(3)-(4)]
DOCKED: USER
DOCKED: USER    (1) Final Intermolecular Energy     =  -5.38 kcal/mol
DOCKED: USER        vdW + Hbond + desolv Energy     =  -5.38 kcal/mol
DOCKED: USER        Electrostatic Energy            =  +0.00 kcal/mol
DOCKED: USER        Moving Ligand-Fixed Receptor    =  -5.38 kcal/mol
DOCKED: USER        Moving Ligand-Moving Receptor   =  +0.00 kcal/mol
DOCKED: USER    (2) Final Total Internal Energy     =  -1.33 kcal/mol
DOCKED: USER    (3) Torsional Free Energy           =  +1.49 kcal/mol
DOCKED: USER    (4) Unbound System's Energy         =  -1.33 kcal/mol
DOCKED: USER
DOCKED: USER
DOCKED: REMARK  5 active torsions:
DOCKED: REMARK  status: ('A' for Active; 'I' for Inactive)
DOCKED: REMARK    1  A    between atoms: C_2  and  C_19 
DOCKED: REMARK    2  A    between atoms: C_2  and  C_11 
DOCKED: REMARK    3  A    between atoms: C_19  and  C_20 
DOCKED: REMARK    4  A    between atoms: C_20  and  C_21 
DOCKED: REMARK    5  A    between atoms: C_21  and  N_22 
DOCKED: USER                              x       y       z     vdW  Elec       q    Type
DOCKED: USER                           _______ _______ _______ _____ _____    ______ ____
DOCKED: ROOT
DOCKED: ATOM      1  O   UNL     1     -50.336 -25.886  -3.417 +0.00 -0.00    -0.346 OA 
DOCKED: ATOM      2  C   UNL     1     -51.022 -26.627  -2.359 -0.06 +0.00    +0.130 C  
DOCKED: ATOM      3  C   UNL     1     -52.425 -26.773  -2.873 -0.14 +0.00    +0.004 A  
DOCKED: ATOM      4  C   UNL     1     -52.507 -26.258  -4.159 -0.17 +0.00    +0.006 A  
DOCKED: ATOM      5  C   UNL     1     -51.182 -25.755  -4.584 -0.09 +0.00    +0.169 C  
DOCKED: ATOM      6  C   UNL     1     -53.538 -27.327  -2.256 -0.20 -0.00    -0.001 A  
DOCKED: ATOM      7  C   UNL     1     -53.697 -26.275  -4.867 -0.26 +0.00    +0.008 A  
DOCKED: ATOM      8  C   UNL     1     -54.745 -27.347  -2.955 -0.33 +0.00    +0.010 A  
DOCKED: ATOM      9  C   UNL     1     -54.824 -26.824  -4.255 -0.36 +0.00    +0.068 A  
DOCKED: ATOM     10  N   UNL     1     -57.080 -26.882  -5.528 -2.57 -0.00    -0.191 NA 
DOCKED: ATOM     11  C   UNL     1     -56.068 -26.855  -4.957 -0.38 +0.00    +0.101 C  
DOCKED: ENDROOT
DOCKED: BRANCH   2  12
DOCKED: ATOM     12  C   UNL     1     -50.317 -27.965  -2.172 -0.03 +0.00    +0.038 C  
DOCKED: BRANCH  12  13
DOCKED: ATOM     13  C   UNL     1     -51.034 -29.083  -2.926 -0.03 +0.00    +0.038 C  
DOCKED: BRANCH  13  14
DOCKED: ATOM     14  C   UNL     1     -50.519 -29.196  -4.360 -0.00 +0.00    +0.251 C  
DOCKED: BRANCH  14  15
DOCKED: ATOM     15  N   UNL     1     -51.256 -30.226  -5.084 -0.03 +0.00    +0.141 N  
DOCKED: ATOM     16  C   UNL     1     -52.685 -30.150  -4.776 -0.11 +0.00    +0.285 C  
DOCKED: ATOM     17  C   UNL     1     -51.039 -30.098  -6.526 -0.02 +0.00    +0.285 C  
DOCKED: ENDBRANCH  14  15
DOCKED: ENDBRANCH  13  14
DOCKED: ENDBRANCH  12  13
DOCKED: ENDBRANCH   2  12
DOCKED: BRANCH   2  18
DOCKED: ATOM     18  C   UNL     1     -50.940 -25.798  -1.121 -0.11 +0.00    +0.006 A  
DOCKED: ATOM     19  C   UNL     1     -50.110 -26.192  -0.072 -0.08 +0.00    +0.001 A  
DOCKED: ATOM     20  C   UNL     1     -50.034 -25.416   1.085 -0.08 +0.00    +0.029 A  
DOCKED: ATOM     21  C   UNL     1     -50.786 -24.247   1.191 +0.00 +0.00    +0.140 A  
DOCKED: ATOM     22  C   UNL     1     -51.615 -23.853   0.141 -0.13 +0.00    +0.029 A  
DOCKED: ATOM     23  F   UNL     1     -50.711 -23.501   2.301 -0.03 -0.00    -0.204 F  
DOCKED: ATOM     24  C   UNL     1     -51.693 -24.629  -1.016 -0.18 +0.00    +0.001 A  
DOCKED: ENDBRANCH   2  18
DOCKED: TORSDOF 5
DOCKED: TER
DOCKED: ENDMDL
________________________________________________________________________________


    FINAL DOCKED STATE:
    ________________________


Run:   346 / 512
Time taken for this run:   0.002s

DOCKED: MODEL        346
DOCKED: USER    Run = 346
DOCKED: USER
DOCKED: USER    Estimated Free Energy of Binding    =  -4.00 kcal/mol  [=(1)+(2)+(3)-(4)]
DOCKED: USER
DOCKED: USER    (1) Final Intermolecular Energy     =  -5.49 kcal/mol
DOCKED: USER        vdW + Hbond + desolv Energy     =  -5.49 kcal/mol
DOCKED: USER        Electrostatic Energy            =  +0.00 kcal/mol
DOCKED: USER        Moving Ligand-Fixed Receptor    =  -5.49 kcal/mol
DOCKED: USER        Moving Ligand-Moving Receptor   =  +0.00 kcal/mol
DOCKED: USER    (2) Final Total Internal Energy     =  -1.06 kcal/mol
DOCKED: USER    (3) Torsional Free Energy           =  +1.49 kcal/mol
DOCKED: USER    (4) Unbound System's Energy         =  -1.06 kcal/mol
DOCKED: USER
DOCKED: USER
DOCKED: REMARK  5 active torsions:
DOCKED: REMARK  status: ('A' for Active; 'I' for Inactive)
DOCKED: REMARK    1  A    between atoms: C_2  and  C_19 
DOCKED: REMARK    2  A    between atoms: C_2  and  C_11 
DOCKED: REMARK    3  A    between atoms: C_19  and  C_20 
DOCKED: REMARK    4  A    between atoms: C_20  and  C_21 
DOCKED: REMARK    5  A    between atoms: C_21  and  N_22 
DOCKED: USER                              x       y       z     vdW  Elec       q    Type
DOCKED: USER                           _______ _______ _______ _____ _____    ______ ____
DOCKED: ROOT
DOCKED: ATOM      1  O   UNL     1     -57.886 -38.888   9.688 -0.08 -0.00    -0.346 OA 
DOCKED: ATOM      2  C   UNL     1     -57.444 -37.605   9.141 -0.13 +0.00    +0.130 C  
DOCKED: ATOM      3  C   UNL     1     -57.781 -37.700   7.681 -0.25 +0.00    +0.004 A  
DOCKED: ATOM      4  C   UNL     1     -58.456 -38.887   7.434 -0.29 +0.00    +0.006 A  
DOCKED: ATOM      5  C   UNL     1     -58.623 -39.642   8.697 -0.23 +0.00    +0.169 C  
DOCKED: ATOM      6  C   UNL     1     -57.520 -36.803   6.655 -0.29 -0.00    -0.001 A  
DOCKED: ATOM      7  C   UNL     1     -58.889 -39.219   6.162 -0.30 +0.00    +0.008 A  
DOCKED: ATOM      8  C   UNL     1     -57.946 -37.126   5.365 -0.16 +0.00    +0.010 A  
DOCKED: ATOM      9  C   UNL     1     -58.627 -38.327   5.121 -0.37 +0.00    +0.068 A  
DOCKED: ATOM     10  N   UNL     1     -59.408 -38.893   2.716 -1.93 -0.00    -0.191 NA 
DOCKED: ATOM     11  C   UNL     1     -59.057 -38.640   3.794 -0.52 +0.00    +0.101 C  
DOCKED: ENDROOT
DOCKED: BRANCH   2  12
DOCKED: ATOM     12  C   UNL     1     -58.200 -36.490   9.853 -0.07 +0.00    +0.038 C  
DOCKED: BRANCH  12  13
DOCKED: ATOM     13  C   UNL     1     -59.420 -37.031  10.596 -0.05 +0.00    +0.038 C  
DOCKED: BRANCH  13  14
DOCKED: ATOM     14  C   UNL     1     -59.207 -36.986  12.108 -0.01 +0.00    +0.251 C  
DOCKED: BRANCH  14  15
DOCKED: ATOM     15  N   UNL     1     -58.534 -35.749  12.488 -0.00 +0.00    +0.141 N  
DOCKED: ATOM     16  C   UNL     1     -59.511 -34.714  12.829 +0.00 +0.00    +0.285 C  
DOCKED: ATOM     17  C   UNL     1     -57.627 -35.981  13.614 -0.00 +0.00    +0.285 C  
DOCKED: ENDBRANCH  14  15
DOCKED: ENDBRANCH  13  14
DOCKED: ENDBRANCH  12  13
DOCKED: ENDBRANCH   2  12
DOCKED: BRANCH   2  18
DOCKED: ATOM     18  C   UNL     1     -55.976 -37.506   9.394 -0.15 +0.00    +0.006 A  
DOCKED: ATOM     19  C   UNL     1     -55.492 -37.517  10.701 -0.11 +0.00    +0.001 A  
DOCKED: ATOM     20  C   UNL     1     -54.120 -37.424  10.936 -0.09 +0.00    +0.029 A  
DOCKED: ATOM     21  C   UNL     1     -53.234 -37.321   9.865 -0.09 +0.00    +0.140 A  
DOCKED: ATOM     22  C   UNL     1     -53.719 -37.309   8.557 -0.17 +0.00    +0.029 A  
DOCKED: ATOM     23  F   UNL     1     -51.917 -37.233  10.091 -0.01 -0.00    -0.204 F  
DOCKED: ATOM     24  C   UNL     1     -55.092 -37.402   8.321 -0.19 +0.00    +0.001 A  
DOCKED: ENDBRANCH   2  18
DOCKED: TORSDOF 5
DOCKED: TER
DOCKED: ENDMDL
________________________________________________________________________________


    FINAL DOCKED STATE:
    ________________________


Run:   347 / 512
Time taken for this run:   0.002s

DOCKED: MODEL        347
DOCKED: USER    Run = 347
DOCKED: USER
DOCKED: USER    Estimated Free Energy of Binding    =  -5.46 kcal/mol  [=(1)+(2)+(3)-(4)]
DOCKED: USER
DOCKED: USER    (1) Final Intermolecular Energy     =  -6.95 kcal/mol
DOCKED: USER        vdW + Hbond + desolv Energy     =  -6.95 kcal/mol
DOCKED: USER        Electrostatic Energy            =  +0.00 kcal/mol
DOCKED: USER        Moving Ligand-Fixed Receptor    =  -6.95 kcal/mol
DOCKED: USER        Moving Ligand-Moving Receptor   =  +0.00 kcal/mol
DOCKED: USER    (2) Final Total Internal Energy     =  -1.10 kcal/mol
DOCKED: USER    (3) Torsional Free Energy           =  +1.49 kcal/mol
DOCKED: USER    (4) Unbound System's Energy         =  -1.10 kcal/mol
DOCKED: USER
DOCKED: USER
DOCKED: REMARK  5 active torsions:
DOCKED: REMARK  status: ('A' for Active; 'I' for Inactive)
DOCKED: REMARK    1  A    between atoms: C_2  and  C_19 
DOCKED: REMARK    2  A    between atoms: C_2  and  C_11 
DOCKED: REMARK    3  A    between atoms: C_19  and  C_20 
DOCKED: REMARK    4  A    between atoms: C_20  and  C_21 
DOCKED: REMARK    5  A    between atoms: C_21  and  N_22 
DOCKED: USER                              x       y       z     vdW  Elec       q    Type
DOCKED: USER                           _______ _______ _______ _____ _____    ______ ____
DOCKED: ROOT
DOCKED: ATOM      1  O   UNL     1     -61.165 -38.227   8.412 -0.02 -0.00    -0.346 OA 
DOCKED: ATOM      2  C   UNL     1     -60.024 -37.361   8.109 -0.11 +0.00    +0.130 C  
DOCKED: ATOM      3  C   UNL     1     -59.791 -37.575   6.642 -0.24 +0.00    +0.004 A  
DOCKED: ATOM      4  C   UNL     1     -60.779 -38.403   6.127 -0.29 +0.00    +0.006 A  
DOCKED: ATOM      5  C   UNL     1     -61.728 -38.779   7.199 -0.16 +0.00    +0.169 C  
DOCKED: ATOM      6  C   UNL     1     -58.791 -37.068   5.825 -0.34 -0.00    -0.001 A  
DOCKED: ATOM      7  C   UNL     1     -60.799 -38.755   4.788 -0.34 +0.00    +0.008 A  
DOCKED: ATOM      8  C   UNL     1     -58.795 -37.417   4.473 -0.25 +0.00    +0.010 A  
DOCKED: ATOM      9  C   UNL     1     -59.795 -38.256   3.958 -0.33 +0.00    +0.068 A  
DOCKED: ATOM     10  N   UNL     1     -59.776 -38.880   1.443 -2.98 -0.00    -0.191 NA 
DOCKED: ATOM     11  C   UNL     1     -59.784 -38.601   2.571 -0.27 +0.00    +0.101 C  
DOCKED: ENDROOT
DOCKED: BRANCH   2  12
DOCKED: ATOM     12  C   UNL     1     -60.405 -35.925   8.446 -0.11 +0.00    +0.038 C  
DOCKED: BRANCH  12  13
DOCKED: ATOM     13  C   UNL     1     -61.430 -35.373   7.457 -0.21 +0.00    +0.038 C  
DOCKED: BRANCH  13  14
DOCKED: ATOM     14  C   UNL     1     -61.399 -33.846   7.428 -0.14 +0.00    +0.251 C  
DOCKED: BRANCH  14  15
DOCKED: ATOM     15  N   UNL     1     -60.025 -33.368   7.329 -0.15 +0.00    +0.141 N  
DOCKED: ATOM     16  C   UNL     1     -59.928 -32.271   6.366 -0.14 +0.00    +0.285 C  
DOCKED: ATOM     17  C   UNL     1     -59.534 -32.938   8.639 -0.03 +0.00    +0.285 C  
DOCKED: ENDBRANCH  14  15
DOCKED: ENDBRANCH  13  14
DOCKED: ENDBRANCH  12  13
DOCKED: ENDBRANCH   2  12
DOCKED: BRANCH   2  18
DOCKED: ATOM     18  C   UNL     1     -58.886 -37.829   8.953 -0.13 +0.00    +0.006 A  
DOCKED: ATOM     19  C   UNL     1     -57.816 -36.975   9.215 -0.10 +0.00    +0.001 A  
DOCKED: ATOM     20  C   UNL     1     -56.752 -37.413  10.004 -0.11 +0.00    +0.029 A  
DOCKED: ATOM     21  C   UNL     1     -56.760 -38.704  10.531 -0.05 +0.00    +0.140 A  
DOCKED: ATOM     22  C   UNL     1     -57.831 -39.558  10.269 -0.23 +0.00    +0.029 A  
DOCKED: ATOM     23  F   UNL     1     -55.740 -39.124  11.290 +0.01 -0.00    -0.204 F  
DOCKED: ATOM     24  C   UNL     1     -58.896 -39.120   9.479 -0.22 +0.00    +0.001 A  
DOCKED: ENDBRANCH   2  18
DOCKED: TORSDOF 5
DOCKED: TER
DOCKED: ENDMDL
________________________________________________________________________________


    FINAL DOCKED STATE:
    ________________________


Run:   348 / 512
Time taken for this run:   0.002s

DOCKED: MODEL        348
DOCKED: USER    Run = 348
DOCKED: USER
DOCKED: USER    Estimated Free Energy of Binding    =  -3.26 kcal/mol  [=(1)+(2)+(3)-(4)]
DOCKED: USER
DOCKED: USER    (1) Final Intermolecular Energy     =  -4.75 kcal/mol
DOCKED: USER        vdW + Hbond + desolv Energy     =  -4.75 kcal/mol
DOCKED: USER        Electrostatic Energy            =  +0.00 kcal/mol
DOCKED: USER        Moving Ligand-Fixed Receptor    =  -4.75 kcal/mol
DOCKED: USER        Moving Ligand-Moving Receptor   =  +0.00 kcal/mol
DOCKED: USER    (2) Final Total Internal Energy     =  -1.51 kcal/mol
DOCKED: USER    (3) Torsional Free Energy           =  +1.49 kcal/mol
DOCKED: USER    (4) Unbound System's Energy         =  -1.51 kcal/mol
DOCKED: USER
DOCKED: USER
DOCKED: REMARK  5 active torsions:
DOCKED: REMARK  status: ('A' for Active; 'I' for Inactive)
DOCKED: REMARK    1  A    between atoms: C_2  and  C_19 
DOCKED: REMARK    2  A    between atoms: C_2  and  C_11 
DOCKED: REMARK    3  A    between atoms: C_19  and  C_20 
DOCKED: REMARK    4  A    between atoms: C_20  and  C_21 
DOCKED: REMARK    5  A    between atoms: C_21  and  N_22 
DOCKED: USER                              x       y       z     vdW  Elec       q    Type
DOCKED: USER                           _______ _______ _______ _____ _____    ______ ____
DOCKED: ROOT
DOCKED: ATOM      1  O   UNL     1     -49.834 -35.391   0.299 +0.01 -0.00    -0.346 OA 
DOCKED: ATOM      2  C   UNL     1     -50.094 -36.522  -0.594 -0.08 +0.00    +0.130 C  
DOCKED: ATOM      3  C   UNL     1     -50.582 -37.602   0.328 -0.12 +0.00    +0.004 A  
DOCKED: ATOM      4  C   UNL     1     -50.696 -37.100   1.617 -0.12 +0.00    +0.006 A  
DOCKED: ATOM      5  C   UNL     1     -50.311 -35.671   1.635 -0.04 +0.00    +0.169 C  
DOCKED: ATOM      6  C   UNL     1     -50.909 -38.920   0.046 -0.17 -0.00    -0.001 A  
DOCKED: ATOM      7  C   UNL     1     -51.135 -37.894   2.663 -0.22 +0.00    +0.008 A  
DOCKED: ATOM      8  C   UNL     1     -51.349 -39.735   1.091 -0.29 +0.00    +0.010 A  
DOCKED: ATOM      9  C   UNL     1     -51.461 -39.224   2.392 -0.30 +0.00    +0.068 A  
DOCKED: ATOM     10  N   UNL     1     -52.285 -40.761   4.308 -2.68 -0.00    -0.191 NA 
DOCKED: ATOM     11  C   UNL     1     -51.915 -40.072   3.449 -0.40 +0.00    +0.101 C  
DOCKED: ENDROOT
DOCKED: BRANCH   2  12
DOCKED: ATOM     12  C   UNL     1     -51.140 -36.098  -1.617 -0.10 +0.00    +0.038 C  
DOCKED: BRANCH  12  13
DOCKED: ATOM     13  C   UNL     1     -50.721 -34.823  -2.347 -0.09 +0.00    +0.038 C  
DOCKED: BRANCH  13  14
DOCKED: ATOM     14  C   UNL     1     -51.187 -33.579  -1.592 -0.04 +0.00    +0.251 C  
DOCKED: BRANCH  14  15
DOCKED: ATOM     15  N   UNL     1     -50.068 -32.672  -1.369 -0.00 +0.00    +0.141 N  
DOCKED: ATOM     16  C   UNL     1     -49.927 -32.367   0.056 +0.00 +0.00    +0.285 C  
DOCKED: ATOM     17  C   UNL     1     -48.827 -33.246  -1.891 +0.00 +0.00    +0.285 C  
DOCKED: ENDBRANCH  14  15
DOCKED: ENDBRANCH  13  14
DOCKED: ENDBRANCH  12  13
DOCKED: ENDBRANCH   2  12
DOCKED: BRANCH   2  18
DOCKED: ATOM     18  C   UNL     1     -48.800 -36.862  -1.255 -0.03 +0.00    +0.006 A  
DOCKED: ATOM     19  C   UNL     1     -48.796 -37.592  -2.443 -0.05 +0.00    +0.001 A  
DOCKED: ATOM     20  C   UNL     1     -47.586 -37.910  -3.060 -0.01 +0.00    +0.029 A  
DOCKED: ATOM     21  C   UNL     1     -46.383 -37.497  -2.490 -0.00 +0.00    +0.140 A  
DOCKED: ATOM     22  C   UNL     1     -46.388 -36.766  -1.303 -0.00 +0.00    +0.029 A  
DOCKED: ATOM     23  F   UNL     1     -45.221 -37.800  -3.084 +0.00 -0.00    -0.204 F  
DOCKED: ATOM     24  C   UNL     1     -47.598 -36.448  -0.684 -0.00 +0.00    +0.001 A  
DOCKED: ENDBRANCH   2  18
DOCKED: TORSDOF 5
DOCKED: TER
DOCKED: ENDMDL
________________________________________________________________________________


    FINAL DOCKED STATE:
    ________________________


Run:   349 / 512
Time taken for this run:   0.002s

DOCKED: MODEL        349
DOCKED: USER    Run = 349
DOCKED: USER
DOCKED: USER    Estimated Free Energy of Binding    =  -4.00 kcal/mol  [=(1)+(2)+(3)-(4)]
DOCKED: USER
DOCKED: USER    (1) Final Intermolecular Energy     =  -5.49 kcal/mol
DOCKED: USER        vdW + Hbond + desolv Energy     =  -5.49 kcal/mol
DOCKED: USER        Electrostatic Energy            =  +0.00 kcal/mol
DOCKED: USER        Moving Ligand-Fixed Receptor    =  -5.49 kcal/mol
DOCKED: USER        Moving Ligand-Moving Receptor   =  +0.00 kcal/mol
DOCKED: USER    (2) Final Total Internal Energy     =  -1.25 kcal/mol
DOCKED: USER    (3) Torsional Free Energy           =  +1.49 kcal/mol
DOCKED: USER    (4) Unbound System's Energy         =  -1.25 kcal/mol
DOCKED: USER
DOCKED: USER
DOCKED: REMARK  5 active torsions:
DOCKED: REMARK  status: ('A' for Active; 'I' for Inactive)
DOCKED: REMARK    1  A    between atoms: C_2  and  C_19 
DOCKED: REMARK    2  A    between atoms: C_2  and  C_11 
DOCKED: REMARK    3  A    between atoms: C_19  and  C_20 
DOCKED: REMARK    4  A    between atoms: C_20  and  C_21 
DOCKED: REMARK    5  A    between atoms: C_21  and  N_22 
DOCKED: USER                              x       y       z     vdW  Elec       q    Type
DOCKED: USER                           _______ _______ _______ _____ _____    ______ ____
DOCKED: ROOT
DOCKED: ATOM      1  O   UNL     1     -51.046 -25.643  -1.462 -0.03 -0.00    -0.346 OA 
DOCKED: ATOM      2  C   UNL     1     -50.852 -25.383  -2.889 -0.07 +0.00    +0.130 C  
DOCKED: ATOM      3  C   UNL     1     -52.167 -25.765  -3.505 -0.15 +0.00    +0.004 A  
DOCKED: ATOM      4  C   UNL     1     -53.069 -26.107  -2.508 -0.23 +0.00    +0.006 A  
DOCKED: ATOM      5  C   UNL     1     -52.428 -25.965  -1.181 -0.11 +0.00    +0.169 C  
DOCKED: ATOM      6  C   UNL     1     -52.538 -25.796  -4.842 -0.16 -0.00    -0.001 A  
DOCKED: ATOM      7  C   UNL     1     -54.364 -26.494  -2.809 -0.30 +0.00    +0.008 A  
DOCKED: ATOM      8  C   UNL     1     -53.839 -26.188  -5.162 -0.28 +0.00    +0.010 A  
DOCKED: ATOM      9  C   UNL     1     -54.747 -26.534  -4.150 -0.35 +0.00    +0.068 A  
DOCKED: ATOM     10  N   UNL     1     -57.156 -27.253  -4.778 -2.52 -0.00    -0.191 NA 
DOCKED: ATOM     11  C   UNL     1     -56.075 -26.931  -4.497 -0.42 +0.00    +0.101 C  
DOCKED: ENDROOT
DOCKED: BRANCH   2  12
DOCKED: ATOM     12  C   UNL     1     -50.518 -23.907  -3.070 -0.11 +0.00    +0.038 C  
DOCKED: BRANCH  12  13
DOCKED: ATOM     13  C   UNL     1     -51.238 -23.042  -2.036 -0.13 +0.00    +0.038 C  
DOCKED: BRANCH  13  14
DOCKED: ATOM     14  C   UNL     1     -52.613 -22.612  -2.543 -0.10 +0.00    +0.251 C  
DOCKED: BRANCH  14  15
DOCKED: ATOM     15  N   UNL     1     -53.395 -22.033  -1.456 -0.19 +0.00    +0.141 N  
DOCKED: ATOM     16  C   UNL     1     -53.780 -23.065  -0.492 -0.21 +0.00    +0.285 C  
DOCKED: ATOM     17  C   UNL     1     -52.642 -20.970  -0.788 -0.05 +0.00    +0.285 C  
DOCKED: ENDBRANCH  14  15
DOCKED: ENDBRANCH  13  14
DOCKED: ENDBRANCH  12  13
DOCKED: ENDBRANCH   2  12
DOCKED: BRANCH   2  18
DOCKED: ATOM     18  C   UNL     1     -49.724 -26.250  -3.340 -0.03 +0.00    +0.006 A  
DOCKED: ATOM     19  C   UNL     1     -48.436 -25.724  -3.435 -0.01 +0.00    +0.001 A  
DOCKED: ATOM     20  C   UNL     1     -47.383 -26.535  -3.858 -0.00 +0.00    +0.029 A  
DOCKED: ATOM     21  C   UNL     1     -47.618 -27.870  -4.185 +0.00 +0.00    +0.140 A  
DOCKED: ATOM     22  C   UNL     1     -48.907 -28.395  -4.090 -0.00 +0.00    +0.029 A  
DOCKED: ATOM     23  F   UNL     1     -46.606 -28.649  -4.589 +0.00 -0.00    -0.204 F  
DOCKED: ATOM     24  C   UNL     1     -49.961 -27.584  -3.668 -0.02 +0.00    +0.001 A  
DOCKED: ENDBRANCH   2  18
DOCKED: TORSDOF 5
DOCKED: TER
DOCKED: ENDMDL
________________________________________________________________________________


    FINAL DOCKED STATE:
    ________________________


Run:   350 / 512
Time taken for this run:   0.002s

DOCKED: MODEL        350
DOCKED: USER    Run = 350
DOCKED: USER
DOCKED: USER    Estimated Free Energy of Binding    =  -3.97 kcal/mol  [=(1)+(2)+(3)-(4)]
DOCKED: USER
DOCKED: USER    (1) Final Intermolecular Energy     =  -5.46 kcal/mol
DOCKED: USER        vdW + Hbond + desolv Energy     =  -5.46 kcal/mol
DOCKED: USER        Electrostatic Energy            =  +0.00 kcal/mol
DOCKED: USER        Moving Ligand-Fixed Receptor    =  -5.46 kcal/mol
DOCKED: USER        Moving Ligand-Moving Receptor   =  +0.00 kcal/mol
DOCKED: USER    (2) Final Total Internal Energy     =  -1.35 kcal/mol
DOCKED: USER    (3) Torsional Free Energy           =  +1.49 kcal/mol
DOCKED: USER    (4) Unbound System's Energy         =  -1.35 kcal/mol
DOCKED: USER
DOCKED: USER
DOCKED: REMARK  5 active torsions:
DOCKED: REMARK  status: ('A' for Active; 'I' for Inactive)
DOCKED: REMARK    1  A    between atoms: C_2  and  C_19 
DOCKED: REMARK    2  A    between atoms: C_2  and  C_11 
DOCKED: REMARK    3  A    between atoms: C_19  and  C_20 
DOCKED: REMARK    4  A    between atoms: C_20  and  C_21 
DOCKED: REMARK    5  A    between atoms: C_21  and  N_22 
DOCKED: USER                              x       y       z     vdW  Elec       q    Type
DOCKED: USER                           _______ _______ _______ _____ _____    ______ ____
DOCKED: ROOT
DOCKED: ATOM      1  O   UNL     1     -58.899 -34.136   8.731 -0.01 -0.00    -0.346 OA 
DOCKED: ATOM      2  C   UNL     1     -58.087 -34.095   7.514 -0.14 +0.00    +0.130 C  
DOCKED: ATOM      3  C   UNL     1     -58.317 -35.439   6.884 -0.24 +0.00    +0.004 A  
DOCKED: ATOM      4  C   UNL     1     -59.262 -36.143   7.617 -0.16 +0.00    +0.006 A  
DOCKED: ATOM      5  C   UNL     1     -59.726 -35.322   8.758 -0.05 +0.00    +0.169 C  
DOCKED: ATOM      6  C   UNL     1     -57.744 -35.989   5.747 -0.09 -0.00    -0.001 A  
DOCKED: ATOM      7  C   UNL     1     -59.662 -37.414   7.244 -0.19 +0.00    +0.008 A  
DOCKED: ATOM      8  C   UNL     1     -58.133 -37.273   5.361 -0.26 +0.00    +0.010 A  
DOCKED: ATOM      9  C   UNL     1     -59.088 -37.981   6.105 -0.28 +0.00    +0.068 A  
DOCKED: ATOM     10  N   UNL     1     -59.792 -40.360   5.357 -2.54 -0.00    -0.191 NA 
DOCKED: ATOM     11  C   UNL     1     -59.476 -39.293   5.693 -0.36 +0.00    +0.101 C  
DOCKED: ENDROOT
DOCKED: BRANCH   2  12
DOCKED: ATOM     12  C   UNL     1     -58.575 -32.942   6.647 -0.19 +0.00    +0.038 C  
DOCKED: BRANCH  12  13
DOCKED: ATOM     13  C   UNL     1     -59.983 -32.502   7.044 -0.19 +0.00    +0.038 C  
DOCKED: BRANCH  13  14
DOCKED: ATOM     14  C   UNL     1     -61.042 -33.293   6.279 -0.05 +0.00    +0.251 C  
DOCKED: BRANCH  14  15
DOCKED: ATOM     15  N   UNL     1     -62.299 -33.305   7.018 -0.18 +0.00    +0.141 N  
DOCKED: ATOM     16  C   UNL     1     -62.768 -34.677   7.215 -0.14 +0.00    +0.285 C  
DOCKED: ATOM     17  C   UNL     1     -62.144 -32.632   8.309 -0.03 +0.00    +0.285 C  
DOCKED: ENDBRANCH  14  15
DOCKED: ENDBRANCH  13  14
DOCKED: ENDBRANCH  12  13
DOCKED: ENDBRANCH   2  12
DOCKED: BRANCH   2  18
DOCKED: ATOM     18  C   UNL     1     -56.672 -33.888   7.941 -0.09 +0.00    +0.006 A  
DOCKED: ATOM     19  C   UNL     1     -55.794 -33.180   7.120 -0.11 +0.00    +0.001 A  
DOCKED: ATOM     20  C   UNL     1     -54.471 -32.987   7.520 -0.06 +0.00    +0.029 A  
DOCKED: ATOM     21  C   UNL     1     -54.029 -33.500   8.738 -0.02 +0.00    +0.140 A  
DOCKED: ATOM     22  C   UNL     1     -54.907 -34.207   9.558 -0.03 +0.00    +0.029 A  
DOCKED: ATOM     23  F   UNL     1     -52.759 -33.313   9.122 -0.00 -0.00    -0.204 F  
DOCKED: ATOM     24  C   UNL     1     -56.231 -34.402   9.159 -0.05 +0.00    +0.001 A  
DOCKED: ENDBRANCH   2  18
DOCKED: TORSDOF 5
DOCKED: TER
DOCKED: ENDMDL
________________________________________________________________________________


    FINAL DOCKED STATE:
    ________________________


Run:   351 / 512
Time taken for this run:   0.002s

DOCKED: MODEL        351
DOCKED: USER    Run = 351
DOCKED: USER
DOCKED: USER    Estimated Free Energy of Binding    =  -4.41 kcal/mol  [=(1)+(2)+(3)-(4)]
DOCKED: USER
DOCKED: USER    (1) Final Intermolecular Energy     =  -5.90 kcal/mol
DOCKED: USER        vdW + Hbond + desolv Energy     =  -5.90 kcal/mol
DOCKED: USER        Electrostatic Energy            =  +0.00 kcal/mol
DOCKED: USER        Moving Ligand-Fixed Receptor    =  -5.90 kcal/mol
DOCKED: USER        Moving Ligand-Moving Receptor   =  +0.00 kcal/mol
DOCKED: USER    (2) Final Total Internal Energy     =  -1.03 kcal/mol
DOCKED: USER    (3) Torsional Free Energy           =  +1.49 kcal/mol
DOCKED: USER    (4) Unbound System's Energy         =  -1.03 kcal/mol
DOCKED: USER
DOCKED: USER
DOCKED: REMARK  5 active torsions:
DOCKED: REMARK  status: ('A' for Active; 'I' for Inactive)
DOCKED: REMARK    1  A    between atoms: C_2  and  C_19 
DOCKED: REMARK    2  A    between atoms: C_2  and  C_11 
DOCKED: REMARK    3  A    between atoms: C_19  and  C_20 
DOCKED: REMARK    4  A    between atoms: C_20  and  C_21 
DOCKED: REMARK    5  A    between atoms: C_21  and  N_22 
DOCKED: USER                              x       y       z     vdW  Elec       q    Type
DOCKED: USER                           _______ _______ _______ _____ _____    ______ ____
DOCKED: ROOT
DOCKED: ATOM      1  O   UNL     1     -59.796 -39.958   7.170 -1.85 -0.00    -0.346 OA 
DOCKED: ATOM      2  C   UNL     1     -59.063 -38.764   6.748 -0.26 +0.00    +0.130 C  
DOCKED: ATOM      3  C   UNL     1     -59.760 -37.643   7.463 -0.18 +0.00    +0.004 A  
DOCKED: ATOM      4  C   UNL     1     -60.734 -38.160   8.305 -0.15 +0.00    +0.006 A  
DOCKED: ATOM      5  C   UNL     1     -60.741 -39.637   8.218 -0.16 +0.00    +0.169 C  
DOCKED: ATOM      6  C   UNL     1     -59.541 -36.275   7.383 -0.19 -0.00    -0.001 A  
DOCKED: ATOM      7  C   UNL     1     -61.522 -37.334   9.088 -0.09 +0.00    +0.008 A  
DOCKED: ATOM      8  C   UNL     1     -60.331 -35.429   8.163 -0.12 +0.00    +0.010 A  
DOCKED: ATOM      9  C   UNL     1     -61.316 -35.956   9.012 -0.05 +0.00    +0.068 A  
DOCKED: ATOM     10  N   UNL     1     -62.760 -34.357  10.450 -0.01 -0.00    -0.191 NA 
DOCKED: ATOM     11  C   UNL     1     -62.113 -35.074   9.805 -0.04 +0.00    +0.101 C  
DOCKED: ENDROOT
DOCKED: BRANCH   2  12
DOCKED: ATOM     12  C   UNL     1     -57.605 -38.919   7.167 -0.41 +0.00    +0.038 C  
DOCKED: BRANCH  12  13
DOCKED: ATOM     13  C   UNL     1     -57.482 -39.196   8.664 -0.26 +0.00    +0.038 C  
DOCKED: BRANCH  13  14
DOCKED: ATOM     14  C   UNL     1     -57.324 -37.897   9.451 -0.10 +0.00    +0.251 C  
DOCKED: BRANCH  14  15
DOCKED: ATOM     15  N   UNL     1     -56.056 -37.890  10.170 -0.10 +0.00    +0.141 N  
DOCKED: ATOM     16  C   UNL     1     -55.165 -36.859   9.635 -0.08 +0.00    +0.285 C  
DOCKED: ATOM     17  C   UNL     1     -56.275 -37.679  11.602 -0.05 +0.00    +0.285 C  
DOCKED: ENDBRANCH  14  15
DOCKED: ENDBRANCH  13  14
DOCKED: ENDBRANCH  12  13
DOCKED: ENDBRANCH   2  12
DOCKED: BRANCH   2  18
DOCKED: ATOM     18  C   UNL     1     -59.190 -38.676   5.264 -0.42 +0.00    +0.006 A  
DOCKED: ATOM     19  C   UNL     1     -59.794 -39.713   4.554 -0.40 +0.00    +0.001 A  
DOCKED: ATOM     20  C   UNL     1     -59.912 -39.629   3.166 -0.31 +0.00    +0.029 A  
DOCKED: ATOM     21  C   UNL     1     -59.428 -38.510   2.491 -0.18 +0.00    +0.140 A  
DOCKED: ATOM     22  C   UNL     1     -58.824 -37.473   3.202 -0.15 +0.00    +0.029 A  
DOCKED: ATOM     23  F   UNL     1     -59.543 -38.429   1.159 +0.00 -0.00    -0.204 F  
DOCKED: ATOM     24  C   UNL     1     -58.705 -37.556   4.590 -0.34 +0.00    +0.001 A  
DOCKED: ENDBRANCH   2  18
DOCKED: TORSDOF 5
DOCKED: TER
DOCKED: ENDMDL
________________________________________________________________________________


    FINAL DOCKED STATE:
    ________________________


Run:   352 / 512
Time taken for this run:   0.002s

DOCKED: MODEL        352
DOCKED: USER    Run = 352
DOCKED: USER
DOCKED: USER    Estimated Free Energy of Binding    =  -3.90 kcal/mol  [=(1)+(2)+(3)-(4)]
DOCKED: USER
DOCKED: USER    (1) Final Intermolecular Energy     =  -5.39 kcal/mol
DOCKED: USER        vdW + Hbond + desolv Energy     =  -5.39 kcal/mol
DOCKED: USER        Electrostatic Energy            =  +0.00 kcal/mol
DOCKED: USER        Moving Ligand-Fixed Receptor    =  -5.39 kcal/mol
DOCKED: USER        Moving Ligand-Moving Receptor   =  +0.00 kcal/mol
DOCKED: USER    (2) Final Total Internal Energy     =  -0.97 kcal/mol
DOCKED: USER    (3) Torsional Free Energy           =  +1.49 kcal/mol
DOCKED: USER    (4) Unbound System's Energy         =  -0.97 kcal/mol
DOCKED: USER
DOCKED: USER
DOCKED: REMARK  5 active torsions:
DOCKED: REMARK  status: ('A' for Active; 'I' for Inactive)
DOCKED: REMARK    1  A    between atoms: C_2  and  C_19 
DOCKED: REMARK    2  A    between atoms: C_2  and  C_11 
DOCKED: REMARK    3  A    between atoms: C_19  and  C_20 
DOCKED: REMARK    4  A    between atoms: C_20  and  C_21 
DOCKED: REMARK    5  A    between atoms: C_21  and  N_22 
DOCKED: USER                              x       y       z     vdW  Elec       q    Type
DOCKED: USER                           _______ _______ _______ _____ _____    ______ ____
DOCKED: ROOT
DOCKED: ATOM      1  O   UNL     1     -55.748 -37.187  10.217 -0.05 -0.00    -0.346 OA 
DOCKED: ATOM      2  C   UNL     1     -55.810 -36.247   9.096 -0.11 +0.00    +0.130 C  
DOCKED: ATOM      3  C   UNL     1     -56.717 -36.924   8.110 -0.21 +0.00    +0.004 A  
DOCKED: ATOM      4  C   UNL     1     -57.217 -38.095   8.662 -0.22 +0.00    +0.006 A  
DOCKED: ATOM      5  C   UNL     1     -56.695 -38.265  10.036 -0.08 +0.00    +0.169 C  
DOCKED: ATOM      6  C   UNL     1     -57.080 -36.530   6.830 -0.22 -0.00    -0.001 A  
DOCKED: ATOM      7  C   UNL     1     -58.088 -38.910   7.958 -0.28 +0.00    +0.008 A  
DOCKED: ATOM      8  C   UNL     1     -57.953 -37.343   6.106 -0.34 +0.00    +0.010 A  
DOCKED: ATOM      9  C   UNL     1     -58.455 -38.527   6.668 -0.29 +0.00    +0.068 A  
DOCKED: ATOM     10  N   UNL     1     -60.079 -40.010   5.298 -2.32 -0.00    -0.191 NA 
DOCKED: ATOM     11  C   UNL     1     -59.350 -39.345   5.912 -0.27 +0.00    +0.101 C  
DOCKED: ENDROOT
DOCKED: BRANCH   2  12
DOCKED: ATOM     12  C   UNL     1     -56.370 -34.925   9.606 -0.05 +0.00    +0.038 C  
DOCKED: BRANCH  12  13
DOCKED: ATOM     13  C   UNL     1     -56.969 -34.098   8.470 -0.07 +0.00    +0.038 C  
DOCKED: BRANCH  13  14
DOCKED: ATOM     14  C   UNL     1     -56.380 -32.689   8.446 -0.02 +0.00    +0.251 C  
DOCKED: BRANCH  14  15
DOCKED: ATOM     15  N   UNL     1     -56.015 -32.314   7.085 -0.05 +0.00    +0.141 N  
DOCKED: ATOM     16  C   UNL     1     -56.897 -32.967   6.116 -0.06 +0.00    +0.285 C  
DOCKED: ATOM     17  C   UNL     1     -56.067 -30.860   6.919 -0.02 +0.00    +0.285 C  
DOCKED: ENDBRANCH  14  15
DOCKED: ENDBRANCH  13  14
DOCKED: ENDBRANCH  12  13
DOCKED: ENDBRANCH   2  12
DOCKED: BRANCH   2  18
DOCKED: ATOM     18  C   UNL     1     -54.417 -36.082   8.587 -0.14 +0.00    +0.006 A  
DOCKED: ATOM     19  C   UNL     1     -54.015 -34.863   8.043 -0.10 +0.00    +0.001 A  
DOCKED: ATOM     20  C   UNL     1     -52.712 -34.709   7.567 -0.09 +0.00    +0.029 A  
DOCKED: ATOM     21  C   UNL     1     -51.815 -35.774   7.636 -0.07 +0.00    +0.140 A  
DOCKED: ATOM     22  C   UNL     1     -52.218 -36.993   8.181 -0.14 +0.00    +0.029 A  
DOCKED: ATOM     23  F   UNL     1     -50.564 -35.626   7.181 -0.00 -0.00    -0.204 F  
DOCKED: ATOM     24  C   UNL     1     -53.521 -37.147   8.657 -0.17 +0.00    +0.001 A  
DOCKED: ENDBRANCH   2  18
DOCKED: TORSDOF 5
DOCKED: TER
DOCKED: ENDMDL
________________________________________________________________________________


    FINAL DOCKED STATE:
    ________________________


Run:   353 / 512
Time taken for this run:   0.002s

DOCKED: MODEL        353
DOCKED: USER    Run = 353
DOCKED: USER
DOCKED: USER    Estimated Free Energy of Binding    =  -4.31 kcal/mol  [=(1)+(2)+(3)-(4)]
DOCKED: USER
DOCKED: USER    (1) Final Intermolecular Energy     =  -5.80 kcal/mol
DOCKED: USER        vdW + Hbond + desolv Energy     =  -5.80 kcal/mol
DOCKED: USER        Electrostatic Energy            =  +0.00 kcal/mol
DOCKED: USER        Moving Ligand-Fixed Receptor    =  -5.80 kcal/mol
DOCKED: USER        Moving Ligand-Moving Receptor   =  +0.00 kcal/mol
DOCKED: USER    (2) Final Total Internal Energy     =  -1.13 kcal/mol
DOCKED: USER    (3) Torsional Free Energy           =  +1.49 kcal/mol
DOCKED: USER    (4) Unbound System's Energy         =  -1.13 kcal/mol
DOCKED: USER
DOCKED: USER
DOCKED: REMARK  5 active torsions:
DOCKED: REMARK  status: ('A' for Active; 'I' for Inactive)
DOCKED: REMARK    1  A    between atoms: C_2  and  C_19 
DOCKED: REMARK    2  A    between atoms: C_2  and  C_11 
DOCKED: REMARK    3  A    between atoms: C_19  and  C_20 
DOCKED: REMARK    4  A    between atoms: C_20  and  C_21 
DOCKED: REMARK    5  A    between atoms: C_21  and  N_22 
DOCKED: USER                              x       y       z     vdW  Elec       q    Type
DOCKED: USER                           _______ _______ _______ _____ _____    ______ ____
DOCKED: ROOT
DOCKED: ATOM      1  O   UNL     1     -59.283 -36.084   9.192 -0.00 -0.00    -0.346 OA 
DOCKED: ATOM      2  C   UNL     1     -58.137 -36.989   9.093 -0.09 +0.00    +0.130 C  
DOCKED: ATOM      3  C   UNL     1     -58.254 -37.566   7.712 -0.21 +0.00    +0.004 A  
DOCKED: ATOM      4  C   UNL     1     -59.308 -36.962   7.041 -0.22 +0.00    +0.006 A  
DOCKED: ATOM      5  C   UNL     1     -59.945 -35.950   7.913 -0.11 +0.00    +0.169 C  
DOCKED: ATOM      6  C   UNL     1     -57.481 -38.539   7.094 -0.35 -0.00    -0.001 A  
DOCKED: ATOM      7  C   UNL     1     -59.628 -37.311   5.740 -0.27 +0.00    +0.008 A  
DOCKED: ATOM      8  C   UNL     1     -57.794 -38.905   5.784 -0.38 +0.00    +0.010 A  
DOCKED: ATOM      9  C   UNL     1     -58.862 -38.293   5.110 -0.37 +0.00    +0.068 A  
DOCKED: ATOM     10  N   UNL     1     -59.412 -38.992   2.677 -1.89 -0.00    -0.191 NA 
DOCKED: ATOM     11  C   UNL     1     -59.166 -38.679   3.768 -0.51 +0.00    +0.101 C  
DOCKED: ENDROOT
DOCKED: BRANCH   2  12
DOCKED: ATOM     12  C   UNL     1     -56.863 -36.177   9.291 -0.10 +0.00    +0.038 C  
DOCKED: BRANCH  12  13
DOCKED: ATOM     13  C   UNL     1     -56.172 -35.891   7.959 -0.18 +0.00    +0.038 C  
DOCKED: BRANCH  13  14
DOCKED: ATOM     14  C   UNL     1     -54.711 -36.336   7.991 -0.01 +0.00    +0.251 C  
DOCKED: BRANCH  14  15
DOCKED: ATOM     15  N   UNL     1     -54.274 -36.544   9.366 -0.10 +0.00    +0.141 N  
DOCKED: ATOM     16  C   UNL     1     -53.424 -37.731   9.464 -0.06 +0.00    +0.285 C  
DOCKED: ATOM     17  C   UNL     1     -53.560 -35.366   9.864 -0.02 +0.00    +0.285 C  
DOCKED: ENDBRANCH  14  15
DOCKED: ENDBRANCH  13  14
DOCKED: ENDBRANCH  12  13
DOCKED: ENDBRANCH   2  12
DOCKED: BRANCH   2  18
DOCKED: ATOM     18  C   UNL     1     -58.296 -38.013  10.166 -0.12 +0.00    +0.006 A  
DOCKED: ATOM     19  C   UNL     1     -57.352 -39.030  10.303 -0.18 +0.00    +0.001 A  
DOCKED: ATOM     20  C   UNL     1     -57.502 -39.988  11.307 -0.25 +0.00    +0.029 A  
DOCKED: ATOM     21  C   UNL     1     -58.593 -39.926  12.173 -0.12 +0.00    +0.140 A  
DOCKED: ATOM     22  C   UNL     1     -59.536 -38.908  12.035 -0.11 +0.00    +0.029 A  
DOCKED: ATOM     23  F   UNL     1     -58.735 -40.844  13.138 -0.05 -0.00    -0.204 F  
DOCKED: ATOM     24  C   UNL     1     -59.388 -37.950  11.031 -0.08 +0.00    +0.001 A  
DOCKED: ENDBRANCH   2  18
DOCKED: TORSDOF 5
DOCKED: TER
DOCKED: ENDMDL
________________________________________________________________________________


    FINAL DOCKED STATE:
    ________________________


Run:   354 / 512
Time taken for this run:   0.002s

DOCKED: MODEL        354
DOCKED: USER    Run = 354
DOCKED: USER
DOCKED: USER    Estimated Free Energy of Binding    =  -5.00 kcal/mol  [=(1)+(2)+(3)-(4)]
DOCKED: USER
DOCKED: USER    (1) Final Intermolecular Energy     =  -6.49 kcal/mol
DOCKED: USER        vdW + Hbond + desolv Energy     =  -6.49 kcal/mol
DOCKED: USER        Electrostatic Energy            =  +0.00 kcal/mol
DOCKED: USER        Moving Ligand-Fixed Receptor    =  -6.49 kcal/mol
DOCKED: USER        Moving Ligand-Moving Receptor   =  +0.00 kcal/mol
DOCKED: USER    (2) Final Total Internal Energy     =  -1.05 kcal/mol
DOCKED: USER    (3) Torsional Free Energy           =  +1.49 kcal/mol
DOCKED: USER    (4) Unbound System's Energy         =  -1.05 kcal/mol
DOCKED: USER
DOCKED: USER
DOCKED: REMARK  5 active torsions:
DOCKED: REMARK  status: ('A' for Active; 'I' for Inactive)
DOCKED: REMARK    1  A    between atoms: C_2  and  C_19 
DOCKED: REMARK    2  A    between atoms: C_2  and  C_11 
DOCKED: REMARK    3  A    between atoms: C_19  and  C_20 
DOCKED: REMARK    4  A    between atoms: C_20  and  C_21 
DOCKED: REMARK    5  A    between atoms: C_21  and  N_22 
DOCKED: USER                              x       y       z     vdW  Elec       q    Type
DOCKED: USER                           _______ _______ _______ _____ _____    ______ ____
DOCKED: ROOT
DOCKED: ATOM      1  O   UNL     1     -57.630 -36.294   7.610 -0.07 -0.00    -0.346 OA 
DOCKED: ATOM      2  C   UNL     1     -58.602 -37.345   7.914 -0.15 +0.00    +0.130 C  
DOCKED: ATOM      3  C   UNL     1     -59.058 -37.815   6.562 -0.28 +0.00    +0.004 A  
DOCKED: ATOM      4  C   UNL     1     -58.330 -37.168   5.573 -0.35 +0.00    +0.006 A  
DOCKED: ATOM      5  C   UNL     1     -57.348 -36.249   6.191 -0.06 +0.00    +0.169 C  
DOCKED: ATOM      6  C   UNL     1     -60.031 -38.748   6.235 -0.30 -0.00    -0.001 A  
DOCKED: ATOM      7  C   UNL     1     -58.550 -37.427   4.231 -0.09 +0.00    +0.008 A  
DOCKED: ATOM      8  C   UNL     1     -60.268 -39.017   4.886 -0.40 +0.00    +0.010 A  
DOCKED: ATOM      9  C   UNL     1     -59.531 -38.360   3.889 -0.39 +0.00    +0.068 A  
DOCKED: ATOM     10  N   UNL     1     -59.992 -38.886   1.395 -3.12 -0.00    -0.191 NA 
DOCKED: ATOM     11  C   UNL     1     -59.786 -38.649   2.514 -0.27 +0.00    +0.101 C  
DOCKED: ENDROOT
DOCKED: BRANCH   2  12
DOCKED: ATOM     12  C   UNL     1     -57.901 -38.434   8.715 -0.24 +0.00    +0.038 C  
DOCKED: BRANCH  12  13
DOCKED: ATOM     13  C   UNL     1     -56.415 -38.128   8.890 -0.16 +0.00    +0.038 C  
DOCKED: BRANCH  13  14
DOCKED: ATOM     14  C   UNL     1     -56.204 -36.960   9.852 -0.07 +0.00    +0.251 C  
DOCKED: BRANCH  14  15
DOCKED: ATOM     15  N   UNL     1     -54.826 -36.486   9.780 -0.07 +0.00    +0.141 N  
DOCKED: ATOM     16  C   UNL     1     -53.980 -37.216  10.725 -0.05 +0.00    +0.285 C  
DOCKED: ATOM     17  C   UNL     1     -54.304 -36.624   8.419 -0.10 +0.00    +0.285 C  
DOCKED: ENDBRANCH  14  15
DOCKED: ENDBRANCH  13  14
DOCKED: ENDBRANCH  12  13
DOCKED: ENDBRANCH   2  12
DOCKED: BRANCH   2  18
DOCKED: ATOM     18  C   UNL     1     -59.695 -36.711   8.708 -0.09 +0.00    +0.006 A  
DOCKED: ATOM     19  C   UNL     1     -59.419 -35.611   9.519 -0.05 +0.00    +0.001 A  
DOCKED: ATOM     20  C   UNL     1     -60.442 -35.020  10.262 -0.02 +0.00    +0.029 A  
DOCKED: ATOM     21  C   UNL     1     -61.739 -35.528  10.191 -0.01 +0.00    +0.140 A  
DOCKED: ATOM     22  C   UNL     1     -62.014 -36.628   9.379 -0.06 +0.00    +0.029 A  
DOCKED: ATOM     23  F   UNL     1     -62.720 -34.959  10.903 +0.01 -0.00    -0.204 F  
DOCKED: ATOM     24  C   UNL     1     -60.991 -37.221   8.637 -0.10 +0.00    +0.001 A  
DOCKED: ENDBRANCH   2  18
DOCKED: TORSDOF 5
DOCKED: TER
DOCKED: ENDMDL
________________________________________________________________________________


    FINAL DOCKED STATE:
    ________________________


Run:   355 / 512
Time taken for this run:   0.002s

DOCKED: MODEL        355
DOCKED: USER    Run = 355
DOCKED: USER
DOCKED: USER    Estimated Free Energy of Binding    =  -3.76 kcal/mol  [=(1)+(2)+(3)-(4)]
DOCKED: USER
DOCKED: USER    (1) Final Intermolecular Energy     =  -5.25 kcal/mol
DOCKED: USER        vdW + Hbond + desolv Energy     =  -5.25 kcal/mol
DOCKED: USER        Electrostatic Energy            =  +0.00 kcal/mol
DOCKED: USER        Moving Ligand-Fixed Receptor    =  -5.25 kcal/mol
DOCKED: USER        Moving Ligand-Moving Receptor   =  +0.00 kcal/mol
DOCKED: USER    (2) Final Total Internal Energy     =  -1.31 kcal/mol
DOCKED: USER    (3) Torsional Free Energy           =  +1.49 kcal/mol
DOCKED: USER    (4) Unbound System's Energy         =  -1.31 kcal/mol
DOCKED: USER
DOCKED: USER
DOCKED: REMARK  5 active torsions:
DOCKED: REMARK  status: ('A' for Active; 'I' for Inactive)
DOCKED: REMARK    1  A    between atoms: C_2  and  C_19 
DOCKED: REMARK    2  A    between atoms: C_2  and  C_11 
DOCKED: REMARK    3  A    between atoms: C_19  and  C_20 
DOCKED: REMARK    4  A    between atoms: C_20  and  C_21 
DOCKED: REMARK    5  A    between atoms: C_21  and  N_22 
DOCKED: USER                              x       y       z     vdW  Elec       q    Type
DOCKED: USER                           _______ _______ _______ _____ _____    ______ ____
DOCKED: ROOT
DOCKED: ATOM      1  O   UNL     1     -53.837 -29.715   0.098 -0.06 -0.00    -0.346 OA 
DOCKED: ATOM      2  C   UNL     1     -52.747 -29.195  -0.729 -0.11 +0.00    +0.130 C  
DOCKED: ATOM      3  C   UNL     1     -53.451 -28.563  -1.895 -0.18 +0.00    +0.004 A  
DOCKED: ATOM      4  C   UNL     1     -54.824 -28.618  -1.698 -0.24 +0.00    +0.006 A  
DOCKED: ATOM      5  C   UNL     1     -55.119 -29.269  -0.402 -0.19 +0.00    +0.169 C  
DOCKED: ATOM      6  C   UNL     1     -52.919 -27.976  -3.034 -0.14 -0.00    -0.001 A  
DOCKED: ATOM      7  C   UNL     1     -55.707 -28.096  -2.627 -0.37 +0.00    +0.008 A  
DOCKED: ATOM      8  C   UNL     1     -53.797 -27.448  -3.982 -0.24 +0.00    +0.010 A  
DOCKED: ATOM      9  C   UNL     1     -55.184 -27.508  -3.780 -0.35 +0.00    +0.068 A  
DOCKED: ATOM     10  N   UNL     1     -56.785 -26.515  -5.558 -2.55 -0.00    -0.191 NA 
DOCKED: ATOM     11  C   UNL     1     -56.067 -26.961  -4.761 -0.41 +0.00    +0.101 C  
DOCKED: ENDROOT
DOCKED: BRANCH   2  12
DOCKED: ATOM     12  C   UNL     1     -51.950 -28.193   0.097 -0.14 +0.00    +0.038 C  
DOCKED: BRANCH  12  13
DOCKED: ATOM     13  C   UNL     1     -51.359 -28.845   1.345 -0.09 +0.00    +0.038 C  
DOCKED: BRANCH  13  14
DOCKED: ATOM     14  C   UNL     1     -49.946 -28.332   1.616 -0.04 +0.00    +0.251 C  
DOCKED: BRANCH  14  15
DOCKED: ATOM     15  N   UNL     1     -48.987 -29.429   1.547 -0.01 +0.00    +0.141 N  
DOCKED: ATOM     16  C   UNL     1     -49.593 -30.675   2.017 -0.00 +0.00    +0.285 C  
DOCKED: ATOM     17  C   UNL     1     -48.486 -29.591   0.182 -0.00 +0.00    +0.285 C  
DOCKED: ENDBRANCH  14  15
DOCKED: ENDBRANCH  13  14
DOCKED: ENDBRANCH  12  13
DOCKED: ENDBRANCH   2  12
DOCKED: BRANCH   2  18
DOCKED: ATOM     18  C   UNL     1     -51.903 -30.361  -1.122 -0.04 +0.00    +0.006 A  
DOCKED: ATOM     19  C   UNL     1     -52.197 -31.631  -0.628 -0.04 +0.00    +0.001 A  
DOCKED: ATOM     20  C   UNL     1     -51.407 -32.721  -0.996 -0.03 +0.00    +0.029 A  
DOCKED: ATOM     21  C   UNL     1     -50.326 -32.539  -1.857 -0.01 +0.00    +0.140 A  
DOCKED: ATOM     22  C   UNL     1     -50.033 -31.268  -2.351 -0.00 +0.00    +0.029 A  
DOCKED: ATOM     23  F   UNL     1     -49.568 -33.586  -2.212 +0.00 -0.00    -0.204 F  
DOCKED: ATOM     24  C   UNL     1     -50.822 -30.178  -1.983 -0.01 +0.00    +0.001 A  
DOCKED: ENDBRANCH   2  18
DOCKED: TORSDOF 5
DOCKED: TER
DOCKED: ENDMDL
________________________________________________________________________________


    FINAL DOCKED STATE:
    ________________________


Run:   356 / 512
Time taken for this run:   0.002s

DOCKED: MODEL        356
DOCKED: USER    Run = 356
DOCKED: USER
DOCKED: USER    Estimated Free Energy of Binding    =  -4.12 kcal/mol  [=(1)+(2)+(3)-(4)]
DOCKED: USER
DOCKED: USER    (1) Final Intermolecular Energy     =  -5.61 kcal/mol
DOCKED: USER        vdW + Hbond + desolv Energy     =  -5.61 kcal/mol
DOCKED: USER        Electrostatic Energy            =  +0.00 kcal/mol
DOCKED: USER        Moving Ligand-Fixed Receptor    =  -5.61 kcal/mol
DOCKED: USER        Moving Ligand-Moving Receptor   =  +0.00 kcal/mol
DOCKED: USER    (2) Final Total Internal Energy     =  -1.10 kcal/mol
DOCKED: USER    (3) Torsional Free Energy           =  +1.49 kcal/mol
DOCKED: USER    (4) Unbound System's Energy         =  -1.10 kcal/mol
DOCKED: USER
DOCKED: USER
DOCKED: REMARK  5 active torsions:
DOCKED: REMARK  status: ('A' for Active; 'I' for Inactive)
DOCKED: REMARK    1  A    between atoms: C_2  and  C_19 
DOCKED: REMARK    2  A    between atoms: C_2  and  C_11 
DOCKED: REMARK    3  A    between atoms: C_19  and  C_20 
DOCKED: REMARK    4  A    between atoms: C_20  and  C_21 
DOCKED: REMARK    5  A    between atoms: C_21  and  N_22 
DOCKED: USER                              x       y       z     vdW  Elec       q    Type
DOCKED: USER                           _______ _______ _______ _____ _____    ______ ____
DOCKED: ROOT
DOCKED: ATOM      1  O   UNL     1     -51.328 -34.053   2.902 -0.01 -0.00    -0.346 OA 
DOCKED: ATOM      2  C   UNL     1     -52.383 -34.519   2.002 -0.12 +0.00    +0.130 C  
DOCKED: ATOM      3  C   UNL     1     -52.422 -36.002   2.229 -0.23 +0.00    +0.004 A  
DOCKED: ATOM      4  C   UNL     1     -51.544 -36.341   3.249 -0.18 +0.00    +0.006 A  
DOCKED: ATOM      5  C   UNL     1     -50.883 -35.123   3.769 -0.07 +0.00    +0.169 C  
DOCKED: ATOM      6  C   UNL     1     -53.181 -36.972   1.592 -0.33 -0.00    -0.001 A  
DOCKED: ATOM      7  C   UNL     1     -51.392 -37.654   3.662 -0.22 +0.00    +0.008 A  
DOCKED: ATOM      8  C   UNL     1     -53.036 -38.301   1.994 -0.07 +0.00    +0.010 A  
DOCKED: ATOM      9  C   UNL     1     -52.146 -38.640   3.024 -0.24 +0.00    +0.068 A  
DOCKED: ATOM     10  N   UNL     1     -51.905 -41.115   3.750 -2.21 -0.00    -0.191 NA 
DOCKED: ATOM     11  C   UNL     1     -52.013 -40.005   3.424 -0.38 +0.00    +0.101 C  
DOCKED: ENDROOT
DOCKED: BRANCH   2  12
DOCKED: ATOM     12  C   UNL     1     -53.685 -33.826   2.385 -0.19 +0.00    +0.038 C  
DOCKED: BRANCH  12  13
DOCKED: ATOM     13  C   UNL     1     -54.594 -33.636   1.172 -0.27 +0.00    +0.038 C  
DOCKED: BRANCH  13  14
DOCKED: ATOM     14  C   UNL     1     -55.317 -32.292   1.232 -0.15 +0.00    +0.251 C  
DOCKED: BRANCH  14  15
DOCKED: ATOM     15  N   UNL     1     -54.605 -31.297   0.438 -0.13 +0.00    +0.141 N  
DOCKED: ATOM     16  C   UNL     1     -54.442 -31.759  -0.942 -0.15 +0.00    +0.285 C  
DOCKED: ATOM     17  C   UNL     1     -55.310 -30.015   0.464 -0.17 +0.00    +0.285 C  
DOCKED: ENDBRANCH  14  15
DOCKED: ENDBRANCH  13  14
DOCKED: ENDBRANCH  12  13
DOCKED: ENDBRANCH   2  12
DOCKED: BRANCH   2  18
DOCKED: ATOM     18  C   UNL     1     -51.966 -34.153   0.616 -0.09 +0.00    +0.006 A  
DOCKED: ATOM     19  C   UNL     1     -51.350 -32.926   0.375 -0.03 +0.00    +0.001 A  
DOCKED: ATOM     20  C   UNL     1     -50.961 -32.585  -0.921 -0.02 +0.00    +0.029 A  
DOCKED: ATOM     21  C   UNL     1     -51.189 -33.471  -1.973 -0.04 +0.00    +0.140 A  
DOCKED: ATOM     22  C   UNL     1     -51.805 -34.699  -1.731 -0.16 +0.00    +0.029 A  
DOCKED: ATOM     23  F   UNL     1     -50.814 -33.145  -3.217 +0.00 -0.00    -0.204 F  
DOCKED: ATOM     24  C   UNL     1     -52.195 -35.040  -0.435 -0.16 +0.00    +0.001 A  
DOCKED: ENDBRANCH   2  18
DOCKED: TORSDOF 5
DOCKED: TER
DOCKED: ENDMDL
________________________________________________________________________________


    FINAL DOCKED STATE:
    ________________________


Run:   357 / 512
Time taken for this run:   0.002s

DOCKED: MODEL        357
DOCKED: USER    Run = 357
DOCKED: USER
DOCKED: USER    Estimated Free Energy of Binding    =  -5.98 kcal/mol  [=(1)+(2)+(3)-(4)]
DOCKED: USER
DOCKED: USER    (1) Final Intermolecular Energy     =  -7.47 kcal/mol
DOCKED: USER        vdW + Hbond + desolv Energy     =  -7.47 kcal/mol
DOCKED: USER        Electrostatic Energy            =  +0.00 kcal/mol
DOCKED: USER        Moving Ligand-Fixed Receptor    =  -7.47 kcal/mol
DOCKED: USER        Moving Ligand-Moving Receptor   =  +0.00 kcal/mol
DOCKED: USER    (2) Final Total Internal Energy     =  -1.42 kcal/mol
DOCKED: USER    (3) Torsional Free Energy           =  +1.49 kcal/mol
DOCKED: USER    (4) Unbound System's Energy         =  -1.42 kcal/mol
DOCKED: USER
DOCKED: USER
DOCKED: REMARK  5 active torsions:
DOCKED: REMARK  status: ('A' for Active; 'I' for Inactive)
DOCKED: REMARK    1  A    between atoms: C_2  and  C_19 
DOCKED: REMARK    2  A    between atoms: C_2  and  C_11 
DOCKED: REMARK    3  A    between atoms: C_19  and  C_20 
DOCKED: REMARK    4  A    between atoms: C_20  and  C_21 
DOCKED: REMARK    5  A    between atoms: C_21  and  N_22 
DOCKED: USER                              x       y       z     vdW  Elec       q    Type
DOCKED: USER                           _______ _______ _______ _____ _____    ______ ____
DOCKED: ROOT
DOCKED: ATOM      1  O   UNL     1     -57.860 -36.456   7.555 -0.06 -0.00    -0.346 OA 
DOCKED: ATOM      2  C   UNL     1     -57.663 -37.906   7.568 -0.25 +0.00    +0.130 C  
DOCKED: ATOM      3  C   UNL     1     -58.179 -38.351   6.230 -0.37 +0.00    +0.004 A  
DOCKED: ATOM      4  C   UNL     1     -58.537 -37.243   5.476 -0.35 +0.00    +0.006 A  
DOCKED: ATOM      5  C   UNL     1     -58.275 -36.006   6.245 -0.24 +0.00    +0.169 C  
DOCKED: ATOM      6  C   UNL     1     -58.310 -39.633   5.718 -0.28 -0.00    -0.001 A  
DOCKED: ATOM      7  C   UNL     1     -59.040 -37.376   4.193 -0.05 +0.00    +0.008 A  
DOCKED: ATOM      8  C   UNL     1     -58.820 -39.785   4.427 -0.44 +0.00    +0.010 A  
DOCKED: ATOM      9  C   UNL     1     -59.182 -38.662   3.668 -0.46 +0.00    +0.068 A  
DOCKED: ATOM     10  N   UNL     1     -60.120 -38.978   1.274 -3.19 -0.00    -0.191 NA 
DOCKED: ATOM     11  C   UNL     1     -59.700 -38.837   2.348 -0.25 +0.00    +0.101 C  
DOCKED: ENDROOT
DOCKED: BRANCH   2  12
DOCKED: ATOM     12  C   UNL     1     -56.177 -38.189   7.755 -0.24 +0.00    +0.038 C  
DOCKED: BRANCH  12  13
DOCKED: ATOM     13  C   UNL     1     -55.387 -36.900   7.974 -0.14 +0.00    +0.038 C  
DOCKED: BRANCH  13  14
DOCKED: ATOM     14  C   UNL     1     -55.555 -36.389   9.403 -0.08 +0.00    +0.251 C  
DOCKED: BRANCH  14  15
DOCKED: ATOM     15  N   UNL     1     -56.097 -35.035   9.398 -0.03 +0.00    +0.141 N  
DOCKED: ATOM     16  C   UNL     1     -57.269 -34.945  10.271 -0.01 +0.00    +0.285 C  
DOCKED: ATOM     17  C   UNL     1     -55.079 -34.070   9.814 -0.01 +0.00    +0.285 C  
DOCKED: ENDBRANCH  14  15
DOCKED: ENDBRANCH  13  14
DOCKED: ENDBRANCH  12  13
DOCKED: ENDBRANCH   2  12
DOCKED: BRANCH   2  18
DOCKED: ATOM     18  C   UNL     1     -58.461 -38.445   8.708 -0.20 +0.00    +0.006 A  
DOCKED: ATOM     19  C   UNL     1     -57.837 -38.733   9.921 -0.20 +0.00    +0.001 A  
DOCKED: ATOM     20  C   UNL     1     -58.584 -39.237  10.986 -0.18 +0.00    +0.029 A  
DOCKED: ATOM     21  C   UNL     1     -59.954 -39.452  10.837 -0.04 +0.00    +0.140 A  
DOCKED: ATOM     22  C   UNL     1     -60.577 -39.163   9.623 -0.16 +0.00    +0.029 A  
DOCKED: ATOM     23  F   UNL     1     -60.671 -39.934  11.860 -0.03 -0.00    -0.204 F  
DOCKED: ATOM     24  C   UNL     1     -59.830 -38.660   8.557 -0.19 +0.00    +0.001 A  
DOCKED: ENDBRANCH   2  18
DOCKED: TORSDOF 5
DOCKED: TER
DOCKED: ENDMDL
________________________________________________________________________________


    FINAL DOCKED STATE:
    ________________________


Run:   358 / 512
Time taken for this run:   0.002s

DOCKED: MODEL        358
DOCKED: USER    Run = 358
DOCKED: USER
DOCKED: USER    Estimated Free Energy of Binding    =  -4.40 kcal/mol  [=(1)+(2)+(3)-(4)]
DOCKED: USER
DOCKED: USER    (1) Final Intermolecular Energy     =  -5.89 kcal/mol
DOCKED: USER        vdW + Hbond + desolv Energy     =  -5.89 kcal/mol
DOCKED: USER        Electrostatic Energy            =  +0.00 kcal/mol
DOCKED: USER        Moving Ligand-Fixed Receptor    =  -5.89 kcal/mol
DOCKED: USER        Moving Ligand-Moving Receptor   =  +0.00 kcal/mol
DOCKED: USER    (2) Final Total Internal Energy     =  -1.32 kcal/mol
DOCKED: USER    (3) Torsional Free Energy           =  +1.49 kcal/mol
DOCKED: USER    (4) Unbound System's Energy         =  -1.32 kcal/mol
DOCKED: USER
DOCKED: USER
DOCKED: REMARK  5 active torsions:
DOCKED: REMARK  status: ('A' for Active; 'I' for Inactive)
DOCKED: REMARK    1  A    between atoms: C_2  and  C_19 
DOCKED: REMARK    2  A    between atoms: C_2  and  C_11 
DOCKED: REMARK    3  A    between atoms: C_19  and  C_20 
DOCKED: REMARK    4  A    between atoms: C_20  and  C_21 
DOCKED: REMARK    5  A    between atoms: C_21  and  N_22 
DOCKED: USER                              x       y       z     vdW  Elec       q    Type
DOCKED: USER                           _______ _______ _______ _____ _____    ______ ____
DOCKED: ROOT
DOCKED: ATOM      1  O   UNL     1     -55.020 -36.344   8.521 -0.09 -0.00    -0.346 OA 
DOCKED: ATOM      2  C   UNL     1     -56.086 -35.459   8.048 -0.14 +0.00    +0.130 C  
DOCKED: ATOM      3  C   UNL     1     -57.023 -36.380   7.322 -0.23 +0.00    +0.004 A  
DOCKED: ATOM      4  C   UNL     1     -56.591 -37.691   7.462 -0.25 +0.00    +0.006 A  
DOCKED: ATOM      5  C   UNL     1     -55.363 -37.730   8.288 -0.12 +0.00    +0.169 C  
DOCKED: ATOM      6  C   UNL     1     -58.172 -36.083   6.605 -0.28 -0.00    -0.001 A  
DOCKED: ATOM      7  C   UNL     1     -57.285 -38.744   6.890 -0.38 +0.00    +0.008 A  
DOCKED: ATOM      8  C   UNL     1     -58.881 -37.133   6.019 -0.32 +0.00    +0.010 A  
DOCKED: ATOM      9  C   UNL     1     -58.440 -38.456   6.161 -0.32 +0.00    +0.068 A  
DOCKED: ATOM     10  N   UNL     1     -59.782 -40.382   5.064 -2.41 -0.00    -0.191 NA 
DOCKED: ATOM     11  C   UNL     1     -59.179 -39.519   5.556 -0.32 +0.00    +0.101 C  
DOCKED: ENDROOT
DOCKED: BRANCH   2  12
DOCKED: ATOM     12  C   UNL     1     -56.729 -34.790   9.257 -0.05 +0.00    +0.038 C  
DOCKED: BRANCH  12  13
DOCKED: ATOM     13  C   UNL     1     -56.897 -35.773  10.414 -0.04 +0.00    +0.038 C  
DOCKED: BRANCH  13  14
DOCKED: ATOM     14  C   UNL     1     -58.192 -36.570  10.274 -0.02 +0.00    +0.251 C  
DOCKED: BRANCH  14  15
DOCKED: ATOM     15  N   UNL     1     -58.160 -37.746  11.136 -0.05 +0.00    +0.141 N  
DOCKED: ATOM     16  C   UNL     1     -58.404 -38.962  10.359 -0.11 +0.00    +0.285 C  
DOCKED: ATOM     17  C   UNL     1     -56.877 -37.838  11.834 -0.05 +0.00    +0.285 C  
DOCKED: ENDBRANCH  14  15
DOCKED: ENDBRANCH  13  14
DOCKED: ENDBRANCH  12  13
DOCKED: ENDBRANCH   2  12
DOCKED: BRANCH   2  18
DOCKED: ATOM     18  C   UNL     1     -55.449 -34.451   7.150 -0.14 +0.00    +0.006 A  
DOCKED: ATOM     19  C   UNL     1     -54.065 -34.448   6.978 -0.09 +0.00    +0.001 A  
DOCKED: ATOM     20  C   UNL     1     -53.471 -33.505   6.138 -0.10 +0.00    +0.029 A  
DOCKED: ATOM     21  C   UNL     1     -54.261 -32.568   5.472 -0.08 +0.00    +0.140 A  
DOCKED: ATOM     22  C   UNL     1     -55.645 -32.573   5.645 -0.12 +0.00    +0.029 A  
DOCKED: ATOM     23  F   UNL     1     -53.690 -31.664   4.665 -0.00 -0.00    -0.204 F  
DOCKED: ATOM     24  C   UNL     1     -56.240 -33.515   6.485 -0.16 +0.00    +0.001 A  
DOCKED: ENDBRANCH   2  18
DOCKED: TORSDOF 5
DOCKED: TER
DOCKED: ENDMDL
________________________________________________________________________________


    FINAL DOCKED STATE:
    ________________________


Run:   359 / 512
Time taken for this run:   0.002s

DOCKED: MODEL        359
DOCKED: USER    Run = 359
DOCKED: USER
DOCKED: USER    Estimated Free Energy of Binding    =  -4.14 kcal/mol  [=(1)+(2)+(3)-(4)]
DOCKED: USER
DOCKED: USER    (1) Final Intermolecular Energy     =  -5.63 kcal/mol
DOCKED: USER        vdW + Hbond + desolv Energy     =  -5.63 kcal/mol
DOCKED: USER        Electrostatic Energy            =  +0.00 kcal/mol
DOCKED: USER        Moving Ligand-Fixed Receptor    =  -5.63 kcal/mol
DOCKED: USER        Moving Ligand-Moving Receptor   =  +0.00 kcal/mol
DOCKED: USER    (2) Final Total Internal Energy     =  -1.40 kcal/mol
DOCKED: USER    (3) Torsional Free Energy           =  +1.49 kcal/mol
DOCKED: USER    (4) Unbound System's Energy         =  -1.40 kcal/mol
DOCKED: USER
DOCKED: USER
DOCKED: REMARK  5 active torsions:
DOCKED: REMARK  status: ('A' for Active; 'I' for Inactive)
DOCKED: REMARK    1  A    between atoms: C_2  and  C_19 
DOCKED: REMARK    2  A    between atoms: C_2  and  C_11 
DOCKED: REMARK    3  A    between atoms: C_19  and  C_20 
DOCKED: REMARK    4  A    between atoms: C_20  and  C_21 
DOCKED: REMARK    5  A    between atoms: C_21  and  N_22 
DOCKED: USER                              x       y       z     vdW  Elec       q    Type
DOCKED: USER                           _______ _______ _______ _____ _____    ______ ____
DOCKED: ROOT
DOCKED: ATOM      1  O   UNL     1     -55.213 -35.338   8.109 -0.07 -0.00    -0.346 OA 
DOCKED: ATOM      2  C   UNL     1     -56.427 -34.612   7.733 -0.13 +0.00    +0.130 C  
DOCKED: ATOM      3  C   UNL     1     -57.317 -35.675   7.156 -0.22 +0.00    +0.004 A  
DOCKED: ATOM      4  C   UNL     1     -56.712 -36.916   7.292 -0.21 +0.00    +0.006 A  
DOCKED: ATOM      5  C   UNL     1     -55.404 -36.765   7.969 -0.09 +0.00    +0.169 C  
DOCKED: ATOM      6  C   UNL     1     -58.568 -35.554   6.569 -0.26 -0.00    -0.001 A  
DOCKED: ATOM      7  C   UNL     1     -57.328 -38.071   6.845 -0.33 +0.00    +0.008 A  
DOCKED: ATOM      8  C   UNL     1     -59.201 -36.710   6.109 -0.28 +0.00    +0.010 A  
DOCKED: ATOM      9  C   UNL     1     -58.585 -37.962   6.247 -0.30 +0.00    +0.068 A  
DOCKED: ATOM     10  N   UNL     1     -59.790 -40.088   5.387 -2.55 -0.00    -0.191 NA 
DOCKED: ATOM     11  C   UNL     1     -59.249 -39.135   5.772 -0.37 +0.00    +0.101 C  
DOCKED: ENDROOT
DOCKED: BRANCH   2  12
DOCKED: ATOM     12  C   UNL     1     -57.009 -33.964   8.983 -0.05 +0.00    +0.038 C  
DOCKED: BRANCH  12  13
DOCKED: ATOM     13  C   UNL     1     -57.895 -34.940   9.755 -0.04 +0.00    +0.038 C  
DOCKED: BRANCH  13  14
DOCKED: ATOM     14  C   UNL     1     -57.148 -35.536  10.946 -0.01 +0.00    +0.251 C  
DOCKED: BRANCH  14  15
DOCKED: ATOM     15  N   UNL     1     -57.704 -36.838  11.293 -0.03 +0.00    +0.141 N  
DOCKED: ATOM     16  C   UNL     1     -59.104 -36.931  10.874 -0.01 +0.00    +0.285 C  
DOCKED: ATOM     17  C   UNL     1     -56.920 -37.913  10.683 -0.07 +0.00    +0.285 C  
DOCKED: ENDBRANCH  14  15
DOCKED: ENDBRANCH  13  14
DOCKED: ENDBRANCH  12  13
DOCKED: ENDBRANCH   2  12
DOCKED: BRANCH   2  18
DOCKED: ATOM     18  C   UNL     1     -56.026 -33.582   6.730 -0.15 +0.00    +0.006 A  
DOCKED: ATOM     19  C   UNL     1     -55.231 -33.941   5.642 -0.09 +0.00    +0.001 A  
DOCKED: ATOM     20  C   UNL     1     -54.856 -32.977   4.705 -0.14 +0.00    +0.029 A  
DOCKED: ATOM     21  C   UNL     1     -55.278 -31.657   4.857 -0.07 +0.00    +0.140 A  
DOCKED: ATOM     22  C   UNL     1     -56.073 -31.299   5.944 -0.08 +0.00    +0.029 A  
DOCKED: ATOM     23  F   UNL     1     -54.919 -30.732   3.956 -0.01 -0.00    -0.204 F  
DOCKED: ATOM     24  C   UNL     1     -56.448 -32.262   6.883 -0.09 +0.00    +0.001 A  
DOCKED: ENDBRANCH   2  18
DOCKED: TORSDOF 5
DOCKED: TER
DOCKED: ENDMDL
________________________________________________________________________________


    FINAL DOCKED STATE:
    ________________________


Run:   360 / 512
Time taken for this run:   0.002s

DOCKED: MODEL        360
DOCKED: USER    Run = 360
DOCKED: USER
DOCKED: USER    Estimated Free Energy of Binding    =  -4.68 kcal/mol  [=(1)+(2)+(3)-(4)]
DOCKED: USER
DOCKED: USER    (1) Final Intermolecular Energy     =  -6.17 kcal/mol
DOCKED: USER        vdW + Hbond + desolv Energy     =  -6.17 kcal/mol
DOCKED: USER        Electrostatic Energy            =  +0.00 kcal/mol
DOCKED: USER        Moving Ligand-Fixed Receptor    =  -6.17 kcal/mol
DOCKED: USER        Moving Ligand-Moving Receptor   =  +0.00 kcal/mol
DOCKED: USER    (2) Final Total Internal Energy     =  -1.04 kcal/mol
DOCKED: USER    (3) Torsional Free Energy           =  +1.49 kcal/mol
DOCKED: USER    (4) Unbound System's Energy         =  -1.04 kcal/mol
DOCKED: USER
DOCKED: USER
DOCKED: REMARK  5 active torsions:
DOCKED: REMARK  status: ('A' for Active; 'I' for Inactive)
DOCKED: REMARK    1  A    between atoms: C_2  and  C_19 
DOCKED: REMARK    2  A    between atoms: C_2  and  C_11 
DOCKED: REMARK    3  A    between atoms: C_19  and  C_20 
DOCKED: REMARK    4  A    between atoms: C_20  and  C_21 
DOCKED: REMARK    5  A    between atoms: C_21  and  N_22 
DOCKED: USER                              x       y       z     vdW  Elec       q    Type
DOCKED: USER                           _______ _______ _______ _____ _____    ______ ____
DOCKED: ROOT
DOCKED: ATOM      1  O   UNL     1     -58.527 -36.137   9.203 -0.00 -0.00    -0.346 OA 
DOCKED: ATOM      2  C   UNL     1     -57.658 -37.310   9.109 -0.11 +0.00    +0.130 C  
DOCKED: ATOM      3  C   UNL     1     -57.921 -37.843   7.730 -0.24 +0.00    +0.004 A  
DOCKED: ATOM      4  C   UNL     1     -58.779 -36.987   7.055 -0.23 +0.00    +0.006 A  
DOCKED: ATOM      5  C   UNL     1     -59.129 -35.840   7.922 -0.11 +0.00    +0.169 C  
DOCKED: ATOM      6  C   UNL     1     -57.430 -38.987   7.118 -0.39 -0.00    -0.001 A  
DOCKED: ATOM      7  C   UNL     1     -59.179 -37.245   5.755 -0.31 +0.00    +0.008 A  
DOCKED: ATOM      8  C   UNL     1     -57.827 -39.263   5.808 -0.42 +0.00    +0.010 A  
DOCKED: ATOM      9  C   UNL     1     -58.696 -38.396   5.130 -0.38 +0.00    +0.068 A  
DOCKED: ATOM     10  N   UNL     1     -59.409 -38.936   2.699 -1.91 -0.00    -0.191 NA 
DOCKED: ATOM     11  C   UNL     1     -59.090 -38.694   3.789 -0.52 +0.00    +0.101 C  
DOCKED: ENDROOT
DOCKED: BRANCH   2  12
DOCKED: ATOM     12  C   UNL     1     -56.215 -36.860   9.306 -0.15 +0.00    +0.038 C  
DOCKED: BRANCH  12  13
DOCKED: ATOM     13  C   UNL     1     -55.561 -36.490   7.977 -0.17 +0.00    +0.038 C  
DOCKED: BRANCH  13  14
DOCKED: ATOM     14  C   UNL     1     -54.044 -36.384   8.122 -0.03 +0.00    +0.251 C  
DOCKED: BRANCH  14  15
DOCKED: ATOM     15  N   UNL     1     -53.616 -34.998   7.974 -0.08 +0.00    +0.141 N  
DOCKED: ATOM     16  C   UNL     1     -52.446 -34.909   7.098 -0.07 +0.00    +0.285 C  
DOCKED: ATOM     17  C   UNL     1     -54.706 -34.174   7.449 -0.08 +0.00    +0.285 C  
DOCKED: ENDBRANCH  14  15
DOCKED: ENDBRANCH  13  14
DOCKED: ENDBRANCH  12  13
DOCKED: ENDBRANCH   2  12
DOCKED: BRANCH   2  18
DOCKED: ATOM     18  C   UNL     1     -58.080 -38.253  10.186 -0.15 +0.00    +0.006 A  
DOCKED: ATOM     19  C   UNL     1     -59.365 -38.169  10.721 -0.11 +0.00    +0.001 A  
DOCKED: ATOM     20  C   UNL     1     -59.758 -39.051  11.729 -0.13 +0.00    +0.029 A  
DOCKED: ATOM     21  C   UNL     1     -58.867 -40.014  12.199 -0.10 +0.00    +0.140 A  
DOCKED: ATOM     22  C   UNL     1     -57.582 -40.097  11.664 -0.24 +0.00    +0.029 A  
DOCKED: ATOM     23  F   UNL     1     -59.245 -40.862  13.165 -0.05 -0.00    -0.204 F  
DOCKED: ATOM     24  C   UNL     1     -57.187 -39.216  10.656 -0.19 +0.00    +0.001 A  
DOCKED: ENDBRANCH   2  18
DOCKED: TORSDOF 5
DOCKED: TER
DOCKED: ENDMDL
________________________________________________________________________________


    FINAL DOCKED STATE:
    ________________________


Run:   361 / 512
Time taken for this run:   0.002s

DOCKED: MODEL        361
DOCKED: USER    Run = 361
DOCKED: USER
DOCKED: USER    Estimated Free Energy of Binding    =  -4.50 kcal/mol  [=(1)+(2)+(3)-(4)]
DOCKED: USER
DOCKED: USER    (1) Final Intermolecular Energy     =  -5.99 kcal/mol
DOCKED: USER        vdW + Hbond + desolv Energy     =  -5.99 kcal/mol
DOCKED: USER        Electrostatic Energy            =  +0.00 kcal/mol
DOCKED: USER        Moving Ligand-Fixed Receptor    =  -5.99 kcal/mol
DOCKED: USER        Moving Ligand-Moving Receptor   =  +0.00 kcal/mol
DOCKED: USER    (2) Final Total Internal Energy     =  -1.08 kcal/mol
DOCKED: USER    (3) Torsional Free Energy           =  +1.49 kcal/mol
DOCKED: USER    (4) Unbound System's Energy         =  -1.08 kcal/mol
DOCKED: USER
DOCKED: USER
DOCKED: REMARK  5 active torsions:
DOCKED: REMARK  status: ('A' for Active; 'I' for Inactive)
DOCKED: REMARK    1  A    between atoms: C_2  and  C_19 
DOCKED: REMARK    2  A    between atoms: C_2  and  C_11 
DOCKED: REMARK    3  A    between atoms: C_19  and  C_20 
DOCKED: REMARK    4  A    between atoms: C_20  and  C_21 
DOCKED: REMARK    5  A    between atoms: C_21  and  N_22 
DOCKED: USER                              x       y       z     vdW  Elec       q    Type
DOCKED: USER                           _______ _______ _______ _____ _____    ______ ____
DOCKED: ROOT
DOCKED: ATOM      1  O   UNL     1     -59.020 -36.162   8.238 -0.02 -0.00    -0.346 OA 
DOCKED: ATOM      2  C   UNL     1     -57.939 -37.140   8.113 -0.15 +0.00    +0.130 C  
DOCKED: ATOM      3  C   UNL     1     -58.227 -37.831   6.812 -0.31 +0.00    +0.004 A  
DOCKED: ATOM      4  C   UNL     1     -59.313 -37.227   6.194 -0.29 +0.00    +0.006 A  
DOCKED: ATOM      5  C   UNL     1     -59.803 -36.104   7.024 -0.18 +0.00    +0.169 C  
DOCKED: ATOM      6  C   UNL     1     -57.574 -38.900   6.217 -0.41 -0.00    -0.001 A  
DOCKED: ATOM      7  C   UNL     1     -59.784 -37.671   4.970 -0.16 +0.00    +0.008 A  
DOCKED: ATOM      8  C   UNL     1     -58.040 -39.362   4.985 -0.34 +0.00    +0.010 A  
DOCKED: ATOM      9  C   UNL     1     -59.139 -38.750   4.364 -0.43 +0.00    +0.068 A  
DOCKED: ATOM     10  N   UNL     1     -59.974 -39.629   2.075 -1.88 -0.00    -0.191 NA 
DOCKED: ATOM     11  C   UNL     1     -59.600 -39.235   3.102 -0.47 +0.00    +0.101 C  
DOCKED: ENDROOT
DOCKED: BRANCH   2  12
DOCKED: ATOM     12  C   UNL     1     -56.610 -36.392   8.106 -0.20 +0.00    +0.038 C  
DOCKED: BRANCH  12  13
DOCKED: ATOM     13  C   UNL     1     -56.807 -34.910   7.797 -0.15 +0.00    +0.038 C  
DOCKED: BRANCH  13  14
DOCKED: ATOM     14  C   UNL     1     -56.404 -34.041   8.987 -0.03 +0.00    +0.251 C  
DOCKED: BRANCH  14  15
DOCKED: ATOM     15  N   UNL     1     -56.307 -32.643   8.585 -0.02 +0.00    +0.141 N  
DOCKED: ATOM     16  C   UNL     1     -57.215 -32.362   7.472 -0.05 +0.00    +0.285 C  
DOCKED: ATOM     17  C   UNL     1     -56.602 -31.760   9.715 -0.00 +0.00    +0.285 C  
DOCKED: ENDBRANCH  14  15
DOCKED: ENDBRANCH  13  14
DOCKED: ENDBRANCH  12  13
DOCKED: ENDBRANCH   2  12
DOCKED: BRANCH   2  18
DOCKED: ATOM     18  C   UNL     1     -58.037 -38.052   9.290 -0.16 +0.00    +0.006 A  
DOCKED: ATOM     19  C   UNL     1     -59.276 -38.566   9.672 -0.16 +0.00    +0.001 A  
DOCKED: ATOM     20  C   UNL     1     -59.366 -39.419  10.773 -0.09 +0.00    +0.029 A  
DOCKED: ATOM     21  C   UNL     1     -58.219 -39.756  11.489 -0.13 +0.00    +0.140 A  
DOCKED: ATOM     22  C   UNL     1     -56.980 -39.242  11.107 -0.17 +0.00    +0.029 A  
DOCKED: ATOM     23  F   UNL     1     -58.306 -40.576  12.545 -0.06 -0.00    -0.204 F  
DOCKED: ATOM     24  C   UNL     1     -56.889 -38.389  10.006 -0.13 +0.00    +0.001 A  
DOCKED: ENDBRANCH   2  18
DOCKED: TORSDOF 5
DOCKED: TER
DOCKED: ENDMDL
________________________________________________________________________________


    FINAL DOCKED STATE:
    ________________________


Run:   362 / 512
Time taken for this run:   0.002s

DOCKED: MODEL        362
DOCKED: USER    Run = 362
DOCKED: USER
DOCKED: USER    Estimated Free Energy of Binding    =  -3.99 kcal/mol  [=(1)+(2)+(3)-(4)]
DOCKED: USER
DOCKED: USER    (1) Final Intermolecular Energy     =  -5.48 kcal/mol
DOCKED: USER        vdW + Hbond + desolv Energy     =  -5.48 kcal/mol
DOCKED: USER        Electrostatic Energy            =  +0.00 kcal/mol
DOCKED: USER        Moving Ligand-Fixed Receptor    =  -5.48 kcal/mol
DOCKED: USER        Moving Ligand-Moving Receptor   =  +0.00 kcal/mol
DOCKED: USER    (2) Final Total Internal Energy     =  -1.19 kcal/mol
DOCKED: USER    (3) Torsional Free Energy           =  +1.49 kcal/mol
DOCKED: USER    (4) Unbound System's Energy         =  -1.19 kcal/mol
DOCKED: USER
DOCKED: USER
DOCKED: REMARK  5 active torsions:
DOCKED: REMARK  status: ('A' for Active; 'I' for Inactive)
DOCKED: REMARK    1  A    between atoms: C_2  and  C_19 
DOCKED: REMARK    2  A    between atoms: C_2  and  C_11 
DOCKED: REMARK    3  A    between atoms: C_19  and  C_20 
DOCKED: REMARK    4  A    between atoms: C_20  and  C_21 
DOCKED: REMARK    5  A    between atoms: C_21  and  N_22 
DOCKED: USER                              x       y       z     vdW  Elec       q    Type
DOCKED: USER                           _______ _______ _______ _____ _____    ______ ____
DOCKED: ROOT
DOCKED: ATOM      1  O   UNL     1     -49.430 -38.046  -2.104 -0.01 -0.00    -0.346 OA 
DOCKED: ATOM      2  C   UNL     1     -49.887 -36.921  -1.287 -0.08 +0.00    +0.130 C  
DOCKED: ATOM      3  C   UNL     1     -50.488 -37.576  -0.078 -0.12 +0.00    +0.004 A  
DOCKED: ATOM      4  C   UNL     1     -50.293 -38.948  -0.144 -0.14 +0.00    +0.006 A  
DOCKED: ATOM      5  C   UNL     1     -49.549 -39.290  -1.377 -0.07 +0.00    +0.169 C  
DOCKED: ATOM      6  C   UNL     1     -51.146 -37.002   1.001 -0.15 -0.00    -0.001 A  
DOCKED: ATOM      7  C   UNL     1     -50.748 -39.790   0.856 -0.23 +0.00    +0.008 A  
DOCKED: ATOM      8  C   UNL     1     -51.615 -37.838   2.016 -0.26 +0.00    +0.010 A  
DOCKED: ATOM      9  C   UNL     1     -51.416 -39.225   1.944 -0.28 +0.00    +0.068 A  
DOCKED: ATOM     10  N   UNL     1     -52.295 -40.748   3.847 -2.53 -0.00    -0.191 NA 
DOCKED: ATOM     11  C   UNL     1     -51.901 -40.065   2.993 -0.43 +0.00    +0.101 C  
DOCKED: ENDROOT
DOCKED: BRANCH   2  12
DOCKED: ATOM     12  C   UNL     1     -48.684 -36.047  -0.953 -0.02 +0.00    +0.038 C  
DOCKED: BRANCH  12  13
DOCKED: ATOM     13  C   UNL     1     -47.389 -36.855  -0.961 -0.01 +0.00    +0.038 C  
DOCKED: BRANCH  13  14
DOCKED: ATOM     14  C   UNL     1     -46.474 -36.415  -2.103 -0.00 +0.00    +0.251 C  
DOCKED: BRANCH  14  15
DOCKED: ATOM     15  N   UNL     1     -46.174 -37.542  -2.977 -0.00 +0.00    +0.141 N  
DOCKED: ATOM     16  C   UNL     1     -46.516 -37.225  -4.364 +0.00 +0.00    +0.285 C  
DOCKED: ATOM     17  C   UNL     1     -44.761 -37.913  -2.874 +0.00 +0.00    +0.285 C  
DOCKED: ENDBRANCH  14  15
DOCKED: ENDBRANCH  13  14
DOCKED: ENDBRANCH  12  13
DOCKED: ENDBRANCH   2  12
DOCKED: BRANCH   2  18
DOCKED: ATOM     18  C   UNL     1     -50.889 -36.170  -2.100 -0.12 +0.00    +0.006 A  
DOCKED: ATOM     19  C   UNL     1     -51.576 -35.094  -1.540 -0.15 +0.00    +0.001 A  
DOCKED: ATOM     20  C   UNL     1     -52.512 -34.394  -2.301 -0.20 +0.00    +0.029 A  
DOCKED: ATOM     21  C   UNL     1     -52.759 -34.769  -3.620 -0.21 +0.00    +0.140 A  
DOCKED: ATOM     22  C   UNL     1     -52.071 -35.845  -4.181 -0.19 +0.00    +0.029 A  
DOCKED: ATOM     23  F   UNL     1     -53.657 -34.095  -4.351 -0.14 -0.00    -0.204 F  
DOCKED: ATOM     24  C   UNL     1     -51.135 -36.547  -3.420 -0.14 +0.00    +0.001 A  
DOCKED: ENDBRANCH   2  18
DOCKED: TORSDOF 5
DOCKED: TER
DOCKED: ENDMDL
________________________________________________________________________________


    FINAL DOCKED STATE:
    ________________________


Run:   363 / 512
Time taken for this run:   0.002s

DOCKED: MODEL        363
DOCKED: USER    Run = 363
DOCKED: USER
DOCKED: USER    Estimated Free Energy of Binding    =  -4.51 kcal/mol  [=(1)+(2)+(3)-(4)]
DOCKED: USER
DOCKED: USER    (1) Final Intermolecular Energy     =  -6.01 kcal/mol
DOCKED: USER        vdW + Hbond + desolv Energy     =  -6.01 kcal/mol
DOCKED: USER        Electrostatic Energy            =  +0.00 kcal/mol
DOCKED: USER        Moving Ligand-Fixed Receptor    =  -6.01 kcal/mol
DOCKED: USER        Moving Ligand-Moving Receptor   =  +0.00 kcal/mol
DOCKED: USER    (2) Final Total Internal Energy     =  -1.09 kcal/mol
DOCKED: USER    (3) Torsional Free Energy           =  +1.49 kcal/mol
DOCKED: USER    (4) Unbound System's Energy         =  -1.09 kcal/mol
DOCKED: USER
DOCKED: USER
DOCKED: REMARK  5 active torsions:
DOCKED: REMARK  status: ('A' for Active; 'I' for Inactive)
DOCKED: REMARK    1  A    between atoms: C_2  and  C_19 
DOCKED: REMARK    2  A    between atoms: C_2  and  C_11 
DOCKED: REMARK    3  A    between atoms: C_19  and  C_20 
DOCKED: REMARK    4  A    between atoms: C_20  and  C_21 
DOCKED: REMARK    5  A    between atoms: C_21  and  N_22 
DOCKED: USER                              x       y       z     vdW  Elec       q    Type
DOCKED: USER                           _______ _______ _______ _____ _____    ______ ____
DOCKED: ROOT
DOCKED: ATOM      1  O   UNL     1     -55.284 -35.874   8.784 -0.06 -0.00    -0.346 OA 
DOCKED: ATOM      2  C   UNL     1     -56.162 -35.071   7.933 -0.13 +0.00    +0.130 C  
DOCKED: ATOM      3  C   UNL     1     -56.988 -36.092   7.204 -0.23 +0.00    +0.004 A  
DOCKED: ATOM      4  C   UNL     1     -56.687 -37.361   7.677 -0.25 +0.00    +0.006 A  
DOCKED: ATOM      5  C   UNL     1     -55.665 -37.269   8.745 -0.16 +0.00    +0.169 C  
DOCKED: ATOM      6  C   UNL     1     -57.938 -35.910   6.210 -0.28 -0.00    -0.001 A  
DOCKED: ATOM      7  C   UNL     1     -57.317 -38.486   7.174 -0.34 +0.00    +0.008 A  
DOCKED: ATOM      8  C   UNL     1     -58.579 -37.036   5.689 -0.34 +0.00    +0.010 A  
DOCKED: ATOM      9  C   UNL     1     -58.270 -38.317   6.169 -0.32 +0.00    +0.068 A  
DOCKED: ATOM     10  N   UNL     1     -59.482 -40.384   5.185 -2.51 -0.00    -0.191 NA 
DOCKED: ATOM     11  C   UNL     1     -58.938 -39.457   5.626 -0.31 +0.00    +0.101 C  
DOCKED: ENDROOT
DOCKED: BRANCH   2  12
DOCKED: ATOM     12  C   UNL     1     -56.997 -34.159   8.824 -0.06 +0.00    +0.038 C  
DOCKED: BRANCH  12  13
DOCKED: ATOM     13  C   UNL     1     -56.974 -32.717   8.322 -0.05 +0.00    +0.038 C  
DOCKED: BRANCH  13  14
DOCKED: ATOM     14  C   UNL     1     -58.238 -32.391   7.529 -0.07 +0.00    +0.251 C  
DOCKED: BRANCH  14  15
DOCKED: ATOM     15  N   UNL     1     -59.331 -33.266   7.935 -0.07 +0.00    +0.141 N  
DOCKED: ATOM     16  C   UNL     1     -60.137 -32.634   8.980 -0.01 +0.00    +0.285 C  
DOCKED: ATOM     17  C   UNL     1     -60.170 -33.609   6.785 -0.16 +0.00    +0.285 C  
DOCKED: ENDBRANCH  14  15
DOCKED: ENDBRANCH  13  14
DOCKED: ENDBRANCH  12  13
DOCKED: ENDBRANCH   2  12
DOCKED: BRANCH   2  18
DOCKED: ATOM     18  C   UNL     1     -55.283 -34.278   7.024 -0.14 +0.00    +0.006 A  
DOCKED: ATOM     19  C   UNL     1     -54.005 -33.908   7.440 -0.09 +0.00    +0.001 A  
DOCKED: ATOM     20  C   UNL     1     -53.184 -33.166   6.589 -0.07 +0.00    +0.029 A  
DOCKED: ATOM     21  C   UNL     1     -53.642 -32.797   5.326 -0.07 +0.00    +0.140 A  
DOCKED: ATOM     22  C   UNL     1     -54.920 -33.167   4.910 -0.14 +0.00    +0.029 A  
DOCKED: ATOM     23  F   UNL     1     -52.853 -32.086   4.509 -0.00 -0.00    -0.204 F  
DOCKED: ATOM     24  C   UNL     1     -55.743 -33.909   5.760 -0.13 +0.00    +0.001 A  
DOCKED: ENDBRANCH   2  18
DOCKED: TORSDOF 5
DOCKED: TER
DOCKED: ENDMDL
________________________________________________________________________________


    FINAL DOCKED STATE:
    ________________________


Run:   364 / 512
Time taken for this run:   0.002s

DOCKED: MODEL        364
DOCKED: USER    Run = 364
DOCKED: USER
DOCKED: USER    Estimated Free Energy of Binding    =  -4.37 kcal/mol  [=(1)+(2)+(3)-(4)]
DOCKED: USER
DOCKED: USER    (1) Final Intermolecular Energy     =  -5.86 kcal/mol
DOCKED: USER        vdW + Hbond + desolv Energy     =  -5.86 kcal/mol
DOCKED: USER        Electrostatic Energy            =  +0.00 kcal/mol
DOCKED: USER        Moving Ligand-Fixed Receptor    =  -5.86 kcal/mol
DOCKED: USER        Moving Ligand-Moving Receptor   =  +0.00 kcal/mol
DOCKED: USER    (2) Final Total Internal Energy     =  -1.26 kcal/mol
DOCKED: USER    (3) Torsional Free Energy           =  +1.49 kcal/mol
DOCKED: USER    (4) Unbound System's Energy         =  -1.26 kcal/mol
DOCKED: USER
DOCKED: USER
DOCKED: REMARK  5 active torsions:
DOCKED: REMARK  status: ('A' for Active; 'I' for Inactive)
DOCKED: REMARK    1  A    between atoms: C_2  and  C_19 
DOCKED: REMARK    2  A    between atoms: C_2  and  C_11 
DOCKED: REMARK    3  A    between atoms: C_19  and  C_20 
DOCKED: REMARK    4  A    between atoms: C_20  and  C_21 
DOCKED: REMARK    5  A    between atoms: C_21  and  N_22 
DOCKED: USER                              x       y       z     vdW  Elec       q    Type
DOCKED: USER                           _______ _______ _______ _____ _____    ______ ____
DOCKED: ROOT
DOCKED: ATOM      1  O   UNL     1     -54.886 -35.998   8.465 -0.08 -0.00    -0.346 OA 
DOCKED: ATOM      2  C   UNL     1     -55.827 -35.117   7.773 -0.13 +0.00    +0.130 C  
DOCKED: ATOM      3  C   UNL     1     -56.803 -36.063   7.134 -0.21 +0.00    +0.004 A  
DOCKED: ATOM      4  C   UNL     1     -56.511 -37.364   7.518 -0.22 +0.00    +0.006 A  
DOCKED: ATOM      5  C   UNL     1     -55.348 -37.369   8.433 -0.18 +0.00    +0.169 C  
DOCKED: ATOM      6  C   UNL     1     -57.870 -35.792   6.291 -0.27 -0.00    -0.001 A  
DOCKED: ATOM      7  C   UNL     1     -57.267 -38.434   7.071 -0.34 +0.00    +0.008 A  
DOCKED: ATOM      8  C   UNL     1     -58.640 -36.861   5.828 -0.33 +0.00    +0.010 A  
DOCKED: ATOM      9  C   UNL     1     -58.340 -38.175   6.217 -0.31 +0.00    +0.068 A  
DOCKED: ATOM     10  N   UNL     1     -59.792 -40.135   5.344 -2.55 -0.00    -0.191 NA 
DOCKED: ATOM     11  C   UNL     1     -59.140 -39.256   5.735 -0.38 +0.00    +0.101 C  
DOCKED: ENDROOT
DOCKED: BRANCH   2  12
DOCKED: ATOM     12  C   UNL     1     -56.477 -34.201   8.804 -0.06 +0.00    +0.038 C  
DOCKED: BRANCH  12  13
DOCKED: ATOM     13  C   UNL     1     -57.249 -35.001   9.851 -0.04 +0.00    +0.038 C  
DOCKED: BRANCH  13  14
DOCKED: ATOM     14  C   UNL     1     -58.733 -35.080   9.498 -0.02 +0.00    +0.251 C  
DOCKED: BRANCH  14  15
DOCKED: ATOM     15  N   UNL     1     -59.402 -36.068  10.337 -0.02 +0.00    +0.141 N  
DOCKED: ATOM     16  C   UNL     1     -60.822 -35.745  10.481 -0.00 +0.00    +0.285 C  
DOCKED: ATOM     17  C   UNL     1     -59.241 -37.412   9.780 -0.03 +0.00    +0.285 C  
DOCKED: ENDBRANCH  14  15
DOCKED: ENDBRANCH  13  14
DOCKED: ENDBRANCH  12  13
DOCKED: ENDBRANCH   2  12
DOCKED: BRANCH   2  18
DOCKED: ATOM     18  C   UNL     1     -55.040 -34.333   6.777 -0.13 +0.00    +0.006 A  
DOCKED: ATOM     19  C   UNL     1     -55.697 -33.558   5.823 -0.16 +0.00    +0.001 A  
DOCKED: ATOM     20  C   UNL     1     -54.960 -32.826   4.892 -0.13 +0.00    +0.029 A  
DOCKED: ATOM     21  C   UNL     1     -53.566 -32.870   4.916 -0.08 +0.00    +0.140 A  
DOCKED: ATOM     22  C   UNL     1     -52.909 -33.645   5.871 -0.09 +0.00    +0.029 A  
DOCKED: ATOM     23  F   UNL     1     -52.858 -32.166   4.024 -0.00 -0.00    -0.204 F  
DOCKED: ATOM     24  C   UNL     1     -53.646 -34.378   6.803 -0.10 +0.00    +0.001 A  
DOCKED: ENDBRANCH   2  18
DOCKED: TORSDOF 5
DOCKED: TER
DOCKED: ENDMDL
________________________________________________________________________________


    FINAL DOCKED STATE:
    ________________________


Run:   365 / 512
Time taken for this run:   0.002s

DOCKED: MODEL        365
DOCKED: USER    Run = 365
DOCKED: USER
DOCKED: USER    Estimated Free Energy of Binding    =  -4.77 kcal/mol  [=(1)+(2)+(3)-(4)]
DOCKED: USER
DOCKED: USER    (1) Final Intermolecular Energy     =  -6.26 kcal/mol
DOCKED: USER        vdW + Hbond + desolv Energy     =  -6.26 kcal/mol
DOCKED: USER        Electrostatic Energy            =  +0.00 kcal/mol
DOCKED: USER        Moving Ligand-Fixed Receptor    =  -6.26 kcal/mol
DOCKED: USER        Moving Ligand-Moving Receptor   =  +0.00 kcal/mol
DOCKED: USER    (2) Final Total Internal Energy     =  -0.88 kcal/mol
DOCKED: USER    (3) Torsional Free Energy           =  +1.49 kcal/mol
DOCKED: USER    (4) Unbound System's Energy         =  -0.88 kcal/mol
DOCKED: USER
DOCKED: USER
DOCKED: REMARK  5 active torsions:
DOCKED: REMARK  status: ('A' for Active; 'I' for Inactive)
DOCKED: REMARK    1  A    between atoms: C_2  and  C_19 
DOCKED: REMARK    2  A    between atoms: C_2  and  C_11 
DOCKED: REMARK    3  A    between atoms: C_19  and  C_20 
DOCKED: REMARK    4  A    between atoms: C_20  and  C_21 
DOCKED: REMARK    5  A    between atoms: C_21  and  N_22 
DOCKED: USER                              x       y       z     vdW  Elec       q    Type
DOCKED: USER                           _______ _______ _______ _____ _____    ______ ____
DOCKED: ROOT
DOCKED: ATOM      1  O   UNL     1     -56.035 -30.209   1.226 -0.10 -0.00    -0.346 OA 
DOCKED: ATOM      2  C   UNL     1     -54.714 -30.153   0.598 -0.18 +0.00    +0.130 C  
DOCKED: ATOM      3  C   UNL     1     -54.967 -29.462  -0.711 -0.26 +0.00    +0.004 A  
DOCKED: ATOM      4  C   UNL     1     -56.294 -29.060  -0.777 -0.23 +0.00    +0.006 A  
DOCKED: ATOM      5  C   UNL     1     -56.997 -29.439   0.468 -0.08 +0.00    +0.169 C  
DOCKED: ATOM      6  C   UNL     1     -54.091 -29.201  -1.754 -0.22 -0.00    -0.001 A  
DOCKED: ATOM      7  C   UNL     1     -56.789 -28.390  -1.883 -0.31 +0.00    +0.008 A  
DOCKED: ATOM      8  C   UNL     1     -54.576 -28.530  -2.878 -0.27 +0.00    +0.010 A  
DOCKED: ATOM      9  C   UNL     1     -55.918 -28.127  -2.942 -0.26 +0.00    +0.068 A  
DOCKED: ATOM     10  N   UNL     1     -56.785 -26.879  -5.041 -2.42 -0.00    -0.191 NA 
DOCKED: ATOM     11  C   UNL     1     -56.396 -27.439  -4.100 -0.33 +0.00    +0.101 C  
DOCKED: ENDROOT
DOCKED: BRANCH   2  12
DOCKED: ATOM     12  C   UNL     1     -53.779 -29.370   1.511 -0.17 +0.00    +0.038 C  
DOCKED: BRANCH  12  13
DOCKED: ATOM     13  C   UNL     1     -52.318 -29.736   1.257 -0.09 +0.00    +0.038 C  
DOCKED: BRANCH  13  14
DOCKED: ATOM     14  C   UNL     1     -51.410 -28.518   1.419 -0.08 +0.00    +0.251 C  
DOCKED: BRANCH  14  15
DOCKED: ATOM     15  N   UNL     1     -51.220 -28.211   2.832 -0.07 +0.00    +0.141 N  
DOCKED: ATOM     16  C   UNL     1     -50.827 -29.410   3.572 -0.03 +0.00    +0.285 C  
DOCKED: ATOM     17  C   UNL     1     -50.217 -27.158   3.000 -0.05 +0.00    +0.285 C  
DOCKED: ENDBRANCH  14  15
DOCKED: ENDBRANCH  13  14
DOCKED: ENDBRANCH  12  13
DOCKED: ENDBRANCH   2  12
DOCKED: BRANCH   2  18
DOCKED: ATOM     18  C   UNL     1     -54.250 -31.562   0.432 -0.14 +0.00    +0.006 A  
DOCKED: ATOM     19  C   UNL     1     -54.487 -32.497   1.439 -0.16 +0.00    +0.001 A  
DOCKED: ATOM     20  C   UNL     1     -54.052 -33.813   1.282 -0.23 +0.00    +0.029 A  
DOCKED: ATOM     21  C   UNL     1     -53.382 -34.193   0.120 -0.18 +0.00    +0.140 A  
DOCKED: ATOM     22  C   UNL     1     -53.146 -33.257  -0.887 -0.17 +0.00    +0.029 A  
DOCKED: ATOM     23  F   UNL     1     -52.967 -35.457  -0.031 -0.08 -0.00    -0.204 F  
DOCKED: ATOM     24  C   UNL     1     -53.580 -31.940  -0.731 -0.15 +0.00    +0.001 A  
DOCKED: ENDBRANCH   2  18
DOCKED: TORSDOF 5
DOCKED: TER
DOCKED: ENDMDL
________________________________________________________________________________


    FINAL DOCKED STATE:
    ________________________


Run:   366 / 512
Time taken for this run:   0.002s

DOCKED: MODEL        366
DOCKED: USER    Run = 366
DOCKED: USER
DOCKED: USER    Estimated Free Energy of Binding    =  -5.36 kcal/mol  [=(1)+(2)+(3)-(4)]
DOCKED: USER
DOCKED: USER    (1) Final Intermolecular Energy     =  -6.85 kcal/mol
DOCKED: USER        vdW + Hbond + desolv Energy     =  -6.85 kcal/mol
DOCKED: USER        Electrostatic Energy            =  +0.00 kcal/mol
DOCKED: USER        Moving Ligand-Fixed Receptor    =  -6.85 kcal/mol
DOCKED: USER        Moving Ligand-Moving Receptor   =  +0.00 kcal/mol
DOCKED: USER    (2) Final Total Internal Energy     =  -1.24 kcal/mol
DOCKED: USER    (3) Torsional Free Energy           =  +1.49 kcal/mol
DOCKED: USER    (4) Unbound System's Energy         =  -1.24 kcal/mol
DOCKED: USER
DOCKED: USER
DOCKED: REMARK  5 active torsions:
DOCKED: REMARK  status: ('A' for Active; 'I' for Inactive)
DOCKED: REMARK    1  A    between atoms: C_2  and  C_19 
DOCKED: REMARK    2  A    between atoms: C_2  and  C_11 
DOCKED: REMARK    3  A    between atoms: C_19  and  C_20 
DOCKED: REMARK    4  A    between atoms: C_20  and  C_21 
DOCKED: REMARK    5  A    between atoms: C_21  and  N_22 
DOCKED: USER                              x       y       z     vdW  Elec       q    Type
DOCKED: USER                           _______ _______ _______ _____ _____    ______ ____
DOCKED: ROOT
DOCKED: ATOM      1  O   UNL     1     -56.874 -39.370   8.134 -0.18 -0.00    -0.346 OA 
DOCKED: ATOM      2  C   UNL     1     -57.752 -38.199   8.139 -0.22 +0.00    +0.130 C  
DOCKED: ATOM      3  C   UNL     1     -58.300 -38.155   6.742 -0.32 +0.00    +0.004 A  
DOCKED: ATOM      4  C   UNL     1     -57.862 -39.264   6.033 -0.42 +0.00    +0.006 A  
DOCKED: ATOM      5  C   UNL     1     -57.017 -40.114   6.902 -0.15 +0.00    +0.169 C  
DOCKED: ATOM      6  C   UNL     1     -59.129 -37.213   6.150 -0.31 -0.00    -0.001 A  
DOCKED: ATOM      7  C   UNL     1     -58.231 -39.469   4.714 -0.39 +0.00    +0.008 A  
DOCKED: ATOM      8  C   UNL     1     -59.506 -37.403   4.819 +0.07 +0.00    +0.010 A  
DOCKED: ATOM      9  C   UNL     1     -59.060 -38.525   4.106 -0.44 +0.00    +0.068 A  
DOCKED: ATOM     10  N   UNL     1     -59.783 -38.849   1.639 -2.93 -0.00    -0.191 NA 
DOCKED: ATOM     11  C   UNL     1     -59.458 -38.704   2.745 -0.42 +0.00    +0.101 C  
DOCKED: ENDROOT
DOCKED: BRANCH   2  12
DOCKED: ATOM     12  C   UNL     1     -58.832 -38.410   9.194 -0.19 +0.00    +0.038 C  
DOCKED: BRANCH  12  13
DOCKED: ATOM     13  C   UNL     1     -58.534 -39.633  10.059 -0.18 +0.00    +0.038 C  
DOCKED: BRANCH  13  14
DOCKED: ATOM     14  C   UNL     1     -57.706 -39.250  11.285 -0.15 +0.00    +0.251 C  
DOCKED: BRANCH  14  15
DOCKED: ATOM     15  N   UNL     1     -58.469 -38.364  12.155 -0.06 +0.00    +0.141 N  
DOCKED: ATOM     16  C   UNL     1     -59.570 -39.088  12.793 -0.05 +0.00    +0.285 C  
DOCKED: ATOM     17  C   UNL     1     -57.600 -37.765  13.170 -0.01 +0.00    +0.285 C  
DOCKED: ENDBRANCH  14  15
DOCKED: ENDBRANCH  13  14
DOCKED: ENDBRANCH  12  13
DOCKED: ENDBRANCH   2  12
DOCKED: BRANCH   2  18
DOCKED: ATOM     18  C   UNL     1     -56.901 -37.018   8.468 -0.18 +0.00    +0.006 A  
DOCKED: ATOM     19  C   UNL     1     -55.841 -36.669   7.633 -0.04 +0.00    +0.001 A  
DOCKED: ATOM     20  C   UNL     1     -55.046 -35.564   7.942 -0.12 +0.00    +0.029 A  
DOCKED: ATOM     21  C   UNL     1     -55.313 -34.811   9.084 -0.04 +0.00    +0.140 A  
DOCKED: ATOM     22  C   UNL     1     -56.374 -35.161   9.919 -0.04 +0.00    +0.029 A  
DOCKED: ATOM     23  F   UNL     1     -54.551 -33.750   9.380 -0.00 -0.00    -0.204 F  
DOCKED: ATOM     24  C   UNL     1     -57.169 -36.266   9.611 -0.07 +0.00    +0.001 A  
DOCKED: ENDBRANCH   2  18
DOCKED: TORSDOF 5
DOCKED: TER
DOCKED: ENDMDL
________________________________________________________________________________


    FINAL DOCKED STATE:
    ________________________


Run:   367 / 512
Time taken for this run:   0.002s

DOCKED: MODEL        367
DOCKED: USER    Run = 367
DOCKED: USER
DOCKED: USER    Estimated Free Energy of Binding    =  -3.46 kcal/mol  [=(1)+(2)+(3)-(4)]
DOCKED: USER
DOCKED: USER    (1) Final Intermolecular Energy     =  -4.95 kcal/mol
DOCKED: USER        vdW + Hbond + desolv Energy     =  -4.95 kcal/mol
DOCKED: USER        Electrostatic Energy            =  +0.00 kcal/mol
DOCKED: USER        Moving Ligand-Fixed Receptor    =  -4.95 kcal/mol
DOCKED: USER        Moving Ligand-Moving Receptor   =  +0.00 kcal/mol
DOCKED: USER    (2) Final Total Internal Energy     =  -1.39 kcal/mol
DOCKED: USER    (3) Torsional Free Energy           =  +1.49 kcal/mol
DOCKED: USER    (4) Unbound System's Energy         =  -1.39 kcal/mol
DOCKED: USER
DOCKED: USER
DOCKED: REMARK  5 active torsions:
DOCKED: REMARK  status: ('A' for Active; 'I' for Inactive)
DOCKED: REMARK    1  A    between atoms: C_2  and  C_19 
DOCKED: REMARK    2  A    between atoms: C_2  and  C_11 
DOCKED: REMARK    3  A    between atoms: C_19  and  C_20 
DOCKED: REMARK    4  A    between atoms: C_20  and  C_21 
DOCKED: REMARK    5  A    between atoms: C_21  and  N_22 
DOCKED: USER                              x       y       z     vdW  Elec       q    Type
DOCKED: USER                           _______ _______ _______ _____ _____    ______ ____
DOCKED: ROOT
DOCKED: ATOM      1  O   UNL     1     -51.648 -34.233   2.382 -0.01 -0.00    -0.346 OA 
DOCKED: ATOM      2  C   UNL     1     -52.049 -34.987   1.193 -0.13 +0.00    +0.130 C  
DOCKED: ATOM      3  C   UNL     1     -52.059 -36.414   1.659 -0.23 +0.00    +0.004 A  
DOCKED: ATOM      4  C   UNL     1     -51.795 -36.463   3.021 -0.20 +0.00    +0.006 A  
DOCKED: ATOM      5  C   UNL     1     -51.608 -35.092   3.545 -0.10 +0.00    +0.169 C  
DOCKED: ATOM      6  C   UNL     1     -52.293 -37.575   0.938 -0.09 -0.00    -0.001 A  
DOCKED: ATOM      7  C   UNL     1     -51.753 -37.666   3.704 -0.15 +0.00    +0.008 A  
DOCKED: ATOM      8  C   UNL     1     -52.250 -38.797   1.611 -0.30 +0.00    +0.010 A  
DOCKED: ATOM      9  C   UNL     1     -51.982 -38.842   2.988 -0.30 +0.00    +0.068 A  
DOCKED: ATOM     10  N   UNL     1     -51.913 -41.126   4.208 -2.24 -0.00    -0.191 NA 
DOCKED: ATOM     11  C   UNL     1     -51.943 -40.102   3.661 -0.34 +0.00    +0.101 C  
DOCKED: ENDROOT
DOCKED: BRANCH   2  12
DOCKED: ATOM     12  C   UNL     1     -53.423 -34.497   0.752 -0.26 +0.00    +0.038 C  
DOCKED: BRANCH  12  13
DOCKED: ATOM     13  C   UNL     1     -53.361 -33.066   0.222 -0.16 +0.00    +0.038 C  
DOCKED: BRANCH  13  14
DOCKED: ATOM     14  C   UNL     1     -53.549 -32.053   1.350 -0.05 +0.00    +0.251 C  
DOCKED: BRANCH  14  15
DOCKED: ATOM     15  N   UNL     1     -52.480 -31.063   1.327 -0.03 +0.00    +0.141 N  
DOCKED: ATOM     16  C   UNL     1     -53.024 -29.721   1.109 -0.08 +0.00    +0.285 C  
DOCKED: ATOM     17  C   UNL     1     -51.712 -31.103   2.572 -0.01 +0.00    +0.285 C  
DOCKED: ENDBRANCH  14  15
DOCKED: ENDBRANCH  13  14
DOCKED: ENDBRANCH  12  13
DOCKED: ENDBRANCH   2  12
DOCKED: BRANCH   2  18
DOCKED: ATOM     18  C   UNL     1     -51.021 -34.725   0.143 -0.07 +0.00    +0.006 A  
DOCKED: ATOM     19  C   UNL     1     -49.903 -33.947   0.442 -0.01 +0.00    +0.001 A  
DOCKED: ATOM     20  C   UNL     1     -48.943 -33.703  -0.541 -0.00 +0.00    +0.029 A  
DOCKED: ATOM     21  C   UNL     1     -49.102 -34.236  -1.819 -0.00 +0.00    +0.140 A  
DOCKED: ATOM     22  C   UNL     1     -50.221 -35.014  -2.117 -0.06 +0.00    +0.029 A  
DOCKED: ATOM     23  F   UNL     1     -48.180 -34.002  -2.762 +0.00 -0.00    -0.204 F  
DOCKED: ATOM     24  C   UNL     1     -51.182 -35.258  -1.135 -0.12 +0.00    +0.001 A  
DOCKED: ENDBRANCH   2  18
DOCKED: TORSDOF 5
DOCKED: TER
DOCKED: ENDMDL
________________________________________________________________________________


    FINAL DOCKED STATE:
    ________________________


Run:   368 / 512
Time taken for this run:   0.002s

DOCKED: MODEL        368
DOCKED: USER    Run = 368
DOCKED: USER
DOCKED: USER    Estimated Free Energy of Binding    =  -3.75 kcal/mol  [=(1)+(2)+(3)-(4)]
DOCKED: USER
DOCKED: USER    (1) Final Intermolecular Energy     =  -5.24 kcal/mol
DOCKED: USER        vdW + Hbond + desolv Energy     =  -5.24 kcal/mol
DOCKED: USER        Electrostatic Energy            =  +0.00 kcal/mol
DOCKED: USER        Moving Ligand-Fixed Receptor    =  -5.24 kcal/mol
DOCKED: USER        Moving Ligand-Moving Receptor   =  +0.00 kcal/mol
DOCKED: USER    (2) Final Total Internal Energy     =  -1.48 kcal/mol
DOCKED: USER    (3) Torsional Free Energy           =  +1.49 kcal/mol
DOCKED: USER    (4) Unbound System's Energy         =  -1.48 kcal/mol
DOCKED: USER
DOCKED: USER
DOCKED: REMARK  5 active torsions:
DOCKED: REMARK  status: ('A' for Active; 'I' for Inactive)
DOCKED: REMARK    1  A    between atoms: C_2  and  C_19 
DOCKED: REMARK    2  A    between atoms: C_2  and  C_11 
DOCKED: REMARK    3  A    between atoms: C_19  and  C_20 
DOCKED: REMARK    4  A    between atoms: C_20  and  C_21 
DOCKED: REMARK    5  A    between atoms: C_21  and  N_22 
DOCKED: USER                              x       y       z     vdW  Elec       q    Type
DOCKED: USER                           _______ _______ _______ _____ _____    ______ ____
DOCKED: ROOT
DOCKED: ATOM      1  O   UNL     1     -56.282 -36.413   9.808 -0.03 -0.00    -0.346 OA 
DOCKED: ATOM      2  C   UNL     1     -56.659 -35.531   8.703 -0.09 +0.00    +0.130 C  
DOCKED: ATOM      3  C   UNL     1     -57.350 -36.444   7.733 -0.20 +0.00    +0.004 A  
DOCKED: ATOM      4  C   UNL     1     -57.459 -37.714   8.283 -0.21 +0.00    +0.006 A  
DOCKED: ATOM      5  C   UNL     1     -56.867 -37.726   9.639 -0.12 +0.00    +0.169 C  
DOCKED: ATOM      6  C   UNL     1     -57.853 -36.171   6.470 -0.30 -0.00    -0.001 A  
DOCKED: ATOM      7  C   UNL     1     -58.066 -38.749   7.592 -0.30 +0.00    +0.008 A  
DOCKED: ATOM      8  C   UNL     1     -58.465 -37.205   5.759 -0.35 +0.00    +0.010 A  
DOCKED: ATOM      9  C   UNL     1     -58.570 -38.487   6.318 -0.31 +0.00    +0.068 A  
DOCKED: ATOM     10  N   UNL     1     -59.715 -40.383   4.973 -2.36 -0.00    -0.191 NA 
DOCKED: ATOM     11  C   UNL     1     -59.201 -39.533   5.576 -0.31 +0.00    +0.101 C  
DOCKED: ENDROOT
DOCKED: BRANCH   2  12
DOCKED: ATOM     12  C   UNL     1     -57.574 -34.440   9.247 -0.05 +0.00    +0.038 C  
DOCKED: BRANCH  12  13
DOCKED: ATOM     13  C   UNL     1     -56.866 -33.595  10.304 -0.01 +0.00    +0.038 C  
DOCKED: BRANCH  13  14
DOCKED: ATOM     14  C   UNL     1     -56.699 -34.374  11.608 -0.00 +0.00    +0.251 C  
DOCKED: BRANCH  14  15
DOCKED: ATOM     15  N   UNL     1     -55.334 -34.245  12.104 -0.00 +0.00    +0.141 N  
DOCKED: ATOM     16  C   UNL     1     -54.724 -35.564  12.282 -0.00 +0.00    +0.285 C  
DOCKED: ATOM     17  C   UNL     1     -54.528 -33.432  11.192 -0.00 +0.00    +0.285 C  
DOCKED: ENDBRANCH  14  15
DOCKED: ENDBRANCH  13  14
DOCKED: ENDBRANCH  12  13
DOCKED: ENDBRANCH   2  12
DOCKED: BRANCH   2  18
DOCKED: ATOM     18  C   UNL     1     -55.396 -34.952   8.158 -0.12 +0.00    +0.006 A  
DOCKED: ATOM     19  C   UNL     1     -55.446 -33.855   7.299 -0.12 +0.00    +0.001 A  
DOCKED: ATOM     20  C   UNL     1     -54.265 -33.315   6.790 -0.09 +0.00    +0.029 A  
DOCKED: ATOM     21  C   UNL     1     -53.036 -33.871   7.140 -0.06 +0.00    +0.140 A  
DOCKED: ATOM     22  C   UNL     1     -52.986 -34.969   7.999 -0.09 +0.00    +0.029 A  
DOCKED: ATOM     23  F   UNL     1     -51.902 -33.352   6.652 -0.01 -0.00    -0.204 F  
DOCKED: ATOM     24  C   UNL     1     -54.167 -35.510   8.509 -0.11 +0.00    +0.001 A  
DOCKED: ENDBRANCH   2  18
DOCKED: TORSDOF 5
DOCKED: TER
DOCKED: ENDMDL
________________________________________________________________________________


    FINAL DOCKED STATE:
    ________________________


Run:   369 / 512
Time taken for this run:   0.002s

DOCKED: MODEL        369
DOCKED: USER    Run = 369
DOCKED: USER
DOCKED: USER    Estimated Free Energy of Binding    =  -4.06 kcal/mol  [=(1)+(2)+(3)-(4)]
DOCKED: USER
DOCKED: USER    (1) Final Intermolecular Energy     =  -5.55 kcal/mol
DOCKED: USER        vdW + Hbond + desolv Energy     =  -5.55 kcal/mol
DOCKED: USER        Electrostatic Energy            =  +0.00 kcal/mol
DOCKED: USER        Moving Ligand-Fixed Receptor    =  -5.55 kcal/mol
DOCKED: USER        Moving Ligand-Moving Receptor   =  +0.00 kcal/mol
DOCKED: USER    (2) Final Total Internal Energy     =  -1.29 kcal/mol
DOCKED: USER    (3) Torsional Free Energy           =  +1.49 kcal/mol
DOCKED: USER    (4) Unbound System's Energy         =  -1.29 kcal/mol
DOCKED: USER
DOCKED: USER
DOCKED: REMARK  5 active torsions:
DOCKED: REMARK  status: ('A' for Active; 'I' for Inactive)
DOCKED: REMARK    1  A    between atoms: C_2  and  C_19 
DOCKED: REMARK    2  A    between atoms: C_2  and  C_11 
DOCKED: REMARK    3  A    between atoms: C_19  and  C_20 
DOCKED: REMARK    4  A    between atoms: C_20  and  C_21 
DOCKED: REMARK    5  A    between atoms: C_21  and  N_22 
DOCKED: USER                              x       y       z     vdW  Elec       q    Type
DOCKED: USER                           _______ _______ _______ _____ _____    ______ ____
DOCKED: ROOT
DOCKED: ATOM      1  O   UNL     1     -57.152 -35.061   9.304 -0.01 -0.00    -0.346 OA 
DOCKED: ATOM      2  C   UNL     1     -57.021 -34.667   7.900 -0.12 +0.00    +0.130 C  
DOCKED: ATOM      3  C   UNL     1     -57.606 -35.826   7.146 -0.23 +0.00    +0.004 A  
DOCKED: ATOM      4  C   UNL     1     -58.125 -36.751   8.040 -0.15 +0.00    +0.006 A  
DOCKED: ATOM      5  C   UNL     1     -57.935 -36.271   9.427 -0.05 +0.00    +0.169 C  
DOCKED: ATOM      6  C   UNL     1     -57.682 -36.038   5.777 -0.09 -0.00    -0.001 A  
DOCKED: ATOM      7  C   UNL     1     -58.731 -37.916   7.601 -0.21 +0.00    +0.008 A  
DOCKED: ATOM      8  C   UNL     1     -58.286 -37.210   5.318 -0.33 +0.00    +0.010 A  
DOCKED: ATOM      9  C   UNL     1     -58.809 -38.144   6.226 -0.29 +0.00    +0.068 A  
DOCKED: ATOM     10  N   UNL     1     -59.928 -40.306   5.341 -2.48 -0.00    -0.191 NA 
DOCKED: ATOM     11  C   UNL     1     -59.426 -39.337   5.738 -0.34 +0.00    +0.101 C  
DOCKED: ENDROOT
DOCKED: BRANCH   2  12
DOCKED: ATOM     12  C   UNL     1     -57.794 -33.370   7.689 -0.11 +0.00    +0.038 C  
DOCKED: BRANCH  12  13
DOCKED: ATOM     13  C   UNL     1     -59.080 -33.348   8.514 -0.07 +0.00    +0.038 C  
DOCKED: BRANCH  13  14
DOCKED: ATOM     14  C   UNL     1     -60.288 -33.016   7.639 -0.11 +0.00    +0.251 C  
DOCKED: BRANCH  14  15
DOCKED: ATOM     15  N   UNL     1     -61.315 -34.040   7.782 -0.11 +0.00    +0.141 N  
DOCKED: ATOM     16  C   UNL     1     -62.646 -33.470   7.569 -0.10 +0.00    +0.285 C  
DOCKED: ATOM     17  C   UNL     1     -61.079 -35.141   6.846 -0.13 +0.00    +0.285 C  
DOCKED: ENDBRANCH  14  15
DOCKED: ENDBRANCH  13  14
DOCKED: ENDBRANCH  12  13
DOCKED: ENDBRANCH   2  12
DOCKED: BRANCH   2  18
DOCKED: ATOM     18  C   UNL     1     -55.565 -34.475   7.635 -0.13 +0.00    +0.006 A  
DOCKED: ATOM     19  C   UNL     1     -55.150 -33.593   6.638 -0.13 +0.00    +0.001 A  
DOCKED: ATOM     20  C   UNL     1     -53.788 -33.415   6.390 -0.10 +0.00    +0.029 A  
DOCKED: ATOM     21  C   UNL     1     -52.845 -34.117   7.139 -0.07 +0.00    +0.140 A  
DOCKED: ATOM     22  C   UNL     1     -53.262 -34.999   8.136 -0.09 +0.00    +0.029 A  
DOCKED: ATOM     23  F   UNL     1     -51.538 -33.944   6.902 -0.01 -0.00    -0.204 F  
DOCKED: ATOM     24  C   UNL     1     -54.624 -35.178   8.384 -0.11 +0.00    +0.001 A  
DOCKED: ENDBRANCH   2  18
DOCKED: TORSDOF 5
DOCKED: TER
DOCKED: ENDMDL
________________________________________________________________________________


    FINAL DOCKED STATE:
    ________________________


Run:   370 / 512
Time taken for this run:   0.002s

DOCKED: MODEL        370
DOCKED: USER    Run = 370
DOCKED: USER
DOCKED: USER    Estimated Free Energy of Binding    =  -3.99 kcal/mol  [=(1)+(2)+(3)-(4)]
DOCKED: USER
DOCKED: USER    (1) Final Intermolecular Energy     =  -5.48 kcal/mol
DOCKED: USER        vdW + Hbond + desolv Energy     =  -5.48 kcal/mol
DOCKED: USER        Electrostatic Energy            =  +0.00 kcal/mol
DOCKED: USER        Moving Ligand-Fixed Receptor    =  -5.48 kcal/mol
DOCKED: USER        Moving Ligand-Moving Receptor   =  +0.00 kcal/mol
DOCKED: USER    (2) Final Total Internal Energy     =  -1.01 kcal/mol
DOCKED: USER    (3) Torsional Free Energy           =  +1.49 kcal/mol
DOCKED: USER    (4) Unbound System's Energy         =  -1.01 kcal/mol
DOCKED: USER
DOCKED: USER
DOCKED: REMARK  5 active torsions:
DOCKED: REMARK  status: ('A' for Active; 'I' for Inactive)
DOCKED: REMARK    1  A    between atoms: C_2  and  C_19 
DOCKED: REMARK    2  A    between atoms: C_2  and  C_11 
DOCKED: REMARK    3  A    between atoms: C_19  and  C_20 
DOCKED: REMARK    4  A    between atoms: C_20  and  C_21 
DOCKED: REMARK    5  A    between atoms: C_21  and  N_22 
DOCKED: USER                              x       y       z     vdW  Elec       q    Type
DOCKED: USER                           _______ _______ _______ _____ _____    ______ ____
DOCKED: ROOT
DOCKED: ATOM      1  O   UNL     1     -49.927 -39.115  -2.289 -0.02 -0.00    -0.346 OA 
DOCKED: ATOM      2  C   UNL     1     -49.813 -37.913  -1.463 -0.09 +0.00    +0.130 C  
DOCKED: ATOM      3  C   UNL     1     -50.356 -38.340  -0.130 -0.13 +0.00    +0.004 A  
DOCKED: ATOM      4  C   UNL     1     -50.651 -39.696  -0.158 -0.18 +0.00    +0.006 A  
DOCKED: ATOM      5  C   UNL     1     -50.317 -40.255  -1.488 -0.08 +0.00    +0.169 C  
DOCKED: ATOM      6  C   UNL     1     -50.561 -37.591   1.020 -0.12 -0.00    -0.001 A  
DOCKED: ATOM      7  C   UNL     1     -51.162 -40.345   0.952 -0.29 +0.00    +0.008 A  
DOCKED: ATOM      8  C   UNL     1     -51.080 -38.231   2.146 -0.22 +0.00    +0.010 A  
DOCKED: ATOM      9  C   UNL     1     -51.379 -39.601   2.113 -0.31 +0.00    +0.068 A  
DOCKED: ATOM     10  N   UNL     1     -52.337 -40.759   4.223 -2.63 -0.00    -0.191 NA 
DOCKED: ATOM     11  C   UNL     1     -51.908 -40.239   3.276 -0.41 +0.00    +0.101 C  
DOCKED: ENDROOT
DOCKED: BRANCH   2  12
DOCKED: ATOM     12  C   UNL     1     -48.345 -37.506  -1.403 -0.03 +0.00    +0.038 C  
DOCKED: BRANCH  12  13
DOCKED: ATOM     13  C   UNL     1     -47.892 -36.864  -2.713 -0.01 +0.00    +0.038 C  
DOCKED: BRANCH  13  14
DOCKED: ATOM     14  C   UNL     1     -47.679 -37.918  -3.797 -0.01 +0.00    +0.251 C  
DOCKED: BRANCH  14  15
DOCKED: ATOM     15  N   UNL     1     -46.350 -37.783  -4.382 -0.00 +0.00    +0.141 N  
DOCKED: ATOM     16  C   UNL     1     -46.255 -38.546  -5.628 -0.00 +0.00    +0.285 C  
DOCKED: ATOM     17  C   UNL     1     -46.034 -36.375  -4.624 -0.00 +0.00    +0.285 C  
DOCKED: ENDBRANCH  14  15
DOCKED: ENDBRANCH  13  14
DOCKED: ENDBRANCH  12  13
DOCKED: ENDBRANCH   2  12
DOCKED: BRANCH   2  18
DOCKED: ATOM     18  C   UNL     1     -50.639 -36.855  -2.115 -0.11 +0.00    +0.006 A  
DOCKED: ATOM     19  C   UNL     1     -51.081 -35.760  -1.374 -0.12 +0.00    +0.001 A  
DOCKED: ATOM     20  C   UNL     1     -51.854 -34.772  -1.985 -0.17 +0.00    +0.029 A  
DOCKED: ATOM     21  C   UNL     1     -52.182 -34.880  -3.336 -0.19 +0.00    +0.140 A  
DOCKED: ATOM     22  C   UNL     1     -51.739 -35.975  -4.077 -0.18 +0.00    +0.029 A  
DOCKED: ATOM     23  F   UNL     1     -52.922 -33.930  -3.922 -0.10 -0.00    -0.204 F  
DOCKED: ATOM     24  C   UNL     1     -50.967 -36.964  -3.466 -0.08 +0.00    +0.001 A  
DOCKED: ENDBRANCH   2  18
DOCKED: TORSDOF 5
DOCKED: TER
DOCKED: ENDMDL
________________________________________________________________________________


    FINAL DOCKED STATE:
    ________________________


Run:   371 / 512
Time taken for this run:   0.002s

DOCKED: MODEL        371
DOCKED: USER    Run = 371
DOCKED: USER
DOCKED: USER    Estimated Free Energy of Binding    =  -4.15 kcal/mol  [=(1)+(2)+(3)-(4)]
DOCKED: USER
DOCKED: USER    (1) Final Intermolecular Energy     =  -5.64 kcal/mol
DOCKED: USER        vdW + Hbond + desolv Energy     =  -5.64 kcal/mol
DOCKED: USER        Electrostatic Energy            =  +0.00 kcal/mol
DOCKED: USER        Moving Ligand-Fixed Receptor    =  -5.64 kcal/mol
DOCKED: USER        Moving Ligand-Moving Receptor   =  +0.00 kcal/mol
DOCKED: USER    (2) Final Total Internal Energy     =  -1.13 kcal/mol
DOCKED: USER    (3) Torsional Free Energy           =  +1.49 kcal/mol
DOCKED: USER    (4) Unbound System's Energy         =  -1.13 kcal/mol
DOCKED: USER
DOCKED: USER
DOCKED: REMARK  5 active torsions:
DOCKED: REMARK  status: ('A' for Active; 'I' for Inactive)
DOCKED: REMARK    1  A    between atoms: C_2  and  C_19 
DOCKED: REMARK    2  A    between atoms: C_2  and  C_11 
DOCKED: REMARK    3  A    between atoms: C_19  and  C_20 
DOCKED: REMARK    4  A    between atoms: C_20  and  C_21 
DOCKED: REMARK    5  A    between atoms: C_21  and  N_22 
DOCKED: USER                              x       y       z     vdW  Elec       q    Type
DOCKED: USER                           _______ _______ _______ _____ _____    ______ ____
DOCKED: ROOT
DOCKED: ATOM      1  O   UNL     1     -51.972 -30.631  -1.832 +0.01 -0.00    -0.346 OA 
DOCKED: ATOM      2  C   UNL     1     -53.202 -30.662  -1.039 -0.10 +0.00    +0.130 C  
DOCKED: ATOM      3  C   UNL     1     -54.138 -29.762  -1.793 -0.22 +0.00    +0.004 A  
DOCKED: ATOM      4  C   UNL     1     -53.535 -29.343  -2.971 -0.18 +0.00    +0.006 A  
DOCKED: ATOM      5  C   UNL     1     -52.184 -29.936  -3.083 -0.06 +0.00    +0.169 C  
DOCKED: ATOM      6  C   UNL     1     -55.424 -29.357  -1.468 -0.27 -0.00    -0.001 A  
DOCKED: ATOM      7  C   UNL     1     -54.191 -28.505  -3.857 -0.22 +0.00    +0.008 A  
DOCKED: ATOM      8  C   UNL     1     -56.097 -28.509  -2.350 -0.29 +0.00    +0.010 A  
DOCKED: ATOM      9  C   UNL     1     -55.483 -28.086  -3.538 -0.12 +0.00    +0.068 A  
DOCKED: ATOM     10  N   UNL     1     -56.762 -26.516  -5.155 -2.32 -0.00    -0.191 NA 
DOCKED: ATOM     11  C   UNL     1     -56.188 -27.220  -4.429 -0.40 +0.00    +0.101 C  
DOCKED: ENDROOT
DOCKED: BRANCH   2  12
DOCKED: ATOM     12  C   UNL     1     -53.693 -32.103  -0.966 -0.19 +0.00    +0.038 C  
DOCKED: BRANCH  12  13
DOCKED: ATOM     13  C   UNL     1     -52.692 -33.066  -1.601 -0.17 +0.00    +0.038 C  
DOCKED: BRANCH  13  14
DOCKED: ATOM     14  C   UNL     1     -53.390 -34.042  -2.545 -0.09 +0.00    +0.251 C  
DOCKED: BRANCH  14  15
DOCKED: ATOM     15  N   UNL     1     -52.432 -34.613  -3.484 -0.22 +0.00    +0.141 N  
DOCKED: ATOM     16  C   UNL     1     -52.487 -33.913  -4.768 -0.16 +0.00    +0.285 C  
DOCKED: ATOM     17  C   UNL     1     -51.077 -34.559  -2.934 -0.08 +0.00    +0.285 C  
DOCKED: ENDBRANCH  14  15
DOCKED: ENDBRANCH  13  14
DOCKED: ENDBRANCH  12  13
DOCKED: ENDBRANCH   2  12
DOCKED: BRANCH   2  18
DOCKED: ATOM     18  C   UNL     1     -52.860 -30.140   0.317 -0.09 +0.00    +0.006 A  
DOCKED: ATOM     19  C   UNL     1     -53.856 -30.002   1.282 -0.14 +0.00    +0.001 A  
DOCKED: ATOM     20  C   UNL     1     -53.535 -29.514   2.549 -0.13 +0.00    +0.029 A  
DOCKED: ATOM     21  C   UNL     1     -52.219 -29.166   2.849 -0.08 +0.00    +0.140 A  
DOCKED: ATOM     22  C   UNL     1     -51.223 -29.305   1.883 -0.06 +0.00    +0.029 A  
DOCKED: ATOM     23  F   UNL     1     -51.911 -28.699   4.066 -0.03 -0.00    -0.204 F  
DOCKED: ATOM     24  C   UNL     1     -51.543 -29.793   0.615 -0.05 +0.00    +0.001 A  
DOCKED: ENDBRANCH   2  18
DOCKED: TORSDOF 5
DOCKED: TER
DOCKED: ENDMDL
________________________________________________________________________________


    FINAL DOCKED STATE:
    ________________________


Run:   372 / 512
Time taken for this run:   0.002s

DOCKED: MODEL        372
DOCKED: USER    Run = 372
DOCKED: USER
DOCKED: USER    Estimated Free Energy of Binding    =  -4.23 kcal/mol  [=(1)+(2)+(3)-(4)]
DOCKED: USER
DOCKED: USER    (1) Final Intermolecular Energy     =  -5.72 kcal/mol
DOCKED: USER        vdW + Hbond + desolv Energy     =  -5.72 kcal/mol
DOCKED: USER        Electrostatic Energy            =  +0.00 kcal/mol
DOCKED: USER        Moving Ligand-Fixed Receptor    =  -5.72 kcal/mol
DOCKED: USER        Moving Ligand-Moving Receptor   =  +0.00 kcal/mol
DOCKED: USER    (2) Final Total Internal Energy     =  -1.08 kcal/mol
DOCKED: USER    (3) Torsional Free Energy           =  +1.49 kcal/mol
DOCKED: USER    (4) Unbound System's Energy         =  -1.08 kcal/mol
DOCKED: USER
DOCKED: USER
DOCKED: REMARK  5 active torsions:
DOCKED: REMARK  status: ('A' for Active; 'I' for Inactive)
DOCKED: REMARK    1  A    between atoms: C_2  and  C_19 
DOCKED: REMARK    2  A    between atoms: C_2  and  C_11 
DOCKED: REMARK    3  A    between atoms: C_19  and  C_20 
DOCKED: REMARK    4  A    between atoms: C_20  and  C_21 
DOCKED: REMARK    5  A    between atoms: C_21  and  N_22 
DOCKED: USER                              x       y       z     vdW  Elec       q    Type
DOCKED: USER                           _______ _______ _______ _____ _____    ______ ____
DOCKED: ROOT
DOCKED: ATOM      1  O   UNL     1     -51.950 -25.504  -4.728 -0.47 -0.00    -0.346 OA 
DOCKED: ATOM      2  C   UNL     1     -52.092 -26.125  -3.410 -0.12 +0.00    +0.130 C  
DOCKED: ATOM      3  C   UNL     1     -53.521 -26.587  -3.383 -0.25 +0.00    +0.004 A  
DOCKED: ATOM      4  C   UNL     1     -54.112 -26.351  -4.616 -0.31 +0.00    +0.006 A  
DOCKED: ATOM      5  C   UNL     1     -53.127 -25.738  -5.536 -0.07 +0.00    +0.169 C  
DOCKED: ATOM      6  C   UNL     1     -54.237 -27.179  -2.353 -0.18 -0.00    -0.001 A  
DOCKED: ATOM      7  C   UNL     1     -55.431 -26.692  -4.860 -0.43 +0.00    +0.008 A  
DOCKED: ATOM      8  C   UNL     1     -55.570 -27.525  -2.581 -0.25 +0.00    +0.010 A  
DOCKED: ATOM      9  C   UNL     1     -56.163 -27.283  -3.829 -0.40 +0.00    +0.068 A  
DOCKED: ATOM     10  N   UNL     1     -58.638 -27.941  -4.222 -1.95 -0.00    -0.191 NA 
DOCKED: ATOM     11  C   UNL     1     -57.528 -27.645  -4.046 +0.08 +0.00    +0.101 C  
DOCKED: ENDROOT
DOCKED: BRANCH   2  12
DOCKED: ATOM     12  C   UNL     1     -51.096 -27.273  -3.308 -0.06 +0.00    +0.038 C  
DOCKED: BRANCH  12  13
DOCKED: ATOM     13  C   UNL     1     -51.791 -28.628  -3.432 -0.06 +0.00    +0.038 C  
DOCKED: BRANCH  13  14
DOCKED: ATOM     14  C   UNL     1     -52.061 -28.974  -4.895 -0.05 +0.00    +0.251 C  
DOCKED: BRANCH  14  15
DOCKED: ATOM     15  N   UNL     1     -52.835 -30.206  -4.990 -0.15 +0.00    +0.141 N  
DOCKED: ATOM     16  C   UNL     1     -52.203 -31.143  -5.920 -0.10 +0.00    +0.285 C  
DOCKED: ATOM     17  C   UNL     1     -52.986 -30.823  -3.671 -0.10 +0.00    +0.285 C  
DOCKED: ENDBRANCH  14  15
DOCKED: ENDBRANCH  13  14
DOCKED: ENDBRANCH  12  13
DOCKED: ENDBRANCH   2  12
DOCKED: BRANCH   2  18
DOCKED: ATOM     18  C   UNL     1     -51.803 -25.069  -2.397 -0.16 +0.00    +0.006 A  
DOCKED: ATOM     19  C   UNL     1     -50.525 -24.518  -2.310 -0.07 +0.00    +0.001 A  
DOCKED: ATOM     20  C   UNL     1     -50.256 -23.531  -1.361 -0.05 +0.00    +0.029 A  
DOCKED: ATOM     21  C   UNL     1     -51.264 -23.095  -0.502 -0.08 +0.00    +0.140 A  
DOCKED: ATOM     22  C   UNL     1     -52.542 -23.647  -0.590 -0.22 +0.00    +0.029 A  
DOCKED: ATOM     23  F   UNL     1     -51.006 -22.146   0.407 -0.01 -0.00    -0.204 F  
DOCKED: ATOM     24  C   UNL     1     -52.812 -24.635  -1.538 -0.27 +0.00    +0.001 A  
DOCKED: ENDBRANCH   2  18
DOCKED: TORSDOF 5
DOCKED: TER
DOCKED: ENDMDL
________________________________________________________________________________


    FINAL DOCKED STATE:
    ________________________


Run:   373 / 512
Time taken for this run:   0.002s

DOCKED: MODEL        373
DOCKED: USER    Run = 373
DOCKED: USER
DOCKED: USER    Estimated Free Energy of Binding    =  -4.00 kcal/mol  [=(1)+(2)+(3)-(4)]
DOCKED: USER
DOCKED: USER    (1) Final Intermolecular Energy     =  -5.49 kcal/mol
DOCKED: USER        vdW + Hbond + desolv Energy     =  -5.49 kcal/mol
DOCKED: USER        Electrostatic Energy            =  +0.00 kcal/mol
DOCKED: USER        Moving Ligand-Fixed Receptor    =  -5.49 kcal/mol
DOCKED: USER        Moving Ligand-Moving Receptor   =  +0.00 kcal/mol
DOCKED: USER    (2) Final Total Internal Energy     =  -1.46 kcal/mol
DOCKED: USER    (3) Torsional Free Energy           =  +1.49 kcal/mol
DOCKED: USER    (4) Unbound System's Energy         =  -1.46 kcal/mol
DOCKED: USER
DOCKED: USER
DOCKED: REMARK  5 active torsions:
DOCKED: REMARK  status: ('A' for Active; 'I' for Inactive)
DOCKED: REMARK    1  A    between atoms: C_2  and  C_19 
DOCKED: REMARK    2  A    between atoms: C_2  and  C_11 
DOCKED: REMARK    3  A    between atoms: C_19  and  C_20 
DOCKED: REMARK    4  A    between atoms: C_20  and  C_21 
DOCKED: REMARK    5  A    between atoms: C_21  and  N_22 
DOCKED: USER                              x       y       z     vdW  Elec       q    Type
DOCKED: USER                           _______ _______ _______ _____ _____    ______ ____
DOCKED: ROOT
DOCKED: ATOM      1  O   UNL     1     -55.956 -35.436   8.994 -0.03 -0.00    -0.346 OA 
DOCKED: ATOM      2  C   UNL     1     -56.759 -34.737   7.990 -0.11 +0.00    +0.130 C  
DOCKED: ATOM      3  C   UNL     1     -57.430 -35.844   7.231 -0.22 +0.00    +0.004 A  
DOCKED: ATOM      4  C   UNL     1     -57.126 -37.064   7.818 -0.22 +0.00    +0.006 A  
DOCKED: ATOM      5  C   UNL     1     -56.256 -36.851   8.997 -0.13 +0.00    +0.169 C  
DOCKED: ATOM      6  C   UNL     1     -58.253 -35.777   6.116 -0.25 -0.00    -0.001 A  
DOCKED: ATOM      7  C   UNL     1     -57.627 -38.252   7.314 -0.32 +0.00    +0.008 A  
DOCKED: ATOM      8  C   UNL     1     -58.763 -36.967   5.593 -0.31 +0.00    +0.010 A  
DOCKED: ATOM      9  C   UNL     1     -58.451 -38.198   6.189 -0.31 +0.00    +0.068 A  
DOCKED: ATOM     10  N   UNL     1     -59.417 -40.386   5.195 -2.52 -0.00    -0.191 NA 
DOCKED: ATOM     11  C   UNL     1     -58.983 -39.405   5.640 -0.33 +0.00    +0.101 C  
DOCKED: ENDROOT
DOCKED: BRANCH   2  12
DOCKED: ATOM     12  C   UNL     1     -57.747 -33.827   8.710 -0.06 +0.00    +0.038 C  
DOCKED: BRANCH  12  13
DOCKED: ATOM     13  C   UNL     1     -57.304 -33.548  10.145 -0.02 +0.00    +0.038 C  
DOCKED: BRANCH  13  14
DOCKED: ATOM     14  C   UNL     1     -55.973 -32.800  10.173 -0.00 +0.00    +0.251 C  
DOCKED: BRANCH  14  15
DOCKED: ATOM     15  N   UNL     1     -55.183 -33.212  11.327 -0.00 +0.00    +0.141 N  
DOCKED: ATOM     16  C   UNL     1     -55.695 -34.467  11.881 -0.00 +0.00    +0.285 C  
DOCKED: ATOM     17  C   UNL     1     -53.773 -33.357  10.962 -0.00 +0.00    +0.285 C  
DOCKED: ENDBRANCH  14  15
DOCKED: ENDBRANCH  13  14
DOCKED: ENDBRANCH  12  13
DOCKED: ENDBRANCH   2  12
DOCKED: BRANCH   2  18
DOCKED: ATOM     18  C   UNL     1     -55.813 -33.945   7.149 -0.14 +0.00    +0.006 A  
DOCKED: ATOM     19  C   UNL     1     -56.273 -32.837   6.439 -0.13 +0.00    +0.001 A  
DOCKED: ATOM     20  C   UNL     1     -55.387 -32.098   5.653 -0.09 +0.00    +0.029 A  
DOCKED: ATOM     21  C   UNL     1     -54.045 -32.468   5.579 -0.07 +0.00    +0.140 A  
DOCKED: ATOM     22  C   UNL     1     -53.587 -33.577   6.290 -0.10 +0.00    +0.029 A  
DOCKED: ATOM     23  F   UNL     1     -53.195 -31.757   4.826 -0.00 -0.00    -0.204 F  
DOCKED: ATOM     24  C   UNL     1     -54.471 -34.317   7.076 -0.12 +0.00    +0.001 A  
DOCKED: ENDBRANCH   2  18
DOCKED: TORSDOF 5
DOCKED: TER
DOCKED: ENDMDL
________________________________________________________________________________


    FINAL DOCKED STATE:
    ________________________


Run:   374 / 512
Time taken for this run:   0.002s

DOCKED: MODEL        374
DOCKED: USER    Run = 374
DOCKED: USER
DOCKED: USER    Estimated Free Energy of Binding    =  -5.17 kcal/mol  [=(1)+(2)+(3)-(4)]
DOCKED: USER
DOCKED: USER    (1) Final Intermolecular Energy     =  -6.66 kcal/mol
DOCKED: USER        vdW + Hbond + desolv Energy     =  -6.66 kcal/mol
DOCKED: USER        Electrostatic Energy            =  +0.00 kcal/mol
DOCKED: USER        Moving Ligand-Fixed Receptor    =  -6.66 kcal/mol
DOCKED: USER        Moving Ligand-Moving Receptor   =  +0.00 kcal/mol
DOCKED: USER    (2) Final Total Internal Energy     =  -1.05 kcal/mol
DOCKED: USER    (3) Torsional Free Energy           =  +1.49 kcal/mol
DOCKED: USER    (4) Unbound System's Energy         =  -1.05 kcal/mol
DOCKED: USER
DOCKED: USER
DOCKED: REMARK  5 active torsions:
DOCKED: REMARK  status: ('A' for Active; 'I' for Inactive)
DOCKED: REMARK    1  A    between atoms: C_2  and  C_19 
DOCKED: REMARK    2  A    between atoms: C_2  and  C_11 
DOCKED: REMARK    3  A    between atoms: C_19  and  C_20 
DOCKED: REMARK    4  A    between atoms: C_20  and  C_21 
DOCKED: REMARK    5  A    between atoms: C_21  and  N_22 
DOCKED: USER                              x       y       z     vdW  Elec       q    Type
DOCKED: USER                           _______ _______ _______ _____ _____    ______ ____
DOCKED: ROOT
DOCKED: ATOM      1  O   UNL     1     -58.282 -36.143   8.202 -0.02 -0.00    -0.346 OA 
DOCKED: ATOM      2  C   UNL     1     -57.705 -37.488   8.231 -0.17 +0.00    +0.130 C  
DOCKED: ATOM      3  C   UNL     1     -58.084 -38.070   6.900 -0.32 +0.00    +0.004 A  
DOCKED: ATOM      4  C   UNL     1     -58.724 -37.106   6.134 -0.33 +0.00    +0.006 A  
DOCKED: ATOM      5  C   UNL     1     -58.801 -35.835   6.888 -0.21 +0.00    +0.169 C  
DOCKED: ATOM      6  C   UNL     1     -57.868 -39.347   6.402 -0.30 -0.00    -0.001 A  
DOCKED: ATOM      7  C   UNL     1     -59.172 -37.384   4.854 -0.19 +0.00    +0.008 A  
DOCKED: ATOM      8  C   UNL     1     -58.319 -39.644   5.115 -0.45 +0.00    +0.010 A  
DOCKED: ATOM      9  C   UNL     1     -58.967 -38.667   4.345 -0.43 +0.00    +0.068 A  
DOCKED: ATOM     10  N   UNL     1     -59.786 -39.250   1.957 -2.36 -0.00    -0.191 NA 
DOCKED: ATOM     11  C   UNL     1     -59.419 -38.989   3.028 -0.49 +0.00    +0.101 C  
DOCKED: ENDROOT
DOCKED: BRANCH   2  12
DOCKED: ATOM     12  C   UNL     1     -56.197 -37.363   8.417 -0.24 +0.00    +0.038 C  
DOCKED: BRANCH  12  13
DOCKED: ATOM     13  C   UNL     1     -55.643 -36.151   7.670 -0.07 +0.00    +0.038 C  
DOCKED: BRANCH  13  14
DOCKED: ATOM     14  C   UNL     1     -55.673 -34.903   8.550 -0.07 +0.00    +0.251 C  
DOCKED: BRANCH  14  15
DOCKED: ATOM     15  N   UNL     1     -54.459 -34.118   8.359 -0.05 +0.00    +0.141 N  
DOCKED: ATOM     16  C   UNL     1     -54.788 -32.727   8.044 -0.02 +0.00    +0.285 C  
DOCKED: ATOM     17  C   UNL     1     -53.611 -34.182   9.550 -0.01 +0.00    +0.285 C  
DOCKED: ENDBRANCH  14  15
DOCKED: ENDBRANCH  13  14
DOCKED: ENDBRANCH  12  13
DOCKED: ENDBRANCH   2  12
DOCKED: BRANCH   2  18
DOCKED: ATOM     18  C   UNL     1     -58.331 -38.207   9.379 -0.16 +0.00    +0.006 A  
DOCKED: ATOM     19  C   UNL     1     -57.527 -38.792  10.356 -0.20 +0.00    +0.001 A  
DOCKED: ATOM     20  C   UNL     1     -58.114 -39.464  11.429 -0.20 +0.00    +0.029 A  
DOCKED: ATOM     21  C   UNL     1     -59.502 -39.549  11.524 -0.07 +0.00    +0.140 A  
DOCKED: ATOM     22  C   UNL     1     -60.305 -38.963  10.546 -0.13 +0.00    +0.029 A  
DOCKED: ATOM     23  F   UNL     1     -60.065 -40.193  12.555 -0.04 -0.00    -0.204 F  
DOCKED: ATOM     24  C   UNL     1     -59.720 -38.291   9.472 -0.14 +0.00    +0.001 A  
DOCKED: ENDBRANCH   2  18
DOCKED: TORSDOF 5
DOCKED: TER
DOCKED: ENDMDL
________________________________________________________________________________


    FINAL DOCKED STATE:
    ________________________


Run:   375 / 512
Time taken for this run:   0.002s

DOCKED: MODEL        375
DOCKED: USER    Run = 375
DOCKED: USER
DOCKED: USER    Estimated Free Energy of Binding    =  -3.38 kcal/mol  [=(1)+(2)+(3)-(4)]
DOCKED: USER
DOCKED: USER    (1) Final Intermolecular Energy     =  -4.87 kcal/mol
DOCKED: USER        vdW + Hbond + desolv Energy     =  -4.87 kcal/mol
DOCKED: USER        Electrostatic Energy            =  +0.00 kcal/mol
DOCKED: USER        Moving Ligand-Fixed Receptor    =  -4.87 kcal/mol
DOCKED: USER        Moving Ligand-Moving Receptor   =  +0.00 kcal/mol
DOCKED: USER    (2) Final Total Internal Energy     =  -1.55 kcal/mol
DOCKED: USER    (3) Torsional Free Energy           =  +1.49 kcal/mol
DOCKED: USER    (4) Unbound System's Energy         =  -1.55 kcal/mol
DOCKED: USER
DOCKED: USER
DOCKED: REMARK  5 active torsions:
DOCKED: REMARK  status: ('A' for Active; 'I' for Inactive)
DOCKED: REMARK    1  A    between atoms: C_2  and  C_19 
DOCKED: REMARK    2  A    between atoms: C_2  and  C_11 
DOCKED: REMARK    3  A    between atoms: C_19  and  C_20 
DOCKED: REMARK    4  A    between atoms: C_20  and  C_21 
DOCKED: REMARK    5  A    between atoms: C_21  and  N_22 
DOCKED: USER                              x       y       z     vdW  Elec       q    Type
DOCKED: USER                           _______ _______ _______ _____ _____    ______ ____
DOCKED: ROOT
DOCKED: ATOM      1  O   UNL     1     -51.468 -25.019  -2.016 -0.06 -0.00    -0.346 OA 
DOCKED: ATOM      2  C   UNL     1     -51.201 -25.685  -3.292 -0.08 +0.00    +0.130 C  
DOCKED: ATOM      3  C   UNL     1     -52.542 -26.218  -3.707 -0.17 +0.00    +0.004 A  
DOCKED: ATOM      4  C   UNL     1     -53.510 -25.799  -2.805 -0.20 +0.00    +0.006 A  
DOCKED: ATOM      5  C   UNL     1     -52.890 -24.962  -1.754 -0.23 +0.00    +0.169 C  
DOCKED: ATOM      6  C   UNL     1     -52.880 -27.001  -4.801 -0.18 -0.00    -0.001 A  
DOCKED: ATOM      7  C   UNL     1     -54.841 -26.150  -2.962 -0.25 +0.00    +0.008 A  
DOCKED: ATOM      8  C   UNL     1     -54.216 -27.367  -4.970 -0.31 +0.00    +0.010 A  
DOCKED: ATOM      9  C   UNL     1     -55.191 -26.943  -4.055 -0.39 +0.00    +0.068 A  
DOCKED: ATOM     10  N   UNL     1     -57.664 -27.635  -4.402 -2.39 -0.00    -0.191 NA 
DOCKED: ATOM     11  C   UNL     1     -56.555 -27.325  -4.246 -0.28 +0.00    +0.101 C  
DOCKED: ENDROOT
DOCKED: BRANCH   2  12
DOCKED: ATOM     12  C   UNL     1     -50.645 -24.654  -4.267 -0.12 +0.00    +0.038 C  
DOCKED: BRANCH  12  13
DOCKED: ATOM     13  C   UNL     1     -50.139 -23.412  -3.537 -0.10 +0.00    +0.038 C  
DOCKED: BRANCH  13  14
DOCKED: ATOM     14  C   UNL     1     -48.784 -23.673  -2.883 -0.00 +0.00    +0.251 C  
DOCKED: BRANCH  14  15
DOCKED: ATOM     15  N   UNL     1     -48.954 -23.988  -1.470 -0.01 +0.00    +0.141 N  
DOCKED: ATOM     16  C   UNL     1     -47.655 -24.127  -0.811 +0.00 +0.00    +0.285 C  
DOCKED: ATOM     17  C   UNL     1     -49.753 -22.958  -0.804 -0.01 +0.00    +0.285 C  
DOCKED: ENDBRANCH  14  15
DOCKED: ENDBRANCH  13  14
DOCKED: ENDBRANCH  12  13
DOCKED: ENDBRANCH   2  12
DOCKED: BRANCH   2  18
DOCKED: ATOM     18  C   UNL     1     -50.205 -26.763  -3.021 -0.03 +0.00    +0.006 A  
DOCKED: ATOM     19  C   UNL     1     -50.037 -27.246  -1.724 -0.03 +0.00    +0.001 A  
DOCKED: ATOM     20  C   UNL     1     -49.105 -28.253  -1.472 -0.01 +0.00    +0.029 A  
DOCKED: ATOM     21  C   UNL     1     -48.344 -28.776  -2.516 -0.00 +0.00    +0.140 A  
DOCKED: ATOM     22  C   UNL     1     -48.513 -28.293  -3.813 -0.00 +0.00    +0.029 A  
DOCKED: ATOM     23  F   UNL     1     -47.451 -29.745  -2.274 +0.00 -0.00    -0.204 F  
DOCKED: ATOM     24  C   UNL     1     -49.445 -27.284  -4.066 -0.01 +0.00    +0.001 A  
DOCKED: ENDBRANCH   2  18
DOCKED: TORSDOF 5
DOCKED: TER
DOCKED: ENDMDL
________________________________________________________________________________


    FINAL DOCKED STATE:
    ________________________


Run:   376 / 512
Time taken for this run:   0.002s

DOCKED: MODEL        376
DOCKED: USER    Run = 376
DOCKED: USER
DOCKED: USER    Estimated Free Energy of Binding    =  -4.23 kcal/mol  [=(1)+(2)+(3)-(4)]
DOCKED: USER
DOCKED: USER    (1) Final Intermolecular Energy     =  -5.72 kcal/mol
DOCKED: USER        vdW + Hbond + desolv Energy     =  -5.72 kcal/mol
DOCKED: USER        Electrostatic Energy            =  +0.00 kcal/mol
DOCKED: USER        Moving Ligand-Fixed Receptor    =  -5.72 kcal/mol
DOCKED: USER        Moving Ligand-Moving Receptor   =  +0.00 kcal/mol
DOCKED: USER    (2) Final Total Internal Energy     =  -1.12 kcal/mol
DOCKED: USER    (3) Torsional Free Energy           =  +1.49 kcal/mol
DOCKED: USER    (4) Unbound System's Energy         =  -1.12 kcal/mol
DOCKED: USER
DOCKED: USER
DOCKED: REMARK  5 active torsions:
DOCKED: REMARK  status: ('A' for Active; 'I' for Inactive)
DOCKED: REMARK    1  A    between atoms: C_2  and  C_19 
DOCKED: REMARK    2  A    between atoms: C_2  and  C_11 
DOCKED: REMARK    3  A    between atoms: C_19  and  C_20 
DOCKED: REMARK    4  A    between atoms: C_20  and  C_21 
DOCKED: REMARK    5  A    between atoms: C_21  and  N_22 
DOCKED: USER                              x       y       z     vdW  Elec       q    Type
DOCKED: USER                           _______ _______ _______ _____ _____    ______ ____
DOCKED: ROOT
DOCKED: ATOM      1  O   UNL     1     -56.403 -34.383   8.102 -0.03 -0.00    -0.346 OA 
DOCKED: ATOM      2  C   UNL     1     -55.642 -35.579   8.467 -0.12 +0.00    +0.130 C  
DOCKED: ATOM      3  C   UNL     1     -56.435 -36.705   7.869 -0.21 +0.00    +0.004 A  
DOCKED: ATOM      4  C   UNL     1     -57.495 -36.192   7.134 -0.24 +0.00    +0.006 A  
DOCKED: ATOM      5  C   UNL     1     -57.470 -34.713   7.183 -0.17 +0.00    +0.169 C  
DOCKED: ATOM      6  C   UNL     1     -56.229 -38.074   7.960 -0.25 -0.00    -0.001 A  
DOCKED: ATOM      7  C   UNL     1     -58.382 -37.023   6.472 -0.31 +0.00    +0.008 A  
DOCKED: ATOM      8  C   UNL     1     -57.117 -38.926   7.301 -0.37 +0.00    +0.010 A  
DOCKED: ATOM      9  C   UNL     1     -58.188 -38.403   6.561 -0.31 +0.00    +0.068 A  
DOCKED: ATOM     10  N   UNL     1     -59.815 -40.011   5.346 -2.54 -0.00    -0.191 NA 
DOCKED: ATOM     11  C   UNL     1     -59.086 -39.290   5.891 -0.31 +0.00    +0.101 C  
DOCKED: ENDROOT
DOCKED: BRANCH   2  12
DOCKED: ATOM     12  C   UNL     1     -54.243 -35.459   7.875 -0.10 +0.00    +0.038 C  
DOCKED: BRANCH  12  13
DOCKED: ATOM     13  C   UNL     1     -53.193 -36.073   8.799 -0.12 +0.00    +0.038 C  
DOCKED: BRANCH  13  14
DOCKED: ATOM     14  C   UNL     1     -52.419 -37.183   8.091 -0.11 +0.00    +0.251 C  
DOCKED: BRANCH  14  15
DOCKED: ATOM     15  N   UNL     1     -52.478 -38.417   8.866 -0.15 +0.00    +0.141 N  
DOCKED: ATOM     16  C   UNL     1     -51.204 -39.134   8.793 -0.12 +0.00    +0.285 C  
DOCKED: ATOM     17  C   UNL     1     -52.822 -38.134  10.261 -0.06 +0.00    +0.285 C  
DOCKED: ENDBRANCH  14  15
DOCKED: ENDBRANCH  13  14
DOCKED: ENDBRANCH  12  13
DOCKED: ENDBRANCH   2  12
DOCKED: BRANCH   2  18
DOCKED: ATOM     18  C   UNL     1     -55.594 -35.628   9.957 -0.05 +0.00    +0.006 A  
DOCKED: ATOM     19  C   UNL     1     -55.941 -36.801  10.627 -0.08 +0.00    +0.001 A  
DOCKED: ATOM     20  C   UNL     1     -55.896 -36.845  12.021 -0.04 +0.00    +0.029 A  
DOCKED: ATOM     21  C   UNL     1     -55.504 -35.718  12.743 -0.01 +0.00    +0.140 A  
DOCKED: ATOM     22  C   UNL     1     -55.157 -34.546  12.072 -0.00 +0.00    +0.029 A  
DOCKED: ATOM     23  F   UNL     1     -55.459 -35.762  14.080 +0.00 -0.00    -0.204 F  
DOCKED: ATOM     24  C   UNL     1     -55.203 -34.500  10.677 -0.01 +0.00    +0.001 A  
DOCKED: ENDBRANCH   2  18
DOCKED: TORSDOF 5
DOCKED: TER
DOCKED: ENDMDL
________________________________________________________________________________


    FINAL DOCKED STATE:
    ________________________


Run:   377 / 512
Time taken for this run:   0.002s

DOCKED: MODEL        377
DOCKED: USER    Run = 377
DOCKED: USER
DOCKED: USER    Estimated Free Energy of Binding    =  -5.77 kcal/mol  [=(1)+(2)+(3)-(4)]
DOCKED: USER
DOCKED: USER    (1) Final Intermolecular Energy     =  -7.26 kcal/mol
DOCKED: USER        vdW + Hbond + desolv Energy     =  -7.26 kcal/mol
DOCKED: USER        Electrostatic Energy            =  +0.00 kcal/mol
DOCKED: USER        Moving Ligand-Fixed Receptor    =  -7.26 kcal/mol
DOCKED: USER        Moving Ligand-Moving Receptor   =  +0.00 kcal/mol
DOCKED: USER    (2) Final Total Internal Energy     =  -1.08 kcal/mol
DOCKED: USER    (3) Torsional Free Energy           =  +1.49 kcal/mol
DOCKED: USER    (4) Unbound System's Energy         =  -1.08 kcal/mol
DOCKED: USER
DOCKED: USER
DOCKED: REMARK  5 active torsions:
DOCKED: REMARK  status: ('A' for Active; 'I' for Inactive)
DOCKED: REMARK    1  A    between atoms: C_2  and  C_19 
DOCKED: REMARK    2  A    between atoms: C_2  and  C_11 
DOCKED: REMARK    3  A    between atoms: C_19  and  C_20 
DOCKED: REMARK    4  A    between atoms: C_20  and  C_21 
DOCKED: REMARK    5  A    between atoms: C_21  and  N_22 
DOCKED: USER                              x       y       z     vdW  Elec       q    Type
DOCKED: USER                           _______ _______ _______ _____ _____    ______ ____
DOCKED: ROOT
DOCKED: ATOM      1  O   UNL     1     -57.846 -39.105   8.091 -0.28 -0.00    -0.346 OA 
DOCKED: ATOM      2  C   UNL     1     -59.203 -38.559   8.050 -0.18 +0.00    +0.130 C  
DOCKED: ATOM      3  C   UNL     1     -59.534 -38.530   6.585 -0.28 +0.00    +0.004 A  
DOCKED: ATOM      4  C   UNL     1     -58.502 -39.111   5.862 -0.40 +0.00    +0.006 A  
DOCKED: ATOM      5  C   UNL     1     -57.439 -39.569   6.783 -0.26 +0.00    +0.169 C  
DOCKED: ATOM      6  C   UNL     1     -60.663 -38.040   5.946 -0.30 -0.00    -0.001 A  
DOCKED: ATOM      7  C   UNL     1     -58.560 -39.217   4.483 -0.49 +0.00    +0.008 A  
DOCKED: ATOM      8  C   UNL     1     -60.735 -38.135   4.555 -0.20 +0.00    +0.010 A  
DOCKED: ATOM      9  C   UNL     1     -59.688 -38.722   3.828 -0.41 +0.00    +0.068 A  
DOCKED: ATOM     10  N   UNL     1     -59.855 -38.888   1.247 -3.09 -0.00    -0.191 NA 
DOCKED: ATOM     11  C   UNL     1     -59.780 -38.813   2.405 -0.28 +0.00    +0.101 C  
DOCKED: ENDROOT
DOCKED: BRANCH   2  12
DOCKED: ATOM     12  C   UNL     1     -60.119 -39.480   8.847 -0.25 +0.00    +0.038 C  
DOCKED: BRANCH  12  13
DOCKED: ATOM     13  C   UNL     1     -59.739 -39.499  10.326 -0.08 +0.00    +0.038 C  
DOCKED: BRANCH  13  14
DOCKED: ATOM     14  C   UNL     1     -60.913 -39.959  11.189 -0.03 +0.00    +0.251 C  
DOCKED: BRANCH  14  15
DOCKED: ATOM     15  N   UNL     1     -60.644 -39.690  12.597 -0.13 +0.00    +0.141 N  
DOCKED: ATOM     16  C   UNL     1     -60.738 -40.920  13.385 -0.18 +0.00    +0.285 C  
DOCKED: ATOM     17  C   UNL     1     -59.323 -39.081  12.762 -0.06 +0.00    +0.285 C  
DOCKED: ENDBRANCH  14  15
DOCKED: ENDBRANCH  13  14
DOCKED: ENDBRANCH  12  13
DOCKED: ENDBRANCH   2  12
DOCKED: BRANCH   2  18
DOCKED: ATOM     18  C   UNL     1     -59.145 -37.198   8.660 -0.11 +0.00    +0.006 A  
DOCKED: ATOM     19  C   UNL     1     -57.920 -36.665   9.057 -0.09 +0.00    +0.001 A  
DOCKED: ATOM     20  C   UNL     1     -57.867 -35.393   9.628 -0.04 +0.00    +0.029 A  
DOCKED: ATOM     21  C   UNL     1     -59.038 -34.656   9.799 -0.01 +0.00    +0.140 A  
DOCKED: ATOM     22  C   UNL     1     -60.263 -35.190   9.401 -0.04 +0.00    +0.029 A  
DOCKED: ATOM     23  F   UNL     1     -58.987 -33.434  10.345 +0.00 -0.00    -0.204 F  
DOCKED: ATOM     24  C   UNL     1     -60.317 -36.463   8.831 -0.08 +0.00    +0.001 A  
DOCKED: ENDBRANCH   2  18
DOCKED: TORSDOF 5
DOCKED: TER
DOCKED: ENDMDL
________________________________________________________________________________


    FINAL DOCKED STATE:
    ________________________


Run:   378 / 512
Time taken for this run:   0.002s

DOCKED: MODEL        378
DOCKED: USER    Run = 378
DOCKED: USER
DOCKED: USER    Estimated Free Energy of Binding    =  -5.23 kcal/mol  [=(1)+(2)+(3)-(4)]
DOCKED: USER
DOCKED: USER    (1) Final Intermolecular Energy     =  -6.72 kcal/mol
DOCKED: USER        vdW + Hbond + desolv Energy     =  -6.72 kcal/mol
DOCKED: USER        Electrostatic Energy            =  +0.00 kcal/mol
DOCKED: USER        Moving Ligand-Fixed Receptor    =  -6.72 kcal/mol
DOCKED: USER        Moving Ligand-Moving Receptor   =  +0.00 kcal/mol
DOCKED: USER    (2) Final Total Internal Energy     =  -1.18 kcal/mol
DOCKED: USER    (3) Torsional Free Energy           =  +1.49 kcal/mol
DOCKED: USER    (4) Unbound System's Energy         =  -1.18 kcal/mol
DOCKED: USER
DOCKED: USER
DOCKED: REMARK  5 active torsions:
DOCKED: REMARK  status: ('A' for Active; 'I' for Inactive)
DOCKED: REMARK    1  A    between atoms: C_2  and  C_19 
DOCKED: REMARK    2  A    between atoms: C_2  and  C_11 
DOCKED: REMARK    3  A    between atoms: C_19  and  C_20 
DOCKED: REMARK    4  A    between atoms: C_20  and  C_21 
DOCKED: REMARK    5  A    between atoms: C_21  and  N_22 
DOCKED: USER                              x       y       z     vdW  Elec       q    Type
DOCKED: USER                           _______ _______ _______ _____ _____    ______ ____
DOCKED: ROOT
DOCKED: ATOM      1  O   UNL     1     -58.484 -36.078   8.115 -0.02 -0.00    -0.346 OA 
DOCKED: ATOM      2  C   UNL     1     -57.764 -37.352   8.115 -0.17 +0.00    +0.130 C  
DOCKED: ATOM      3  C   UNL     1     -58.111 -37.961   6.787 -0.32 +0.00    +0.004 A  
DOCKED: ATOM      4  C   UNL     1     -58.872 -37.067   6.048 -0.32 +0.00    +0.006 A  
DOCKED: ATOM      5  C   UNL     1     -59.068 -35.818   6.817 -0.20 +0.00    +0.169 C  
DOCKED: ATOM      6  C   UNL     1     -57.772 -39.203   6.271 -0.41 -0.00    -0.001 A  
DOCKED: ATOM      7  C   UNL     1     -59.321 -37.382   4.776 -0.05 +0.00    +0.008 A  
DOCKED: ATOM      8  C   UNL     1     -58.220 -39.537   4.992 -0.43 +0.00    +0.010 A  
DOCKED: ATOM      9  C   UNL     1     -58.990 -38.631   4.248 -0.44 +0.00    +0.068 A  
DOCKED: ATOM     10  N   UNL     1     -59.803 -39.280   1.875 -2.39 -0.00    -0.191 NA 
DOCKED: ATOM     11  C   UNL     1     -59.439 -38.989   2.940 -0.46 +0.00    +0.101 C  
DOCKED: ENDROOT
DOCKED: BRANCH   2  12
DOCKED: ATOM     12  C   UNL     1     -56.275 -37.065   8.264 -0.23 +0.00    +0.038 C  
DOCKED: BRANCH  12  13
DOCKED: ATOM     13  C   UNL     1     -56.005 -35.566   8.376 -0.14 +0.00    +0.038 C  
DOCKED: BRANCH  13  14
DOCKED: ATOM     14  C   UNL     1     -55.068 -35.092   7.267 +0.01 +0.00    +0.251 C  
DOCKED: BRANCH  14  15
DOCKED: ATOM     15  N   UNL     1     -55.296 -33.680   6.980 -0.10 +0.00    +0.141 N  
DOCKED: ATOM     16  C   UNL     1     -56.571 -33.237   7.545 -0.06 +0.00    +0.285 C  
DOCKED: ATOM     17  C   UNL     1     -54.198 -32.865   7.504 -0.03 +0.00    +0.285 C  
DOCKED: ENDBRANCH  14  15
DOCKED: ENDBRANCH  13  14
DOCKED: ENDBRANCH  12  13
DOCKED: ENDBRANCH   2  12
DOCKED: BRANCH   2  18
DOCKED: ATOM     18  C   UNL     1     -58.278 -38.144   9.270 -0.16 +0.00    +0.006 A  
DOCKED: ATOM     19  C   UNL     1     -59.651 -38.319   9.439 -0.14 +0.00    +0.001 A  
DOCKED: ATOM     20  C   UNL     1     -60.131 -39.059  10.520 -0.14 +0.00    +0.029 A  
DOCKED: ATOM     21  C   UNL     1     -59.238 -39.624  11.430 -0.06 +0.00    +0.140 A  
DOCKED: ATOM     22  C   UNL     1     -57.865 -39.449  11.260 -0.21 +0.00    +0.029 A  
DOCKED: ATOM     23  F   UNL     1     -59.698 -40.336  12.466 -0.04 -0.00    -0.204 F  
DOCKED: ATOM     24  C   UNL     1     -57.384 -38.708  10.179 -0.18 +0.00    +0.001 A  
DOCKED: ENDBRANCH   2  18
DOCKED: TORSDOF 5
DOCKED: TER
DOCKED: ENDMDL
________________________________________________________________________________


    FINAL DOCKED STATE:
    ________________________


Run:   379 / 512
Time taken for this run:   0.002s

DOCKED: MODEL        379
DOCKED: USER    Run = 379
DOCKED: USER
DOCKED: USER    Estimated Free Energy of Binding    =  -3.59 kcal/mol  [=(1)+(2)+(3)-(4)]
DOCKED: USER
DOCKED: USER    (1) Final Intermolecular Energy     =  -5.08 kcal/mol
DOCKED: USER        vdW + Hbond + desolv Energy     =  -5.08 kcal/mol
DOCKED: USER        Electrostatic Energy            =  +0.00 kcal/mol
DOCKED: USER        Moving Ligand-Fixed Receptor    =  -5.08 kcal/mol
DOCKED: USER        Moving Ligand-Moving Receptor   =  +0.00 kcal/mol
DOCKED: USER    (2) Final Total Internal Energy     =  -1.13 kcal/mol
DOCKED: USER    (3) Torsional Free Energy           =  +1.49 kcal/mol
DOCKED: USER    (4) Unbound System's Energy         =  -1.13 kcal/mol
DOCKED: USER
DOCKED: USER
DOCKED: REMARK  5 active torsions:
DOCKED: REMARK  status: ('A' for Active; 'I' for Inactive)
DOCKED: REMARK    1  A    between atoms: C_2  and  C_19 
DOCKED: REMARK    2  A    between atoms: C_2  and  C_11 
DOCKED: REMARK    3  A    between atoms: C_19  and  C_20 
DOCKED: REMARK    4  A    between atoms: C_20  and  C_21 
DOCKED: REMARK    5  A    between atoms: C_21  and  N_22 
DOCKED: USER                              x       y       z     vdW  Elec       q    Type
DOCKED: USER                           _______ _______ _______ _____ _____    ______ ____
DOCKED: ROOT
DOCKED: ATOM      1  O   UNL     1     -55.261 -36.680   9.756 -0.05 -0.00    -0.346 OA 
DOCKED: ATOM      2  C   UNL     1     -55.870 -35.665   8.897 -0.10 +0.00    +0.130 C  
DOCKED: ATOM      3  C   UNL     1     -56.777 -36.452   7.996 -0.19 +0.00    +0.004 A  
DOCKED: ATOM      4  C   UNL     1     -56.772 -37.786   8.379 -0.23 +0.00    +0.006 A  
DOCKED: ATOM      5  C   UNL     1     -55.885 -37.969   9.550 +0.08 +0.00    +0.169 C  
DOCKED: ATOM      6  C   UNL     1     -57.554 -36.021   6.931 -0.26 -0.00    -0.001 A  
DOCKED: ATOM      7  C   UNL     1     -57.534 -38.730   7.713 -0.32 +0.00    +0.008 A  
DOCKED: ATOM      8  C   UNL     1     -58.324 -36.962   6.245 -0.32 +0.00    +0.010 A  
DOCKED: ATOM      9  C   UNL     1     -58.315 -38.310   6.635 -0.29 +0.00    +0.068 A  
DOCKED: ATOM     10  N   UNL     1     -59.761 -40.029   5.345 -2.56 -0.00    -0.191 NA 
DOCKED: ATOM     11  C   UNL     1     -59.112 -39.258   5.923 -0.33 +0.00    +0.101 C  
DOCKED: ENDROOT
DOCKED: BRANCH   2  12
DOCKED: ATOM     12  C   UNL     1     -56.623 -34.675   9.778 -0.03 +0.00    +0.038 C  
DOCKED: BRANCH  12  13
DOCKED: ATOM     13  C   UNL     1     -55.947 -34.514  11.138 -0.01 +0.00    +0.038 C  
DOCKED: BRANCH  13  14
DOCKED: ATOM     14  C   UNL     1     -56.521 -33.321  11.900 -0.00 +0.00    +0.251 C  
DOCKED: BRANCH  14  15
DOCKED: ATOM     15  N   UNL     1     -56.930 -32.275  10.970 -0.00 +0.00    +0.141 N  
DOCKED: ATOM     16  C   UNL     1     -58.200 -31.680  11.389 +0.00 +0.00    +0.285 C  
DOCKED: ATOM     17  C   UNL     1     -55.897 -31.244  10.866 -0.00 +0.00    +0.285 C  
DOCKED: ENDBRANCH  14  15
DOCKED: ENDBRANCH  13  14
DOCKED: ENDBRANCH  12  13
DOCKED: ENDBRANCH   2  12
DOCKED: BRANCH   2  18
DOCKED: ATOM     18  C   UNL     1     -54.759 -34.993   8.160 -0.11 +0.00    +0.006 A  
DOCKED: ATOM     19  C   UNL     1     -53.624 -35.718   7.800 -0.05 +0.00    +0.001 A  
DOCKED: ATOM     20  C   UNL     1     -52.586 -35.089   7.112 -0.10 +0.00    +0.029 A  
DOCKED: ATOM     21  C   UNL     1     -52.685 -33.738   6.784 -0.06 +0.00    +0.140 A  
DOCKED: ATOM     22  C   UNL     1     -53.821 -33.014   7.144 -0.06 +0.00    +0.029 A  
DOCKED: ATOM     23  F   UNL     1     -51.689 -33.135   6.122 -0.00 -0.00    -0.204 F  
DOCKED: ATOM     24  C   UNL     1     -54.859 -33.642   7.833 -0.08 +0.00    +0.001 A  
DOCKED: ENDBRANCH   2  18
DOCKED: TORSDOF 5
DOCKED: TER
DOCKED: ENDMDL
________________________________________________________________________________


    FINAL DOCKED STATE:
    ________________________


Run:   380 / 512
Time taken for this run:   0.002s

DOCKED: MODEL        380
DOCKED: USER    Run = 380
DOCKED: USER
DOCKED: USER    Estimated Free Energy of Binding    =  -5.02 kcal/mol  [=(1)+(2)+(3)-(4)]
DOCKED: USER
DOCKED: USER    (1) Final Intermolecular Energy     =  -6.51 kcal/mol
DOCKED: USER        vdW + Hbond + desolv Energy     =  -6.51 kcal/mol
DOCKED: USER        Electrostatic Energy            =  +0.00 kcal/mol
DOCKED: USER        Moving Ligand-Fixed Receptor    =  -6.51 kcal/mol
DOCKED: USER        Moving Ligand-Moving Receptor   =  +0.00 kcal/mol
DOCKED: USER    (2) Final Total Internal Energy     =  -1.18 kcal/mol
DOCKED: USER    (3) Torsional Free Energy           =  +1.49 kcal/mol
DOCKED: USER    (4) Unbound System's Energy         =  -1.18 kcal/mol
DOCKED: USER
DOCKED: USER
DOCKED: REMARK  5 active torsions:
DOCKED: REMARK  status: ('A' for Active; 'I' for Inactive)
DOCKED: REMARK    1  A    between atoms: C_2  and  C_19 
DOCKED: REMARK    2  A    between atoms: C_2  and  C_11 
DOCKED: REMARK    3  A    between atoms: C_19  and  C_20 
DOCKED: REMARK    4  A    between atoms: C_20  and  C_21 
DOCKED: REMARK    5  A    between atoms: C_21  and  N_22 
DOCKED: USER                              x       y       z     vdW  Elec       q    Type
DOCKED: USER                           _______ _______ _______ _____ _____    ______ ____
DOCKED: ROOT
DOCKED: ATOM      1  O   UNL     1     -58.657 -36.127   8.515 -0.01 -0.00    -0.346 OA 
DOCKED: ATOM      2  C   UNL     1     -57.803 -37.313   8.449 -0.14 +0.00    +0.130 C  
DOCKED: ATOM      3  C   UNL     1     -58.113 -37.905   7.104 -0.29 +0.00    +0.004 A  
DOCKED: ATOM      4  C   UNL     1     -58.984 -37.072   6.417 -0.29 +0.00    +0.006 A  
DOCKED: ATOM      5  C   UNL     1     -59.296 -35.882   7.240 -0.17 +0.00    +0.169 C  
DOCKED: ATOM      6  C   UNL     1     -57.652 -39.081   6.531 -0.41 -0.00    -0.001 A  
DOCKED: ATOM      7  C   UNL     1     -59.426 -37.385   5.143 -0.19 +0.00    +0.008 A  
DOCKED: ATOM      8  C   UNL     1     -58.091 -39.413   5.249 -0.42 +0.00    +0.010 A  
DOCKED: ATOM      9  C   UNL     1     -58.974 -38.569   4.558 -0.42 +0.00    +0.068 A  
DOCKED: ATOM     10  N   UNL     1     -59.766 -39.213   2.177 -2.17 -0.00    -0.191 NA 
DOCKED: ATOM     11  C   UNL     1     -59.411 -38.924   3.245 -0.52 +0.00    +0.101 C  
DOCKED: ENDROOT
DOCKED: BRANCH   2  12
DOCKED: ATOM     12  C   UNL     1     -56.350 -36.869   8.581 -0.20 +0.00    +0.038 C  
DOCKED: BRANCH  12  13
DOCKED: ATOM     13  C   UNL     1     -55.994 -35.811   7.539 -0.15 +0.00    +0.038 C  
DOCKED: BRANCH  13  14
DOCKED: ATOM     14  C   UNL     1     -56.303 -34.407   8.054 -0.08 +0.00    +0.251 C  
DOCKED: BRANCH  14  15
DOCKED: ATOM     15  N   UNL     1     -55.801 -33.403   7.123 -0.09 +0.00    +0.141 N  
DOCKED: ATOM     16  C   UNL     1     -56.015 -33.828   5.739 -0.06 +0.00    +0.285 C  
DOCKED: ATOM     17  C   UNL     1     -56.444 -32.110   7.362 -0.04 +0.00    +0.285 C  
DOCKED: ENDBRANCH  14  15
DOCKED: ENDBRANCH  13  14
DOCKED: ENDBRANCH  12  13
DOCKED: ENDBRANCH   2  12
DOCKED: BRANCH   2  18
DOCKED: ATOM     18  C   UNL     1     -58.200 -38.200   9.581 -0.16 +0.00    +0.006 A  
DOCKED: ATOM     19  C   UNL     1     -57.225 -38.733  10.423 -0.18 +0.00    +0.001 A  
DOCKED: ATOM     20  C   UNL     1     -57.598 -39.563  11.481 -0.23 +0.00    +0.029 A  
DOCKED: ATOM     21  C   UNL     1     -58.943 -39.858  11.696 +0.00 +0.00    +0.140 A  
DOCKED: ATOM     22  C   UNL     1     -59.918 -39.324  10.853 -0.12 +0.00    +0.029 A  
DOCKED: ATOM     23  F   UNL     1     -59.301 -40.653  12.712 -0.04 -0.00    -0.204 F  
DOCKED: ATOM     24  C   UNL     1     -59.546 -38.494   9.794 -0.15 +0.00    +0.001 A  
DOCKED: ENDBRANCH   2  18
DOCKED: TORSDOF 5
DOCKED: TER
DOCKED: ENDMDL
________________________________________________________________________________


    FINAL DOCKED STATE:
    ________________________


Run:   381 / 512
Time taken for this run:   0.002s

DOCKED: MODEL        381
DOCKED: USER    Run = 381
DOCKED: USER
DOCKED: USER    Estimated Free Energy of Binding    =  -3.43 kcal/mol  [=(1)+(2)+(3)-(4)]
DOCKED: USER
DOCKED: USER    (1) Final Intermolecular Energy     =  -4.92 kcal/mol
DOCKED: USER        vdW + Hbond + desolv Energy     =  -4.92 kcal/mol
DOCKED: USER        Electrostatic Energy            =  +0.00 kcal/mol
DOCKED: USER        Moving Ligand-Fixed Receptor    =  -4.92 kcal/mol
DOCKED: USER        Moving Ligand-Moving Receptor   =  +0.00 kcal/mol
DOCKED: USER    (2) Final Total Internal Energy     =  -1.50 kcal/mol
DOCKED: USER    (3) Torsional Free Energy           =  +1.49 kcal/mol
DOCKED: USER    (4) Unbound System's Energy         =  -1.50 kcal/mol
DOCKED: USER
DOCKED: USER
DOCKED: REMARK  5 active torsions:
DOCKED: REMARK  status: ('A' for Active; 'I' for Inactive)
DOCKED: REMARK    1  A    between atoms: C_2  and  C_19 
DOCKED: REMARK    2  A    between atoms: C_2  and  C_11 
DOCKED: REMARK    3  A    between atoms: C_19  and  C_20 
DOCKED: REMARK    4  A    between atoms: C_20  and  C_21 
DOCKED: REMARK    5  A    between atoms: C_21  and  N_22 
DOCKED: USER                              x       y       z     vdW  Elec       q    Type
DOCKED: USER                           _______ _______ _______ _____ _____    ______ ____
DOCKED: ROOT
DOCKED: ATOM      1  O   UNL     1     -50.484 -25.600  -3.480 -0.01 -0.00    -0.346 OA 
DOCKED: ATOM      2  C   UNL     1     -50.835 -26.728  -2.617 -0.04 +0.00    +0.130 C  
DOCKED: ATOM      3  C   UNL     1     -52.277 -26.994  -2.941 -0.12 +0.00    +0.004 A  
DOCKED: ATOM      4  C   UNL     1     -52.684 -26.165  -3.976 -0.18 +0.00    +0.006 A  
DOCKED: ATOM      5  C   UNL     1     -51.553 -25.314  -4.412 -0.11 +0.00    +0.169 C  
DOCKED: ATOM      6  C   UNL     1     -53.155 -27.905  -2.372 -0.16 -0.00    -0.001 A  
DOCKED: ATOM      7  C   UNL     1     -53.975 -26.213  -4.474 -0.26 +0.00    +0.008 A  
DOCKED: ATOM      8  C   UNL     1     -54.462 -27.963  -2.860 -0.28 +0.00    +0.010 A  
DOCKED: ATOM      9  C   UNL     1     -54.869 -27.121  -3.905 -0.35 +0.00    +0.068 A  
DOCKED: ATOM     10  N   UNL     1     -57.301 -27.257  -4.790 -2.48 -0.00    -0.191 NA 
DOCKED: ATOM     11  C   UNL     1     -56.210 -27.196  -4.393 -0.40 +0.00    +0.101 C  
DOCKED: ENDROOT
DOCKED: BRANCH   2  12
DOCKED: ATOM     12  C   UNL     1     -49.924 -27.901  -2.961 -0.02 +0.00    +0.038 C  
DOCKED: BRANCH  12  13
DOCKED: ATOM     13  C   UNL     1     -48.975 -27.551  -4.106 -0.01 +0.00    +0.038 C  
DOCKED: BRANCH  13  14
DOCKED: ATOM     14  C   UNL     1     -47.595 -27.164  -3.578 +0.00 +0.00    +0.251 C  
DOCKED: BRANCH  14  15
DOCKED: ATOM     15  N   UNL     1     -47.612 -25.797  -3.072 -0.00 +0.00    +0.141 N  
DOCKED: ATOM     16  C   UNL     1     -47.270 -25.769  -1.649 +0.00 +0.00    +0.285 C  
DOCKED: ATOM     17  C   UNL     1     -46.687 -24.955  -3.832 +0.00 +0.00    +0.285 C  
DOCKED: ENDBRANCH  14  15
DOCKED: ENDBRANCH  13  14
DOCKED: ENDBRANCH  12  13
DOCKED: ENDBRANCH   2  12
DOCKED: BRANCH   2  18
DOCKED: ATOM     18  C   UNL     1     -50.628 -26.281  -1.209 -0.08 +0.00    +0.006 A  
DOCKED: ATOM     19  C   UNL     1     -50.552 -27.222  -0.183 -0.09 +0.00    +0.001 A  
DOCKED: ATOM     20  C   UNL     1     -50.359 -26.802   1.134 -0.09 +0.00    +0.029 A  
DOCKED: ATOM     21  C   UNL     1     -50.242 -25.443   1.423 -0.03 +0.00    +0.140 A  
DOCKED: ATOM     22  C   UNL     1     -50.318 -24.503   0.396 -0.09 +0.00    +0.029 A  
DOCKED: ATOM     23  F   UNL     1     -50.054 -25.041   2.686 -0.03 -0.00    -0.204 F  
DOCKED: ATOM     24  C   UNL     1     -50.512 -24.921  -0.922 -0.09 +0.00    +0.001 A  
DOCKED: ENDBRANCH   2  18
DOCKED: TORSDOF 5
DOCKED: TER
DOCKED: ENDMDL
________________________________________________________________________________


    FINAL DOCKED STATE:
    ________________________


Run:   382 / 512
Time taken for this run:   0.002s

DOCKED: MODEL        382
DOCKED: USER    Run = 382
DOCKED: USER
DOCKED: USER    Estimated Free Energy of Binding    =  -5.03 kcal/mol  [=(1)+(2)+(3)-(4)]
DOCKED: USER
DOCKED: USER    (1) Final Intermolecular Energy     =  -6.52 kcal/mol
DOCKED: USER        vdW + Hbond + desolv Energy     =  -6.52 kcal/mol
DOCKED: USER        Electrostatic Energy            =  +0.00 kcal/mol
DOCKED: USER        Moving Ligand-Fixed Receptor    =  -6.52 kcal/mol
DOCKED: USER        Moving Ligand-Moving Receptor   =  +0.00 kcal/mol
DOCKED: USER    (2) Final Total Internal Energy     =  -1.22 kcal/mol
DOCKED: USER    (3) Torsional Free Energy           =  +1.49 kcal/mol
DOCKED: USER    (4) Unbound System's Energy         =  -1.22 kcal/mol
DOCKED: USER
DOCKED: USER
DOCKED: REMARK  5 active torsions:
DOCKED: REMARK  status: ('A' for Active; 'I' for Inactive)
DOCKED: REMARK    1  A    between atoms: C_2  and  C_19 
DOCKED: REMARK    2  A    between atoms: C_2  and  C_11 
DOCKED: REMARK    3  A    between atoms: C_19  and  C_20 
DOCKED: REMARK    4  A    between atoms: C_20  and  C_21 
DOCKED: REMARK    5  A    between atoms: C_21  and  N_22 
DOCKED: USER                              x       y       z     vdW  Elec       q    Type
DOCKED: USER                           _______ _______ _______ _____ _____    ______ ____
DOCKED: ROOT
DOCKED: ATOM      1  O   UNL     1     -58.504 -36.002   8.194 -0.02 -0.00    -0.346 OA 
DOCKED: ATOM      2  C   UNL     1     -57.617 -37.164   8.116 -0.17 +0.00    +0.130 C  
DOCKED: ATOM      3  C   UNL     1     -57.980 -37.806   6.808 -0.32 +0.00    +0.004 A  
DOCKED: ATOM      4  C   UNL     1     -58.912 -37.021   6.145 -0.32 +0.00    +0.006 A  
DOCKED: ATOM      5  C   UNL     1     -59.217 -35.816   6.950 -0.19 +0.00    +0.169 C  
DOCKED: ATOM      6  C   UNL     1     -57.513 -38.985   6.245 -0.41 -0.00    -0.001 A  
DOCKED: ATOM      7  C   UNL     1     -59.411 -37.385   4.906 -0.10 +0.00    +0.008 A  
DOCKED: ATOM      8  C   UNL     1     -58.010 -39.369   4.998 -0.33 +0.00    +0.010 A  
DOCKED: ATOM      9  C   UNL     1     -58.954 -38.573   4.333 -0.43 +0.00    +0.068 A  
DOCKED: ATOM     10  N   UNL     1     -59.852 -39.312   2.017 -2.25 -0.00    -0.191 NA 
DOCKED: ATOM     11  C   UNL     1     -59.450 -38.981   3.056 -0.49 +0.00    +0.101 C  
DOCKED: ENDROOT
DOCKED: BRANCH   2  12
DOCKED: ATOM     12  C   UNL     1     -56.175 -36.674   8.157 -0.21 +0.00    +0.038 C  
DOCKED: BRANCH  12  13
DOCKED: ATOM     13  C   UNL     1     -55.991 -35.569   9.196 -0.09 +0.00    +0.038 C  
DOCKED: BRANCH  13  14
DOCKED: ATOM     14  C   UNL     1     -54.944 -34.555   8.740 -0.05 +0.00    +0.251 C  
DOCKED: BRANCH  14  15
DOCKED: ATOM     15  N   UNL     1     -55.529 -33.612   7.793 -0.06 +0.00    +0.141 N  
DOCKED: ATOM     16  C   UNL     1     -55.391 -34.106   6.422 -0.10 +0.00    +0.285 C  
DOCKED: ATOM     17  C   UNL     1     -56.938 -33.374   8.108 -0.04 +0.00    +0.285 C  
DOCKED: ENDBRANCH  14  15
DOCKED: ENDBRANCH  13  14
DOCKED: ENDBRANCH  12  13
DOCKED: ENDBRANCH   2  12
DOCKED: BRANCH   2  18
DOCKED: ATOM     18  C   UNL     1     -57.925 -38.028   9.293 -0.16 +0.00    +0.006 A  
DOCKED: ATOM     19  C   UNL     1     -56.893 -38.483  10.113 -0.13 +0.00    +0.001 A  
DOCKED: ATOM     20  C   UNL     1     -57.183 -39.291  11.213 -0.21 +0.00    +0.029 A  
DOCKED: ATOM     21  C   UNL     1     -58.503 -39.642  11.492 -0.12 +0.00    +0.140 A  
DOCKED: ATOM     22  C   UNL     1     -59.535 -39.186  10.672 -0.15 +0.00    +0.029 A  
DOCKED: ATOM     23  F   UNL     1     -58.781 -40.416  12.549 -0.04 -0.00    -0.204 F  
DOCKED: ATOM     24  C   UNL     1     -59.246 -38.378   9.571 -0.15 +0.00    +0.001 A  
DOCKED: ENDBRANCH   2  18
DOCKED: TORSDOF 5
DOCKED: TER
DOCKED: ENDMDL
________________________________________________________________________________


    FINAL DOCKED STATE:
    ________________________


Run:   383 / 512
Time taken for this run:   0.002s

DOCKED: MODEL        383
DOCKED: USER    Run = 383
DOCKED: USER
DOCKED: USER    Estimated Free Energy of Binding    =  -4.52 kcal/mol  [=(1)+(2)+(3)-(4)]
DOCKED: USER
DOCKED: USER    (1) Final Intermolecular Energy     =  -6.01 kcal/mol
DOCKED: USER        vdW + Hbond + desolv Energy     =  -6.01 kcal/mol
DOCKED: USER        Electrostatic Energy            =  +0.00 kcal/mol
DOCKED: USER        Moving Ligand-Fixed Receptor    =  -6.01 kcal/mol
DOCKED: USER        Moving Ligand-Moving Receptor   =  +0.00 kcal/mol
DOCKED: USER    (2) Final Total Internal Energy     =  -1.25 kcal/mol
DOCKED: USER    (3) Torsional Free Energy           =  +1.49 kcal/mol
DOCKED: USER    (4) Unbound System's Energy         =  -1.25 kcal/mol
DOCKED: USER
DOCKED: USER
DOCKED: REMARK  5 active torsions:
DOCKED: REMARK  status: ('A' for Active; 'I' for Inactive)
DOCKED: REMARK    1  A    between atoms: C_2  and  C_19 
DOCKED: REMARK    2  A    between atoms: C_2  and  C_11 
DOCKED: REMARK    3  A    between atoms: C_19  and  C_20 
DOCKED: REMARK    4  A    between atoms: C_20  and  C_21 
DOCKED: REMARK    5  A    between atoms: C_21  and  N_22 
DOCKED: USER                              x       y       z     vdW  Elec       q    Type
DOCKED: USER                           _______ _______ _______ _____ _____    ______ ____
DOCKED: ROOT
DOCKED: ATOM      1  O   UNL     1     -55.578 -30.732   1.106 -0.07 -0.00    -0.346 OA 
DOCKED: ATOM      2  C   UNL     1     -54.293 -30.472   0.456 -0.14 +0.00    +0.130 C  
DOCKED: ATOM      3  C   UNL     1     -54.661 -29.684  -0.767 -0.24 +0.00    +0.004 A  
DOCKED: ATOM      4  C   UNL     1     -56.024 -29.421  -0.760 -0.26 +0.00    +0.006 A  
DOCKED: ATOM      5  C   UNL     1     -56.641 -29.996   0.456 -0.20 +0.00    +0.169 C  
DOCKED: ATOM      6  C   UNL     1     -53.854 -29.226  -1.798 -0.20 -0.00    -0.001 A  
DOCKED: ATOM      7  C   UNL     1     -56.624 -28.700  -1.779 -0.22 +0.00    +0.008 A  
DOCKED: ATOM      8  C   UNL     1     -54.444 -28.501  -2.835 -0.26 +0.00    +0.010 A  
DOCKED: ATOM      9  C   UNL     1     -55.822 -28.239  -2.824 -0.25 +0.00    +0.068 A  
DOCKED: ATOM     10  N   UNL     1     -56.886 -26.887  -4.762 -2.16 -0.00    -0.191 NA 
DOCKED: ATOM     11  C   UNL     1     -56.409 -27.494  -3.893 -0.36 +0.00    +0.101 C  
DOCKED: ENDROOT
DOCKED: BRANCH   2  12
DOCKED: ATOM     12  C   UNL     1     -53.413 -29.689   1.423 -0.14 +0.00    +0.038 C  
DOCKED: BRANCH  12  13
DOCKED: ATOM     13  C   UNL     1     -54.040 -29.619   2.814 -0.14 +0.00    +0.038 C  
DOCKED: BRANCH  13  14
DOCKED: ATOM     14  C   UNL     1     -54.921 -28.379   2.958 -0.11 +0.00    +0.251 C  
DOCKED: BRANCH  14  15
DOCKED: ATOM     15  N   UNL     1     -56.225 -28.743   3.498 -0.14 +0.00    +0.141 N  
DOCKED: ATOM     16  C   UNL     1     -56.171 -28.840   4.957 -0.05 +0.00    +0.285 C  
DOCKED: ATOM     17  C   UNL     1     -57.242 -27.772   3.091 -0.18 +0.00    +0.285 C  
DOCKED: ENDBRANCH  14  15
DOCKED: ENDBRANCH  13  14
DOCKED: ENDBRANCH  12  13
DOCKED: ENDBRANCH   2  12
DOCKED: BRANCH   2  18
DOCKED: ATOM     18  C   UNL     1     -53.691 -31.799   0.134 -0.12 +0.00    +0.006 A  
DOCKED: ATOM     19  C   UNL     1     -52.498 -31.866  -0.585 -0.06 +0.00    +0.001 A  
DOCKED: ATOM     20  C   UNL     1     -51.936 -33.107  -0.886 -0.07 +0.00    +0.029 A  
DOCKED: ATOM     21  C   UNL     1     -52.567 -34.278  -0.468 -0.15 +0.00    +0.140 A  
DOCKED: ATOM     22  C   UNL     1     -53.760 -34.210   0.251 -0.22 +0.00    +0.029 A  
DOCKED: ATOM     23  F   UNL     1     -52.026 -35.469  -0.756 -0.06 -0.00    -0.204 F  
DOCKED: ATOM     24  C   UNL     1     -54.323 -32.969   0.552 -0.20 +0.00    +0.001 A  
DOCKED: ENDBRANCH   2  18
DOCKED: TORSDOF 5
DOCKED: TER
DOCKED: ENDMDL
________________________________________________________________________________


    FINAL DOCKED STATE:
    ________________________


Run:   384 / 512
Time taken for this run:   0.002s

DOCKED: MODEL        384
DOCKED: USER    Run = 384
DOCKED: USER
DOCKED: USER    Estimated Free Energy of Binding    =  -3.66 kcal/mol  [=(1)+(2)+(3)-(4)]
DOCKED: USER
DOCKED: USER    (1) Final Intermolecular Energy     =  -5.15 kcal/mol
DOCKED: USER        vdW + Hbond + desolv Energy     =  -5.15 kcal/mol
DOCKED: USER        Electrostatic Energy            =  +0.00 kcal/mol
DOCKED: USER        Moving Ligand-Fixed Receptor    =  -5.15 kcal/mol
DOCKED: USER        Moving Ligand-Moving Receptor   =  +0.00 kcal/mol
DOCKED: USER    (2) Final Total Internal Energy     =  -1.38 kcal/mol
DOCKED: USER    (3) Torsional Free Energy           =  +1.49 kcal/mol
DOCKED: USER    (4) Unbound System's Energy         =  -1.38 kcal/mol
DOCKED: USER
DOCKED: USER
DOCKED: REMARK  5 active torsions:
DOCKED: REMARK  status: ('A' for Active; 'I' for Inactive)
DOCKED: REMARK    1  A    between atoms: C_2  and  C_19 
DOCKED: REMARK    2  A    between atoms: C_2  and  C_11 
DOCKED: REMARK    3  A    between atoms: C_19  and  C_20 
DOCKED: REMARK    4  A    between atoms: C_20  and  C_21 
DOCKED: REMARK    5  A    between atoms: C_21  and  N_22 
DOCKED: USER                              x       y       z     vdW  Elec       q    Type
DOCKED: USER                           _______ _______ _______ _____ _____    ______ ____
DOCKED: ROOT
DOCKED: ATOM      1  O   UNL     1     -50.429 -35.793  -0.821 +0.00 -0.00    -0.346 OA 
DOCKED: ATOM      2  C   UNL     1     -50.843 -35.097   0.398 -0.06 +0.00    +0.130 C  
DOCKED: ATOM      3  C   UNL     1     -51.231 -36.207   1.332 -0.13 +0.00    +0.004 A  
DOCKED: ATOM      4  C   UNL     1     -50.959 -37.432   0.739 -0.14 +0.00    +0.006 A  
DOCKED: ATOM      5  C   UNL     1     -50.368 -37.221  -0.602 -0.09 +0.00    +0.169 C  
DOCKED: ATOM      6  C   UNL     1     -51.771 -36.138   2.607 -0.18 -0.00    -0.001 A  
DOCKED: ATOM      7  C   UNL     1     -51.219 -38.623   1.395 -0.23 +0.00    +0.008 A  
DOCKED: ATOM      8  C   UNL     1     -52.044 -37.331   3.280 -0.17 +0.00    +0.010 A  
DOCKED: ATOM      9  C   UNL     1     -51.768 -38.567   2.676 -0.29 +0.00    +0.068 A  
DOCKED: ATOM     10  N   UNL     1     -52.281 -40.762   3.954 -2.59 -0.00    -0.191 NA 
DOCKED: ATOM     11  C   UNL     1     -52.051 -39.777   3.381 -0.35 +0.00    +0.101 C  
DOCKED: ENDROOT
DOCKED: BRANCH   2  12
DOCKED: ATOM     12  C   UNL     1     -49.665 -34.277   0.910 -0.02 +0.00    +0.038 C  
DOCKED: BRANCH  12  13
DOCKED: ATOM     13  C   UNL     1     -49.427 -33.042   0.041 -0.00 +0.00    +0.038 C  
DOCKED: BRANCH  13  14
DOCKED: ATOM     14  C   UNL     1     -48.194 -33.222  -0.843 -0.00 +0.00    +0.251 C  
DOCKED: BRANCH  14  15
DOCKED: ATOM     15  N   UNL     1     -48.255 -34.498  -1.545 -0.00 +0.00    +0.141 N  
DOCKED: ATOM     16  C   UNL     1     -48.457 -34.289  -2.979 +0.00 +0.00    +0.285 C  
DOCKED: ATOM     17  C   UNL     1     -47.036 -35.274  -1.312 -0.00 +0.00    +0.285 C  
DOCKED: ENDBRANCH  14  15
DOCKED: ENDBRANCH  13  14
DOCKED: ENDBRANCH  12  13
DOCKED: ENDBRANCH   2  12
DOCKED: BRANCH   2  18
DOCKED: ATOM     18  C   UNL     1     -51.992 -34.218   0.030 -0.12 +0.00    +0.006 A  
DOCKED: ATOM     19  C   UNL     1     -52.729 -33.581   1.028 -0.11 +0.00    +0.001 A  
DOCKED: ATOM     20  C   UNL     1     -53.803 -32.760   0.682 -0.14 +0.00    +0.029 A  
DOCKED: ATOM     21  C   UNL     1     -54.138 -32.577  -0.658 -0.11 +0.00    +0.140 A  
DOCKED: ATOM     22  C   UNL     1     -53.400 -33.214  -1.655 -0.19 +0.00    +0.029 A  
DOCKED: ATOM     23  F   UNL     1     -55.167 -31.787  -0.990 -0.05 -0.00    -0.204 F  
DOCKED: ATOM     24  C   UNL     1     -52.326 -34.036  -1.311 -0.17 +0.00    +0.001 A  
DOCKED: ENDBRANCH   2  18
DOCKED: TORSDOF 5
DOCKED: TER
DOCKED: ENDMDL
________________________________________________________________________________


    FINAL DOCKED STATE:
    ________________________


Run:   385 / 512
Time taken for this run:   0.002s

DOCKED: MODEL        385
DOCKED: USER    Run = 385
DOCKED: USER
DOCKED: USER    Estimated Free Energy of Binding    =  -3.96 kcal/mol  [=(1)+(2)+(3)-(4)]
DOCKED: USER
DOCKED: USER    (1) Final Intermolecular Energy     =  -5.45 kcal/mol
DOCKED: USER        vdW + Hbond + desolv Energy     =  -5.45 kcal/mol
DOCKED: USER        Electrostatic Energy            =  +0.00 kcal/mol
DOCKED: USER        Moving Ligand-Fixed Receptor    =  -5.45 kcal/mol
DOCKED: USER        Moving Ligand-Moving Receptor   =  +0.00 kcal/mol
DOCKED: USER    (2) Final Total Internal Energy     =  -1.23 kcal/mol
DOCKED: USER    (3) Torsional Free Energy           =  +1.49 kcal/mol
DOCKED: USER    (4) Unbound System's Energy         =  -1.23 kcal/mol
DOCKED: USER
DOCKED: USER
DOCKED: REMARK  5 active torsions:
DOCKED: REMARK  status: ('A' for Active; 'I' for Inactive)
DOCKED: REMARK    1  A    between atoms: C_2  and  C_19 
DOCKED: REMARK    2  A    between atoms: C_2  and  C_11 
DOCKED: REMARK    3  A    between atoms: C_19  and  C_20 
DOCKED: REMARK    4  A    between atoms: C_20  and  C_21 
DOCKED: REMARK    5  A    between atoms: C_21  and  N_22 
DOCKED: USER                              x       y       z     vdW  Elec       q    Type
DOCKED: USER                           _______ _______ _______ _____ _____    ______ ____
DOCKED: ROOT
DOCKED: ATOM      1  O   UNL     1     -57.605 -34.277   8.567 -0.01 -0.00    -0.346 OA 
DOCKED: ATOM      2  C   UNL     1     -58.984 -34.134   8.096 -0.10 +0.00    +0.130 C  
DOCKED: ATOM      3  C   UNL     1     -59.270 -35.442   7.418 -0.19 +0.00    +0.004 A  
DOCKED: ATOM      4  C   UNL     1     -58.192 -36.300   7.583 -0.19 +0.00    +0.006 A  
DOCKED: ATOM      5  C   UNL     1     -57.138 -35.634   8.380 -0.10 +0.00    +0.169 C  
DOCKED: ATOM      6  C   UNL     1     -60.400 -35.846   6.721 -0.19 -0.00    -0.001 A  
DOCKED: ATOM      7  C   UNL     1     -58.203 -37.581   7.058 -0.27 +0.00    +0.008 A  
DOCKED: ATOM      8  C   UNL     1     -60.424 -37.133   6.181 -0.22 +0.00    +0.010 A  
DOCKED: ATOM      9  C   UNL     1     -59.331 -37.996   6.349 -0.25 +0.00    +0.068 A  
DOCKED: ATOM     10  N   UNL     1     -59.411 -40.380   5.339 -2.61 -0.00    -0.191 NA 
DOCKED: ATOM     11  C   UNL     1     -59.375 -39.311   5.791 -0.33 +0.00    +0.101 C  
DOCKED: ENDROOT
DOCKED: BRANCH   2  12
DOCKED: ATOM     12  C   UNL     1     -59.881 -33.880   9.301 -0.04 +0.00    +0.038 C  
DOCKED: BRANCH  12  13
DOCKED: ATOM     13  C   UNL     1     -59.706 -32.460   9.837 -0.02 +0.00    +0.038 C  
DOCKED: BRANCH  13  14
DOCKED: ATOM     14  C   UNL     1     -58.319 -32.271  10.449 -0.00 +0.00    +0.251 C  
DOCKED: BRANCH  14  15
DOCKED: ATOM     15  N   UNL     1     -58.293 -32.784  11.814 +0.00 +0.00    +0.141 N  
DOCKED: ATOM     16  C   UNL     1     -59.646 -32.838  12.371 +0.00 +0.00    +0.285 C  
DOCKED: ATOM     17  C   UNL     1     -57.674 -34.109  11.855 -0.00 +0.00    +0.285 C  
DOCKED: ENDBRANCH  14  15
DOCKED: ENDBRANCH  13  14
DOCKED: ENDBRANCH  12  13
DOCKED: ENDBRANCH   2  12
DOCKED: BRANCH   2  18
DOCKED: ATOM     18  C   UNL     1     -59.005 -32.975   7.155 -0.16 +0.00    +0.006 A  
DOCKED: ATOM     19  C   UNL     1     -57.810 -32.363   6.777 -0.13 +0.00    +0.001 A  
DOCKED: ATOM     20  C   UNL     1     -57.832 -31.279   5.898 -0.12 +0.00    +0.029 A  
DOCKED: ATOM     21  C   UNL     1     -59.046 -30.811   5.398 -0.13 +0.00    +0.140 A  
DOCKED: ATOM     22  C   UNL     1     -60.240 -31.424   5.777 -0.13 +0.00    +0.029 A  
DOCKED: ATOM     23  F   UNL     1     -59.066 -29.772   4.553 -0.03 -0.00    -0.204 F  
DOCKED: ATOM     24  C   UNL     1     -60.220 -32.507   6.657 -0.21 +0.00    +0.001 A  
DOCKED: ENDBRANCH   2  18
DOCKED: TORSDOF 5
DOCKED: TER
DOCKED: ENDMDL
________________________________________________________________________________


    FINAL DOCKED STATE:
    ________________________


Run:   386 / 512
Time taken for this run:   0.002s

DOCKED: MODEL        386
DOCKED: USER    Run = 386
DOCKED: USER
DOCKED: USER    Estimated Free Energy of Binding    =  -3.55 kcal/mol  [=(1)+(2)+(3)-(4)]
DOCKED: USER
DOCKED: USER    (1) Final Intermolecular Energy     =  -5.04 kcal/mol
DOCKED: USER        vdW + Hbond + desolv Energy     =  -5.04 kcal/mol
DOCKED: USER        Electrostatic Energy            =  +0.00 kcal/mol
DOCKED: USER        Moving Ligand-Fixed Receptor    =  -5.04 kcal/mol
DOCKED: USER        Moving Ligand-Moving Receptor   =  +0.00 kcal/mol
DOCKED: USER    (2) Final Total Internal Energy     =  -1.07 kcal/mol
DOCKED: USER    (3) Torsional Free Energy           =  +1.49 kcal/mol
DOCKED: USER    (4) Unbound System's Energy         =  -1.07 kcal/mol
DOCKED: USER
DOCKED: USER
DOCKED: REMARK  5 active torsions:
DOCKED: REMARK  status: ('A' for Active; 'I' for Inactive)
DOCKED: REMARK    1  A    between atoms: C_2  and  C_19 
DOCKED: REMARK    2  A    between atoms: C_2  and  C_11 
DOCKED: REMARK    3  A    between atoms: C_19  and  C_20 
DOCKED: REMARK    4  A    between atoms: C_20  and  C_21 
DOCKED: REMARK    5  A    between atoms: C_21  and  N_22 
DOCKED: USER                              x       y       z     vdW  Elec       q    Type
DOCKED: USER                           _______ _______ _______ _____ _____    ______ ____
DOCKED: ROOT
DOCKED: ATOM      1  O   UNL     1     -56.627 -34.105   7.745 -0.04 -0.00    -0.346 OA 
DOCKED: ATOM      2  C   UNL     1     -56.590 -35.087   8.829 -0.07 +0.00    +0.130 C  
DOCKED: ATOM      3  C   UNL     1     -57.281 -36.287   8.250 -0.15 +0.00    +0.004 A  
DOCKED: ATOM      4  C   UNL     1     -57.587 -36.053   6.917 -0.26 +0.00    +0.006 A  
DOCKED: ATOM      5  C   UNL     1     -57.116 -34.706   6.523 -0.20 +0.00    +0.169 C  
DOCKED: ATOM      6  C   UNL     1     -57.602 -37.495   8.852 -0.15 -0.00    -0.001 A  
DOCKED: ATOM      7  C   UNL     1     -58.225 -37.008   6.145 -0.33 +0.00    +0.008 A  
DOCKED: ATOM      8  C   UNL     1     -58.250 -38.468   8.088 -0.23 +0.00    +0.010 A  
DOCKED: ATOM      9  C   UNL     1     -58.559 -38.225   6.741 -0.26 +0.00    +0.068 A  
DOCKED: ATOM     10  N   UNL     1     -59.756 -40.054   5.350 -2.55 -0.00    -0.191 NA 
DOCKED: ATOM     11  C   UNL     1     -59.220 -39.233   5.974 -0.33 +0.00    +0.101 C  
DOCKED: ENDROOT
DOCKED: BRANCH   2  12
DOCKED: ATOM     12  C   UNL     1     -55.133 -35.356   9.188 -0.09 +0.00    +0.038 C  
DOCKED: BRANCH  12  13
DOCKED: ATOM     13  C   UNL     1     -54.333 -35.805   7.967 -0.11 +0.00    +0.038 C  
DOCKED: BRANCH  13  14
DOCKED: ATOM     14  C   UNL     1     -53.722 -34.609   7.239 -0.07 +0.00    +0.251 C  
DOCKED: BRANCH  14  15
DOCKED: ATOM     15  N   UNL     1     -52.273 -34.603   7.402 -0.06 +0.00    +0.141 N  
DOCKED: ATOM     16  C   UNL     1     -51.650 -35.587   6.516 -0.07 +0.00    +0.285 C  
DOCKED: ATOM     17  C   UNL     1     -51.730 -33.269   7.140 -0.02 +0.00    +0.285 C  
DOCKED: ENDBRANCH  14  15
DOCKED: ENDBRANCH  13  14
DOCKED: ENDBRANCH  12  13
DOCKED: ENDBRANCH   2  12
DOCKED: BRANCH   2  18
DOCKED: ATOM     18  C   UNL     1     -57.327 -34.491   9.982 -0.02 +0.00    +0.006 A  
DOCKED: ATOM     19  C   UNL     1     -56.886 -34.722  11.285 -0.01 +0.00    +0.001 A  
DOCKED: ATOM     20  C   UNL     1     -57.577 -34.165  12.362 -0.00 +0.00    +0.029 A  
DOCKED: ATOM     21  C   UNL     1     -58.705 -33.379  12.135 +0.00 +0.00    +0.140 A  
DOCKED: ATOM     22  C   UNL     1     -59.145 -33.148  10.832 -0.00 +0.00    +0.029 A  
DOCKED: ATOM     23  F   UNL     1     -59.366 -32.843  13.169 +0.00 -0.00    -0.204 F  
DOCKED: ATOM     24  C   UNL     1     -58.455 -33.705   9.754 -0.02 +0.00    +0.001 A  
DOCKED: ENDBRANCH   2  18
DOCKED: TORSDOF 5
DOCKED: TER
DOCKED: ENDMDL
________________________________________________________________________________


    FINAL DOCKED STATE:
    ________________________


Run:   387 / 512
Time taken for this run:   0.002s

DOCKED: MODEL        387
DOCKED: USER    Run = 387
DOCKED: USER
DOCKED: USER    Estimated Free Energy of Binding    =  -4.45 kcal/mol  [=(1)+(2)+(3)-(4)]
DOCKED: USER
DOCKED: USER    (1) Final Intermolecular Energy     =  -5.94 kcal/mol
DOCKED: USER        vdW + Hbond + desolv Energy     =  -5.94 kcal/mol
DOCKED: USER        Electrostatic Energy            =  +0.00 kcal/mol
DOCKED: USER        Moving Ligand-Fixed Receptor    =  -5.94 kcal/mol
DOCKED: USER        Moving Ligand-Moving Receptor   =  +0.00 kcal/mol
DOCKED: USER    (2) Final Total Internal Energy     =  -1.27 kcal/mol
DOCKED: USER    (3) Torsional Free Energy           =  +1.49 kcal/mol
DOCKED: USER    (4) Unbound System's Energy         =  -1.27 kcal/mol
DOCKED: USER
DOCKED: USER
DOCKED: REMARK  5 active torsions:
DOCKED: REMARK  status: ('A' for Active; 'I' for Inactive)
DOCKED: REMARK    1  A    between atoms: C_2  and  C_19 
DOCKED: REMARK    2  A    between atoms: C_2  and  C_11 
DOCKED: REMARK    3  A    between atoms: C_19  and  C_20 
DOCKED: REMARK    4  A    between atoms: C_20  and  C_21 
DOCKED: REMARK    5  A    between atoms: C_21  and  N_22 
DOCKED: USER                              x       y       z     vdW  Elec       q    Type
DOCKED: USER                           _______ _______ _______ _____ _____    ______ ____
DOCKED: ROOT
DOCKED: ATOM      1  O   UNL     1     -56.920 -34.131   7.663 -0.04 -0.00    -0.346 OA 
DOCKED: ATOM      2  C   UNL     1     -58.373 -34.115   7.832 -0.11 +0.00    +0.130 C  
DOCKED: ATOM      3  C   UNL     1     -58.812 -35.447   7.295 -0.20 +0.00    +0.004 A  
DOCKED: ATOM      4  C   UNL     1     -57.699 -36.202   6.953 -0.26 +0.00    +0.006 A  
DOCKED: ATOM      5  C   UNL     1     -56.465 -35.440   7.246 -0.17 +0.00    +0.169 C  
DOCKED: ATOM      6  C   UNL     1     -60.093 -35.954   7.134 -0.21 -0.00    -0.001 A  
DOCKED: ATOM      7  C   UNL     1     -57.827 -37.480   6.436 -0.32 +0.00    +0.008 A  
DOCKED: ATOM      8  C   UNL     1     -60.238 -37.240   6.610 -0.23 +0.00    +0.010 A  
DOCKED: ATOM      9  C   UNL     1     -59.111 -37.999   6.263 -0.27 +0.00    +0.068 A  
DOCKED: ATOM     10  N   UNL     1     -59.416 -40.384   5.298 -2.59 -0.00    -0.191 NA 
DOCKED: ATOM     11  C   UNL     1     -59.279 -39.314   5.730 -0.35 +0.00    +0.101 C  
DOCKED: ENDROOT
DOCKED: BRANCH   2  12
DOCKED: ATOM     12  C   UNL     1     -58.685 -33.941   9.314 -0.04 +0.00    +0.038 C  
DOCKED: BRANCH  12  13
DOCKED: ATOM     13  C   UNL     1     -57.884 -34.918  10.171 -0.03 +0.00    +0.038 C  
DOCKED: BRANCH  13  14
DOCKED: ATOM     14  C   UNL     1     -58.805 -35.909  10.881 -0.01 +0.00    +0.251 C  
DOCKED: BRANCH  14  15
DOCKED: ATOM     15  N   UNL     1     -58.210 -37.240  10.885 -0.04 +0.00    +0.141 N  
DOCKED: ATOM     16  C   UNL     1     -57.838 -37.635  12.244 -0.02 +0.00    +0.285 C  
DOCKED: ATOM     17  C   UNL     1     -59.133 -38.219  10.307 -0.06 +0.00    +0.285 C  
DOCKED: ENDBRANCH  14  15
DOCKED: ENDBRANCH  13  14
DOCKED: ENDBRANCH  12  13
DOCKED: ENDBRANCH   2  12
DOCKED: BRANCH   2  18
DOCKED: ATOM     18  C   UNL     1     -58.893 -32.967   7.033 -0.17 +0.00    +0.006 A  
DOCKED: ATOM     19  C   UNL     1     -60.266 -32.810   6.850 -0.22 +0.00    +0.001 A  
DOCKED: ATOM     20  C   UNL     1     -60.750 -31.736   6.102 -0.17 +0.00    +0.029 A  
DOCKED: ATOM     21  C   UNL     1     -59.861 -30.820   5.541 -0.12 +0.00    +0.140 A  
DOCKED: ATOM     22  C   UNL     1     -58.488 -30.977   5.725 -0.14 +0.00    +0.029 A  
DOCKED: ATOM     23  F   UNL     1     -60.326 -29.788   4.825 -0.03 -0.00    -0.204 F  
DOCKED: ATOM     24  C   UNL     1     -58.002 -32.052   6.472 -0.14 +0.00    +0.001 A  
DOCKED: ENDBRANCH   2  18
DOCKED: TORSDOF 5
DOCKED: TER
DOCKED: ENDMDL
________________________________________________________________________________


    FINAL DOCKED STATE:
    ________________________


Run:   388 / 512
Time taken for this run:   0.002s

DOCKED: MODEL        388
DOCKED: USER    Run = 388
DOCKED: USER
DOCKED: USER    Estimated Free Energy of Binding    =  -4.01 kcal/mol  [=(1)+(2)+(3)-(4)]
DOCKED: USER
DOCKED: USER    (1) Final Intermolecular Energy     =  -5.50 kcal/mol
DOCKED: USER        vdW + Hbond + desolv Energy     =  -5.50 kcal/mol
DOCKED: USER        Electrostatic Energy            =  +0.00 kcal/mol
DOCKED: USER        Moving Ligand-Fixed Receptor    =  -5.50 kcal/mol
DOCKED: USER        Moving Ligand-Moving Receptor   =  +0.00 kcal/mol
DOCKED: USER    (2) Final Total Internal Energy     =  -1.21 kcal/mol
DOCKED: USER    (3) Torsional Free Energy           =  +1.49 kcal/mol
DOCKED: USER    (4) Unbound System's Energy         =  -1.21 kcal/mol
DOCKED: USER
DOCKED: USER
DOCKED: REMARK  5 active torsions:
DOCKED: REMARK  status: ('A' for Active; 'I' for Inactive)
DOCKED: REMARK    1  A    between atoms: C_2  and  C_19 
DOCKED: REMARK    2  A    between atoms: C_2  and  C_11 
DOCKED: REMARK    3  A    between atoms: C_19  and  C_20 
DOCKED: REMARK    4  A    between atoms: C_20  and  C_21 
DOCKED: REMARK    5  A    between atoms: C_21  and  N_22 
DOCKED: USER                              x       y       z     vdW  Elec       q    Type
DOCKED: USER                           _______ _______ _______ _____ _____    ______ ____
DOCKED: ROOT
DOCKED: ATOM      1  O   UNL     1     -59.785 -36.600   9.462 +0.00 -0.00    -0.346 OA 
DOCKED: ATOM      2  C   UNL     1     -58.375 -36.859   9.168 -0.08 +0.00    +0.130 C  
DOCKED: ATOM      3  C   UNL     1     -58.389 -37.351   7.749 -0.19 +0.00    +0.004 A  
DOCKED: ATOM      4  C   UNL     1     -59.678 -37.275   7.241 -0.19 +0.00    +0.006 A  
DOCKED: ATOM      5  C   UNL     1     -60.591 -36.724   8.267 -0.08 +0.00    +0.169 C  
DOCKED: ATOM      6  C   UNL     1     -57.342 -37.818   6.968 -0.31 -0.00    -0.001 A  
DOCKED: ATOM      7  C   UNL     1     -59.966 -37.665   5.944 -0.29 +0.00    +0.008 A  
DOCKED: ATOM      8  C   UNL     1     -57.617 -38.218   5.659 -0.18 +0.00    +0.010 A  
DOCKED: ATOM      9  C   UNL     1     -58.922 -38.142   5.150 -0.36 +0.00    +0.068 A  
DOCKED: ATOM     10  N   UNL     1     -59.396 -38.889   2.715 -1.92 -0.00    -0.191 NA 
DOCKED: ATOM     11  C   UNL     1     -59.183 -38.554   3.807 -0.50 +0.00    +0.101 C  
DOCKED: ENDROOT
DOCKED: BRANCH   2  12
DOCKED: ATOM     12  C   UNL     1     -57.600 -35.557   9.337 -0.07 +0.00    +0.038 C  
DOCKED: BRANCH  12  13
DOCKED: ATOM     13  C   UNL     1     -57.698 -34.685   8.087 -0.12 +0.00    +0.038 C  
DOCKED: BRANCH  13  14
DOCKED: ATOM     14  C   UNL     1     -56.680 -33.547   8.131 -0.05 +0.00    +0.251 C  
DOCKED: BRANCH  14  15
DOCKED: ATOM     15  N   UNL     1     -55.555 -33.838   7.251 -0.10 +0.00    +0.141 N  
DOCKED: ATOM     16  C   UNL     1     -54.832 -35.024   7.713 -0.07 +0.00    +0.285 C  
DOCKED: ATOM     17  C   UNL     1     -56.013 -34.028   5.873 -0.07 +0.00    +0.285 C  
DOCKED: ENDBRANCH  14  15
DOCKED: ENDBRANCH  13  14
DOCKED: ENDBRANCH  12  13
DOCKED: ENDBRANCH   2  12
DOCKED: BRANCH   2  18
DOCKED: ATOM     18  C   UNL     1     -57.910 -37.893  10.138 -0.12 +0.00    +0.006 A  
DOCKED: ATOM     19  C   UNL     1     -58.707 -39.004  10.407 -0.19 +0.00    +0.001 A  
DOCKED: ATOM     20  C   UNL     1     -58.270 -39.970  11.315 -0.08 +0.00    +0.029 A  
DOCKED: ATOM     21  C   UNL     1     -57.038 -39.824  11.950 -0.19 +0.00    +0.140 A  
DOCKED: ATOM     22  C   UNL     1     -56.241 -38.712  11.680 -0.15 +0.00    +0.029 A  
DOCKED: ATOM     23  F   UNL     1     -56.618 -40.752  12.820 -0.08 -0.00    -0.204 F  
DOCKED: ATOM     24  C   UNL     1     -56.677 -37.745  10.772 -0.12 +0.00    +0.001 A  
DOCKED: ENDBRANCH   2  18
DOCKED: TORSDOF 5
DOCKED: TER
DOCKED: ENDMDL
________________________________________________________________________________


    FINAL DOCKED STATE:
    ________________________


Run:   389 / 512
Time taken for this run:   0.002s

DOCKED: MODEL        389
DOCKED: USER    Run = 389
DOCKED: USER
DOCKED: USER    Estimated Free Energy of Binding    =  -3.87 kcal/mol  [=(1)+(2)+(3)-(4)]
DOCKED: USER
DOCKED: USER    (1) Final Intermolecular Energy     =  -5.36 kcal/mol
DOCKED: USER        vdW + Hbond + desolv Energy     =  -5.36 kcal/mol
DOCKED: USER        Electrostatic Energy            =  +0.00 kcal/mol
DOCKED: USER        Moving Ligand-Fixed Receptor    =  -5.36 kcal/mol
DOCKED: USER        Moving Ligand-Moving Receptor   =  +0.00 kcal/mol
DOCKED: USER    (2) Final Total Internal Energy     =  -1.41 kcal/mol
DOCKED: USER    (3) Torsional Free Energy           =  +1.49 kcal/mol
DOCKED: USER    (4) Unbound System's Energy         =  -1.41 kcal/mol
DOCKED: USER
DOCKED: USER
DOCKED: REMARK  5 active torsions:
DOCKED: REMARK  status: ('A' for Active; 'I' for Inactive)
DOCKED: REMARK    1  A    between atoms: C_2  and  C_19 
DOCKED: REMARK    2  A    between atoms: C_2  and  C_11 
DOCKED: REMARK    3  A    between atoms: C_19  and  C_20 
DOCKED: REMARK    4  A    between atoms: C_20  and  C_21 
DOCKED: REMARK    5  A    between atoms: C_21  and  N_22 
DOCKED: USER                              x       y       z     vdW  Elec       q    Type
DOCKED: USER                           _______ _______ _______ _____ _____    ______ ____
DOCKED: ROOT
DOCKED: ATOM      1  O   UNL     1     -50.647 -25.579  -3.605 -0.02 -0.00    -0.346 OA 
DOCKED: ATOM      2  C   UNL     1     -51.045 -26.542  -2.577 -0.06 +0.00    +0.130 C  
DOCKED: ATOM      3  C   UNL     1     -52.487 -26.821  -2.885 -0.14 +0.00    +0.004 A  
DOCKED: ATOM      4  C   UNL     1     -52.852 -26.163  -4.051 -0.18 +0.00    +0.006 A  
DOCKED: ATOM      5  C   UNL     1     -51.691 -25.424  -4.595 -0.12 +0.00    +0.169 C  
DOCKED: ATOM      6  C   UNL     1     -53.401 -27.604  -2.195 -0.19 -0.00    -0.001 A  
DOCKED: ATOM      7  C   UNL     1     -54.135 -26.260  -4.563 -0.29 +0.00    +0.008 A  
DOCKED: ATOM      8  C   UNL     1     -54.700 -27.709  -2.696 -0.30 +0.00    +0.010 A  
DOCKED: ATOM      9  C   UNL     1     -55.064 -27.040  -3.874 -0.37 +0.00    +0.068 A  
DOCKED: ATOM     10  N   UNL     1     -57.482 -27.260  -4.778 -2.46 -0.00    -0.191 NA 
DOCKED: ATOM     11  C   UNL     1     -56.398 -27.161  -4.372 -0.35 +0.00    +0.101 C  
DOCKED: ENDROOT
DOCKED: BRANCH   2  12
DOCKED: ATOM     12  C   UNL     1     -50.161 -27.777  -2.704 -0.03 +0.00    +0.038 C  
DOCKED: BRANCH  12  13
DOCKED: ATOM     13  C   UNL     1     -50.887 -28.909  -3.427 -0.03 +0.00    +0.038 C  
DOCKED: BRANCH  13  14
DOCKED: ATOM     14  C   UNL     1     -50.825 -28.723  -4.942 -0.00 +0.00    +0.251 C  
DOCKED: BRANCH  14  15
DOCKED: ATOM     15  N   UNL     1     -51.869 -29.507  -5.592 -0.07 +0.00    +0.141 N  
DOCKED: ATOM     16  C   UNL     1     -52.826 -30.011  -4.606 -0.10 +0.00    +0.285 C  
DOCKED: ATOM     17  C   UNL     1     -52.558 -28.707  -6.606 -0.10 +0.00    +0.285 C  
DOCKED: ENDBRANCH  14  15
DOCKED: ENDBRANCH  13  14
DOCKED: ENDBRANCH  12  13
DOCKED: ENDBRANCH   2  12
DOCKED: BRANCH   2  18
DOCKED: ATOM     18  C   UNL     1     -50.851 -25.875  -1.256 -0.10 +0.00    +0.006 A  
DOCKED: ATOM     19  C   UNL     1     -51.147 -24.520  -1.110 -0.13 +0.00    +0.001 A  
DOCKED: ATOM     20  C   UNL     1     -50.964 -23.897   0.126 -0.11 +0.00    +0.029 A  
DOCKED: ATOM     21  C   UNL     1     -50.488 -24.630   1.212 -0.03 +0.00    +0.140 A  
DOCKED: ATOM     22  C   UNL     1     -50.193 -25.985   1.065 -0.08 +0.00    +0.029 A  
DOCKED: ATOM     23  F   UNL     1     -50.315 -24.032   2.398 -0.03 -0.00    -0.204 F  
DOCKED: ATOM     24  C   UNL     1     -50.374 -26.608  -0.171 -0.09 +0.00    +0.001 A  
DOCKED: ENDBRANCH   2  18
DOCKED: TORSDOF 5
DOCKED: TER
DOCKED: ENDMDL
________________________________________________________________________________


    FINAL DOCKED STATE:
    ________________________


Run:   390 / 512
Time taken for this run:   0.002s

DOCKED: MODEL        390
DOCKED: USER    Run = 390
DOCKED: USER
DOCKED: USER    Estimated Free Energy of Binding    =  -4.82 kcal/mol  [=(1)+(2)+(3)-(4)]
DOCKED: USER
DOCKED: USER    (1) Final Intermolecular Energy     =  -6.31 kcal/mol
DOCKED: USER        vdW + Hbond + desolv Energy     =  -6.31 kcal/mol
DOCKED: USER        Electrostatic Energy            =  +0.00 kcal/mol
DOCKED: USER        Moving Ligand-Fixed Receptor    =  -6.31 kcal/mol
DOCKED: USER        Moving Ligand-Moving Receptor   =  +0.00 kcal/mol
DOCKED: USER    (2) Final Total Internal Energy     =  -1.50 kcal/mol
DOCKED: USER    (3) Torsional Free Energy           =  +1.49 kcal/mol
DOCKED: USER    (4) Unbound System's Energy         =  -1.50 kcal/mol
DOCKED: USER
DOCKED: USER
DOCKED: REMARK  5 active torsions:
DOCKED: REMARK  status: ('A' for Active; 'I' for Inactive)
DOCKED: REMARK    1  A    between atoms: C_2  and  C_19 
DOCKED: REMARK    2  A    between atoms: C_2  and  C_11 
DOCKED: REMARK    3  A    between atoms: C_19  and  C_20 
DOCKED: REMARK    4  A    between atoms: C_20  and  C_21 
DOCKED: REMARK    5  A    between atoms: C_21  and  N_22 
DOCKED: USER                              x       y       z     vdW  Elec       q    Type
DOCKED: USER                           _______ _______ _______ _____ _____    ______ ____
DOCKED: ROOT
DOCKED: ATOM      1  O   UNL     1     -60.988 -38.376   8.606 -0.03 -0.00    -0.346 OA 
DOCKED: ATOM      2  C   UNL     1     -59.928 -37.426   8.265 -0.11 +0.00    +0.130 C  
DOCKED: ATOM      3  C   UNL     1     -59.729 -37.624   6.790 -0.23 +0.00    +0.004 A  
DOCKED: ATOM      4  C   UNL     1     -60.667 -38.526   6.309 -0.28 +0.00    +0.006 A  
DOCKED: ATOM      5  C   UNL     1     -61.547 -38.972   7.413 -0.14 +0.00    +0.169 C  
DOCKED: ATOM      6  C   UNL     1     -58.799 -37.043   5.940 -0.33 -0.00    -0.001 A  
DOCKED: ATOM      7  C   UNL     1     -60.705 -38.881   4.972 -0.38 +0.00    +0.008 A  
DOCKED: ATOM      8  C   UNL     1     -58.822 -37.393   4.589 -0.27 +0.00    +0.010 A  
DOCKED: ATOM      9  C   UNL     1     -59.771 -38.308   4.108 -0.35 +0.00    +0.068 A  
DOCKED: ATOM     10  N   UNL     1     -59.790 -38.933   1.593 -2.92 -0.00    -0.191 NA 
DOCKED: ATOM     11  C   UNL     1     -59.781 -38.653   2.721 -0.26 +0.00    +0.101 C  
DOCKED: ENDROOT
DOCKED: BRANCH   2  12
DOCKED: ATOM     12  C   UNL     1     -60.407 -36.022   8.616 -0.10 +0.00    +0.038 C  
DOCKED: BRANCH  12  13
DOCKED: ATOM     13  C   UNL     1     -61.490 -36.056   9.693 -0.06 +0.00    +0.038 C  
DOCKED: BRANCH  13  14
DOCKED: ATOM     14  C   UNL     1     -60.971 -35.489  11.013 -0.00 +0.00    +0.251 C  
DOCKED: BRANCH  14  15
DOCKED: ATOM     15  N   UNL     1     -60.220 -36.505  11.741 -0.01 +0.00    +0.141 N  
DOCKED: ATOM     16  C   UNL     1     -59.942 -36.060  13.108 +0.00 +0.00    +0.285 C  
DOCKED: ATOM     17  C   UNL     1     -60.952 -37.773  11.759 -0.01 +0.00    +0.285 C  
DOCKED: ENDBRANCH  14  15
DOCKED: ENDBRANCH  13  14
DOCKED: ENDBRANCH  12  13
DOCKED: ENDBRANCH   2  12
DOCKED: BRANCH   2  18
DOCKED: ATOM     18  C   UNL     1     -58.729 -37.803   9.070 -0.13 +0.00    +0.006 A  
DOCKED: ATOM     19  C   UNL     1     -58.653 -39.065   9.658 -0.22 +0.00    +0.001 A  
DOCKED: ATOM     20  C   UNL     1     -57.531 -39.415  10.410 -0.22 +0.00    +0.029 A  
DOCKED: ATOM     21  C   UNL     1     -56.488 -38.505  10.573 -0.04 +0.00    +0.140 A  
DOCKED: ATOM     22  C   UNL     1     -56.565 -37.243   9.985 -0.11 +0.00    +0.029 A  
DOCKED: ATOM     23  F   UNL     1     -55.411 -38.843  11.294 -0.01 -0.00    -0.204 F  
DOCKED: ATOM     24  C   UNL     1     -57.687 -36.891   9.232 -0.10 +0.00    +0.001 A  
DOCKED: ENDBRANCH   2  18
DOCKED: TORSDOF 5
DOCKED: TER
DOCKED: ENDMDL
________________________________________________________________________________


    FINAL DOCKED STATE:
    ________________________


Run:   391 / 512
Time taken for this run:   0.002s

DOCKED: MODEL        391
DOCKED: USER    Run = 391
DOCKED: USER
DOCKED: USER    Estimated Free Energy of Binding    =  -3.63 kcal/mol  [=(1)+(2)+(3)-(4)]
DOCKED: USER
DOCKED: USER    (1) Final Intermolecular Energy     =  -5.12 kcal/mol
DOCKED: USER        vdW + Hbond + desolv Energy     =  -5.12 kcal/mol
DOCKED: USER        Electrostatic Energy            =  +0.00 kcal/mol
DOCKED: USER        Moving Ligand-Fixed Receptor    =  -5.12 kcal/mol
DOCKED: USER        Moving Ligand-Moving Receptor   =  +0.00 kcal/mol
DOCKED: USER    (2) Final Total Internal Energy     =  -1.56 kcal/mol
DOCKED: USER    (3) Torsional Free Energy           =  +1.49 kcal/mol
DOCKED: USER    (4) Unbound System's Energy         =  -1.56 kcal/mol
DOCKED: USER
DOCKED: USER
DOCKED: REMARK  5 active torsions:
DOCKED: REMARK  status: ('A' for Active; 'I' for Inactive)
DOCKED: REMARK    1  A    between atoms: C_2  and  C_19 
DOCKED: REMARK    2  A    between atoms: C_2  and  C_11 
DOCKED: REMARK    3  A    between atoms: C_19  and  C_20 
DOCKED: REMARK    4  A    between atoms: C_20  and  C_21 
DOCKED: REMARK    5  A    between atoms: C_21  and  N_22 
DOCKED: USER                              x       y       z     vdW  Elec       q    Type
DOCKED: USER                           _______ _______ _______ _____ _____    ______ ____
DOCKED: ROOT
DOCKED: ATOM      1  O   UNL     1     -51.924 -34.395   0.828 +0.00 -0.00    -0.346 OA 
DOCKED: ATOM      2  C   UNL     1     -51.250 -35.361  -0.041 -0.10 +0.00    +0.130 C  
DOCKED: ATOM      3  C   UNL     1     -51.354 -36.655   0.712 -0.15 +0.00    +0.004 A  
DOCKED: ATOM      4  C   UNL     1     -52.116 -36.470   1.857 -0.24 +0.00    +0.006 A  
DOCKED: ATOM      5  C   UNL     1     -52.573 -35.064   1.934 -0.16 +0.00    +0.169 C  
DOCKED: ATOM      6  C   UNL     1     -50.827 -37.900   0.403 -0.15 -0.00    -0.001 A  
DOCKED: ATOM      7  C   UNL     1     -52.372 -37.514   2.729 -0.27 +0.00    +0.008 A  
DOCKED: ATOM      8  C   UNL     1     -51.072 -38.963   1.275 -0.22 +0.00    +0.010 A  
DOCKED: ATOM      9  C   UNL     1     -51.842 -38.770   2.432 -0.31 +0.00    +0.068 A  
DOCKED: ATOM     10  N   UNL     1     -52.283 -40.764   4.026 -2.61 -0.00    -0.191 NA 
DOCKED: ATOM     11  C   UNL     1     -52.084 -39.869   3.312 -0.36 +0.00    +0.101 C  
DOCKED: ENDROOT
DOCKED: BRANCH   2  12
DOCKED: ATOM     12  C   UNL     1     -51.976 -35.393  -1.380 -0.06 +0.00    +0.038 C  
DOCKED: BRANCH  12  13
DOCKED: ATOM     13  C   UNL     1     -52.927 -34.207  -1.527 -0.19 +0.00    +0.038 C  
DOCKED: BRANCH  13  14
DOCKED: ATOM     14  C   UNL     1     -52.196 -32.981  -2.070 -0.10 +0.00    +0.251 C  
DOCKED: BRANCH  14  15
DOCKED: ATOM     15  N   UNL     1     -52.425 -31.829  -1.205 -0.05 +0.00    +0.141 N  
DOCKED: ATOM     16  C   UNL     1     -53.654 -32.003  -0.429 -0.10 +0.00    +0.285 C  
DOCKED: ATOM     17  C   UNL     1     -51.285 -31.622  -0.311 -0.00 +0.00    +0.285 C  
DOCKED: ENDBRANCH  14  15
DOCKED: ENDBRANCH  13  14
DOCKED: ENDBRANCH  12  13
DOCKED: ENDBRANCH   2  12
DOCKED: BRANCH   2  18
DOCKED: ATOM     18  C   UNL     1     -49.842 -34.894  -0.203 -0.03 +0.00    +0.006 A  
DOCKED: ATOM     19  C   UNL     1     -49.112 -34.481   0.911 -0.01 +0.00    +0.001 A  
DOCKED: ATOM     20  C   UNL     1     -47.796 -34.045   0.758 -0.00 +0.00    +0.029 A  
DOCKED: ATOM     21  C   UNL     1     -47.211 -34.022  -0.507 -0.00 +0.00    +0.140 A  
DOCKED: ATOM     22  C   UNL     1     -47.942 -34.435  -1.621 -0.00 +0.00    +0.029 A  
DOCKED: ATOM     23  F   UNL     1     -45.947 -33.605  -0.653 +0.00 -0.00    -0.204 F  
DOCKED: ATOM     24  C   UNL     1     -49.259 -34.871  -1.469 -0.02 +0.00    +0.001 A  
DOCKED: ENDBRANCH   2  18
DOCKED: TORSDOF 5
DOCKED: TER
DOCKED: ENDMDL
________________________________________________________________________________


    FINAL DOCKED STATE:
    ________________________


Run:   392 / 512
Time taken for this run:   0.002s

DOCKED: MODEL        392
DOCKED: USER    Run = 392
DOCKED: USER
DOCKED: USER    Estimated Free Energy of Binding    =  -4.25 kcal/mol  [=(1)+(2)+(3)-(4)]
DOCKED: USER
DOCKED: USER    (1) Final Intermolecular Energy     =  -5.74 kcal/mol
DOCKED: USER        vdW + Hbond + desolv Energy     =  -5.74 kcal/mol
DOCKED: USER        Electrostatic Energy            =  +0.00 kcal/mol
DOCKED: USER        Moving Ligand-Fixed Receptor    =  -5.74 kcal/mol
DOCKED: USER        Moving Ligand-Moving Receptor   =  +0.00 kcal/mol
DOCKED: USER    (2) Final Total Internal Energy     =  -1.30 kcal/mol
DOCKED: USER    (3) Torsional Free Energy           =  +1.49 kcal/mol
DOCKED: USER    (4) Unbound System's Energy         =  -1.30 kcal/mol
DOCKED: USER
DOCKED: USER
DOCKED: REMARK  5 active torsions:
DOCKED: REMARK  status: ('A' for Active; 'I' for Inactive)
DOCKED: REMARK    1  A    between atoms: C_2  and  C_19 
DOCKED: REMARK    2  A    between atoms: C_2  and  C_11 
DOCKED: REMARK    3  A    between atoms: C_19  and  C_20 
DOCKED: REMARK    4  A    between atoms: C_20  and  C_21 
DOCKED: REMARK    5  A    between atoms: C_21  and  N_22 
DOCKED: USER                              x       y       z     vdW  Elec       q    Type
DOCKED: USER                           _______ _______ _______ _____ _____    ______ ____
DOCKED: ROOT
DOCKED: ATOM      1  O   UNL     1     -57.554 -33.674   6.930 -0.07 -0.00    -0.346 OA 
DOCKED: ATOM      2  C   UNL     1     -58.791 -33.969   7.656 -0.13 +0.00    +0.130 C  
DOCKED: ATOM      3  C   UNL     1     -59.118 -35.377   7.252 -0.20 +0.00    +0.004 A  
DOCKED: ATOM      4  C   UNL     1     -58.101 -35.882   6.453 -0.28 +0.00    +0.006 A  
DOCKED: ATOM      5  C   UNL     1     -57.041 -34.864   6.287 -0.15 +0.00    +0.169 C  
DOCKED: ATOM      6  C   UNL     1     -60.222 -36.153   7.574 -0.17 -0.00    -0.001 A  
DOCKED: ATOM      7  C   UNL     1     -58.154 -37.170   5.949 -0.34 +0.00    +0.008 A  
DOCKED: ATOM      8  C   UNL     1     -60.291 -37.453   7.070 -0.20 +0.00    +0.010 A  
DOCKED: ATOM      9  C   UNL     1     -59.262 -37.959   6.262 -0.26 +0.00    +0.068 A  
DOCKED: ATOM     10  N   UNL     1     -59.420 -40.377   5.346 -2.61 -0.00    -0.191 NA 
DOCKED: ATOM     11  C   UNL     1     -59.350 -39.292   5.756 -0.35 +0.00    +0.101 C  
DOCKED: ENDROOT
DOCKED: BRANCH   2  12
DOCKED: ATOM     12  C   UNL     1     -58.519 -33.828   9.149 -0.04 +0.00    +0.038 C  
DOCKED: BRANCH  12  13
DOCKED: ATOM     13  C   UNL     1     -59.749 -34.195   9.976 -0.03 +0.00    +0.038 C  
DOCKED: BRANCH  13  14
DOCKED: ATOM     14  C   UNL     1     -60.363 -32.957  10.626 -0.00 +0.00    +0.251 C  
DOCKED: BRANCH  14  15
DOCKED: ATOM     15  N   UNL     1     -61.815 -32.980  10.490 -0.01 +0.00    +0.141 N  
DOCKED: ATOM     16  C   UNL     1     -62.289 -31.769   9.817 +0.00 +0.00    +0.285 C  
DOCKED: ATOM     17  C   UNL     1     -62.245 -34.170   9.755 -0.00 +0.00    +0.285 C  
DOCKED: ENDBRANCH  14  15
DOCKED: ENDBRANCH  13  14
DOCKED: ENDBRANCH  12  13
DOCKED: ENDBRANCH   2  12
DOCKED: BRANCH   2  18
DOCKED: ATOM     18  C   UNL     1     -59.811 -32.980   7.199 -0.18 +0.00    +0.006 A  
DOCKED: ATOM     19  C   UNL     1     -61.047 -33.422   6.728 -0.23 +0.00    +0.001 A  
DOCKED: ATOM     20  C   UNL     1     -62.000 -32.497   6.300 -0.13 +0.00    +0.029 A  
DOCKED: ATOM     21  C   UNL     1     -61.717 -31.133   6.345 -0.12 +0.00    +0.140 A  
DOCKED: ATOM     22  C   UNL     1     -60.480 -30.692   6.817 -0.10 +0.00    +0.029 A  
DOCKED: ATOM     23  F   UNL     1     -62.632 -30.245   5.936 -0.01 -0.00    -0.204 F  
DOCKED: ATOM     24  C   UNL     1     -59.526 -31.616   7.244 -0.11 +0.00    +0.001 A  
DOCKED: ENDBRANCH   2  18
DOCKED: TORSDOF 5
DOCKED: TER
DOCKED: ENDMDL
________________________________________________________________________________


    FINAL DOCKED STATE:
    ________________________


Run:   393 / 512
Time taken for this run:   0.002s

DOCKED: MODEL        393
DOCKED: USER    Run = 393
DOCKED: USER
DOCKED: USER    Estimated Free Energy of Binding    =  -3.97 kcal/mol  [=(1)+(2)+(3)-(4)]
DOCKED: USER
DOCKED: USER    (1) Final Intermolecular Energy     =  -5.46 kcal/mol
DOCKED: USER        vdW + Hbond + desolv Energy     =  -5.46 kcal/mol
DOCKED: USER        Electrostatic Energy            =  +0.00 kcal/mol
DOCKED: USER        Moving Ligand-Fixed Receptor    =  -5.46 kcal/mol
DOCKED: USER        Moving Ligand-Moving Receptor   =  +0.00 kcal/mol
DOCKED: USER    (2) Final Total Internal Energy     =  -1.20 kcal/mol
DOCKED: USER    (3) Torsional Free Energy           =  +1.49 kcal/mol
DOCKED: USER    (4) Unbound System's Energy         =  -1.20 kcal/mol
DOCKED: USER
DOCKED: USER
DOCKED: REMARK  5 active torsions:
DOCKED: REMARK  status: ('A' for Active; 'I' for Inactive)
DOCKED: REMARK    1  A    between atoms: C_2  and  C_19 
DOCKED: REMARK    2  A    between atoms: C_2  and  C_11 
DOCKED: REMARK    3  A    between atoms: C_19  and  C_20 
DOCKED: REMARK    4  A    between atoms: C_20  and  C_21 
DOCKED: REMARK    5  A    between atoms: C_21  and  N_22 
DOCKED: USER                              x       y       z     vdW  Elec       q    Type
DOCKED: USER                           _______ _______ _______ _____ _____    ______ ____
DOCKED: ROOT
DOCKED: ATOM      1  O   UNL     1     -51.500 -28.020  -0.546 -0.04 -0.00    -0.346 OA 
DOCKED: ATOM      2  C   UNL     1     -51.163 -27.006  -1.546 -0.08 +0.00    +0.130 C  
DOCKED: ATOM      3  C   UNL     1     -52.393 -26.925  -2.404 -0.14 +0.00    +0.004 A  
DOCKED: ATOM      4  C   UNL     1     -53.385 -27.739  -1.876 -0.17 +0.00    +0.006 A  
DOCKED: ATOM      5  C   UNL     1     -52.893 -28.395  -0.643 -0.12 +0.00    +0.169 C  
DOCKED: ATOM      6  C   UNL     1     -52.619 -26.182  -3.553 -0.18 -0.00    -0.001 A  
DOCKED: ATOM      7  C   UNL     1     -54.628 -27.842  -2.476 -0.28 +0.00    +0.008 A  
DOCKED: ATOM      8  C   UNL     1     -53.867 -26.278  -4.173 -0.24 +0.00    +0.010 A  
DOCKED: ATOM      9  C   UNL     1     -54.866 -27.104  -3.636 -0.34 +0.00    +0.068 A  
DOCKED: ATOM     10  N   UNL     1     -57.172 -27.255  -4.808 -2.51 -0.00    -0.191 NA 
DOCKED: ATOM     11  C   UNL     1     -56.137 -27.188  -4.283 -0.42 +0.00    +0.101 C  
DOCKED: ENDROOT
DOCKED: BRANCH   2  12
DOCKED: ATOM     12  C   UNL     1     -50.857 -25.699  -0.825 -0.12 +0.00    +0.038 C  
DOCKED: BRANCH  12  13
DOCKED: ATOM     13  C   UNL     1     -52.120 -24.866  -0.620 -0.18 +0.00    +0.038 C  
DOCKED: BRANCH  13  14
DOCKED: ATOM     14  C   UNL     1     -51.806 -23.372  -0.661 -0.12 +0.00    +0.251 C  
DOCKED: BRANCH  14  15
DOCKED: ATOM     15  N   UNL     1     -52.898 -22.641  -1.295 -0.18 +0.00    +0.141 N  
DOCKED: ATOM     16  C   UNL     1     -52.501 -22.169  -2.622 -0.08 +0.00    +0.285 C  
DOCKED: ATOM     17  C   UNL     1     -54.093 -23.481  -1.391 -0.20 +0.00    +0.285 C  
DOCKED: ENDBRANCH  14  15
DOCKED: ENDBRANCH  13  14
DOCKED: ENDBRANCH  12  13
DOCKED: ENDBRANCH   2  12
DOCKED: BRANCH   2  18
DOCKED: ATOM     18  C   UNL     1     -49.969 -27.505  -2.288 -0.02 +0.00    +0.006 A  
DOCKED: ATOM     19  C   UNL     1     -49.262 -28.607  -1.810 -0.01 +0.00    +0.001 A  
DOCKED: ATOM     20  C   UNL     1     -48.144 -29.072  -2.504 -0.00 +0.00    +0.029 A  
DOCKED: ATOM     21  C   UNL     1     -47.736 -28.435  -3.675 -0.00 +0.00    +0.140 A  
DOCKED: ATOM     22  C   UNL     1     -48.444 -27.333  -4.153 -0.00 +0.00    +0.029 A  
DOCKED: ATOM     23  F   UNL     1     -46.665 -28.883  -4.343 +0.00 -0.00    -0.204 F  
DOCKED: ATOM     24  C   UNL     1     -49.561 -26.866  -3.459 -0.02 +0.00    +0.001 A  
DOCKED: ENDBRANCH   2  18
DOCKED: TORSDOF 5
DOCKED: TER
DOCKED: ENDMDL
________________________________________________________________________________


    FINAL DOCKED STATE:
    ________________________


Run:   394 / 512
Time taken for this run:   0.002s

DOCKED: MODEL        394
DOCKED: USER    Run = 394
DOCKED: USER
DOCKED: USER    Estimated Free Energy of Binding    =  -4.06 kcal/mol  [=(1)+(2)+(3)-(4)]
DOCKED: USER
DOCKED: USER    (1) Final Intermolecular Energy     =  -5.56 kcal/mol
DOCKED: USER        vdW + Hbond + desolv Energy     =  -5.56 kcal/mol
DOCKED: USER        Electrostatic Energy            =  +0.00 kcal/mol
DOCKED: USER        Moving Ligand-Fixed Receptor    =  -5.56 kcal/mol
DOCKED: USER        Moving Ligand-Moving Receptor   =  +0.00 kcal/mol
DOCKED: USER    (2) Final Total Internal Energy     =  -1.42 kcal/mol
DOCKED: USER    (3) Torsional Free Energy           =  +1.49 kcal/mol
DOCKED: USER    (4) Unbound System's Energy         =  -1.42 kcal/mol
DOCKED: USER
DOCKED: USER
DOCKED: REMARK  5 active torsions:
DOCKED: REMARK  status: ('A' for Active; 'I' for Inactive)
DOCKED: REMARK    1  A    between atoms: C_2  and  C_19 
DOCKED: REMARK    2  A    between atoms: C_2  and  C_11 
DOCKED: REMARK    3  A    between atoms: C_19  and  C_20 
DOCKED: REMARK    4  A    between atoms: C_20  and  C_21 
DOCKED: REMARK    5  A    between atoms: C_21  and  N_22 
DOCKED: USER                              x       y       z     vdW  Elec       q    Type
DOCKED: USER                           _______ _______ _______ _____ _____    ______ ____
DOCKED: ROOT
DOCKED: ATOM      1  O   UNL     1     -55.807 -35.198   8.675 -0.04 -0.00    -0.346 OA 
DOCKED: ATOM      2  C   UNL     1     -56.749 -34.556   7.757 -0.12 +0.00    +0.130 C  
DOCKED: ATOM      3  C   UNL     1     -57.443 -35.709   7.091 -0.23 +0.00    +0.004 A  
DOCKED: ATOM      4  C   UNL     1     -57.015 -36.902   7.657 -0.23 +0.00    +0.006 A  
DOCKED: ATOM      5  C   UNL     1     -56.033 -36.625   8.729 -0.14 +0.00    +0.169 C  
DOCKED: ATOM      6  C   UNL     1     -58.385 -35.702   6.073 -0.20 -0.00    -0.001 A  
DOCKED: ATOM      7  C   UNL     1     -57.507 -38.122   7.225 -0.32 +0.00    +0.008 A  
DOCKED: ATOM      8  C   UNL     1     -58.888 -36.924   5.624 -0.29 +0.00    +0.010 A  
DOCKED: ATOM      9  C   UNL     1     -58.452 -38.128   6.198 -0.31 +0.00    +0.068 A  
DOCKED: ATOM     10  N   UNL     1     -59.410 -40.379   5.344 -2.62 -0.00    -0.191 NA 
DOCKED: ATOM     11  C   UNL     1     -58.980 -39.369   5.726 -0.32 +0.00    +0.101 C  
DOCKED: ENDROOT
DOCKED: BRANCH   2  12
DOCKED: ATOM     12  C   UNL     1     -57.698 -33.683   8.571 -0.06 +0.00    +0.038 C  
DOCKED: BRANCH  12  13
DOCKED: ATOM     13  C   UNL     1     -57.502 -33.896  10.070 -0.02 +0.00    +0.038 C  
DOCKED: BRANCH  13  14
DOCKED: ATOM     14  C   UNL     1     -56.417 -32.970  10.619 -0.00 +0.00    +0.251 C  
DOCKED: BRANCH  14  15
DOCKED: ATOM     15  N   UNL     1     -55.576 -33.684  11.572 -0.00 +0.00    +0.141 N  
DOCKED: ATOM     16  C   UNL     1     -56.083 -35.039  11.794 -0.00 +0.00    +0.285 C  
DOCKED: ATOM     17  C   UNL     1     -54.190 -33.731  11.103 -0.00 +0.00    +0.285 C  
DOCKED: ENDBRANCH  14  15
DOCKED: ENDBRANCH  13  14
DOCKED: ENDBRANCH  12  13
DOCKED: ENDBRANCH   2  12
DOCKED: BRANCH   2  18
DOCKED: ATOM     18  C   UNL     1     -55.943 -33.735   6.807 -0.15 +0.00    +0.006 A  
DOCKED: ATOM     19  C   UNL     1     -56.451 -32.531   6.322 -0.12 +0.00    +0.001 A  
DOCKED: ATOM     20  C   UNL     1     -55.696 -31.765   5.434 -0.09 +0.00    +0.029 A  
DOCKED: ATOM     21  C   UNL     1     -54.434 -32.202   5.033 -0.07 +0.00    +0.140 A  
DOCKED: ATOM     22  C   UNL     1     -53.926 -33.406   5.519 -0.12 +0.00    +0.029 A  
DOCKED: ATOM     23  F   UNL     1     -53.709 -31.465   4.182 -0.00 -0.00    -0.204 F  
DOCKED: ATOM     24  C   UNL     1     -54.681 -34.174   6.408 -0.09 +0.00    +0.001 A  
DOCKED: ENDBRANCH   2  18
DOCKED: TORSDOF 5
DOCKED: TER
DOCKED: ENDMDL
________________________________________________________________________________


    FINAL DOCKED STATE:
    ________________________


Run:   395 / 512
Time taken for this run:   0.002s

DOCKED: MODEL        395
DOCKED: USER    Run = 395
DOCKED: USER
DOCKED: USER    Estimated Free Energy of Binding    =  -4.18 kcal/mol  [=(1)+(2)+(3)-(4)]
DOCKED: USER
DOCKED: USER    (1) Final Intermolecular Energy     =  -5.67 kcal/mol
DOCKED: USER        vdW + Hbond + desolv Energy     =  -5.67 kcal/mol
DOCKED: USER        Electrostatic Energy            =  +0.00 kcal/mol
DOCKED: USER        Moving Ligand-Fixed Receptor    =  -5.67 kcal/mol
DOCKED: USER        Moving Ligand-Moving Receptor   =  +0.00 kcal/mol
DOCKED: USER    (2) Final Total Internal Energy     =  -1.06 kcal/mol
DOCKED: USER    (3) Torsional Free Energy           =  +1.49 kcal/mol
DOCKED: USER    (4) Unbound System's Energy         =  -1.06 kcal/mol
DOCKED: USER
DOCKED: USER
DOCKED: REMARK  5 active torsions:
DOCKED: REMARK  status: ('A' for Active; 'I' for Inactive)
DOCKED: REMARK    1  A    between atoms: C_2  and  C_19 
DOCKED: REMARK    2  A    between atoms: C_2  and  C_11 
DOCKED: REMARK    3  A    between atoms: C_19  and  C_20 
DOCKED: REMARK    4  A    between atoms: C_20  and  C_21 
DOCKED: REMARK    5  A    between atoms: C_21  and  N_22 
DOCKED: USER                              x       y       z     vdW  Elec       q    Type
DOCKED: USER                           _______ _______ _______ _____ _____    ______ ____
DOCKED: ROOT
DOCKED: ATOM      1  O   UNL     1     -55.308 -35.334   8.123 -0.07 -0.00    -0.346 OA 
DOCKED: ATOM      2  C   UNL     1     -56.448 -34.648   7.514 -0.14 +0.00    +0.130 C  
DOCKED: ATOM      3  C   UNL     1     -57.275 -35.763   6.943 -0.24 +0.00    +0.004 A  
DOCKED: ATOM      4  C   UNL     1     -56.717 -36.985   7.290 -0.21 +0.00    +0.006 A  
DOCKED: ATOM      5  C   UNL     1     -55.506 -36.767   8.114 -0.13 +0.00    +0.169 C  
DOCKED: ATOM      6  C   UNL     1     -58.437 -35.701   6.186 -0.24 -0.00    -0.001 A  
DOCKED: ATOM      7  C   UNL     1     -57.292 -38.179   6.893 -0.33 +0.00    +0.008 A  
DOCKED: ATOM      8  C   UNL     1     -59.027 -36.897   5.774 -0.29 +0.00    +0.010 A  
DOCKED: ATOM      9  C   UNL     1     -58.457 -38.130   6.126 -0.31 +0.00    +0.068 A  
DOCKED: ATOM     10  N   UNL     1     -59.581 -40.331   5.349 -2.57 -0.00    -0.191 NA 
DOCKED: ATOM     11  C   UNL     1     -59.076 -39.344   5.697 -0.34 +0.00    +0.101 C  
DOCKED: ENDROOT
DOCKED: BRANCH   2  12
DOCKED: ATOM     12  C   UNL     1     -57.176 -33.864   8.599 -0.06 +0.00    +0.038 C  
DOCKED: BRANCH  12  13
DOCKED: ATOM     13  C   UNL     1     -58.013 -34.785   9.484 -0.04 +0.00    +0.038 C  
DOCKED: BRANCH  13  14
DOCKED: ATOM     14  C   UNL     1     -58.057 -34.274  10.923 -0.00 +0.00    +0.251 C  
DOCKED: BRANCH  14  15
DOCKED: ATOM     15  N   UNL     1     -59.398 -34.425  11.474 -0.00 +0.00    +0.141 N  
DOCKED: ATOM     16  C   UNL     1     -60.384 -33.758  10.623 -0.00 +0.00    +0.285 C  
DOCKED: ATOM     17  C   UNL     1     -59.736 -35.841  11.629 -0.00 +0.00    +0.285 C  
DOCKED: ENDBRANCH  14  15
DOCKED: ENDBRANCH  13  14
DOCKED: ENDBRANCH  12  13
DOCKED: ENDBRANCH   2  12
DOCKED: BRANCH   2  18
DOCKED: ATOM     18  C   UNL     1     -55.900 -33.736   6.467 -0.16 +0.00    +0.006 A  
DOCKED: ATOM     19  C   UNL     1     -56.630 -32.619   6.065 -0.11 +0.00    +0.001 A  
DOCKED: ATOM     20  C   UNL     1     -56.117 -31.767   5.086 -0.07 +0.00    +0.029 A  
DOCKED: ATOM     21  C   UNL     1     -54.874 -32.033   4.512 -0.08 +0.00    +0.140 A  
DOCKED: ATOM     22  C   UNL     1     -54.144 -33.151   4.915 -0.13 +0.00    +0.029 A  
DOCKED: ATOM     23  F   UNL     1     -54.381 -31.215   3.574 -0.01 -0.00    -0.204 F  
DOCKED: ATOM     24  C   UNL     1     -54.657 -34.004   5.894 -0.11 +0.00    +0.001 A  
DOCKED: ENDBRANCH   2  18
DOCKED: TORSDOF 5
DOCKED: TER
DOCKED: ENDMDL
________________________________________________________________________________


    FINAL DOCKED STATE:
    ________________________


Run:   396 / 512
Time taken for this run:   0.002s

DOCKED: MODEL        396
DOCKED: USER    Run = 396
DOCKED: USER
DOCKED: USER    Estimated Free Energy of Binding    =  -5.05 kcal/mol  [=(1)+(2)+(3)-(4)]
DOCKED: USER
DOCKED: USER    (1) Final Intermolecular Energy     =  -6.54 kcal/mol
DOCKED: USER        vdW + Hbond + desolv Energy     =  -6.54 kcal/mol
DOCKED: USER        Electrostatic Energy            =  +0.00 kcal/mol
DOCKED: USER        Moving Ligand-Fixed Receptor    =  -6.54 kcal/mol
DOCKED: USER        Moving Ligand-Moving Receptor   =  +0.00 kcal/mol
DOCKED: USER    (2) Final Total Internal Energy     =  -1.10 kcal/mol
DOCKED: USER    (3) Torsional Free Energy           =  +1.49 kcal/mol
DOCKED: USER    (4) Unbound System's Energy         =  -1.10 kcal/mol
DOCKED: USER
DOCKED: USER
DOCKED: REMARK  5 active torsions:
DOCKED: REMARK  status: ('A' for Active; 'I' for Inactive)
DOCKED: REMARK    1  A    between atoms: C_2  and  C_19 
DOCKED: REMARK    2  A    between atoms: C_2  and  C_11 
DOCKED: REMARK    3  A    between atoms: C_19  and  C_20 
DOCKED: REMARK    4  A    between atoms: C_20  and  C_21 
DOCKED: REMARK    5  A    between atoms: C_21  and  N_22 
DOCKED: USER                              x       y       z     vdW  Elec       q    Type
DOCKED: USER                           _______ _______ _______ _____ _____    ______ ____
DOCKED: ROOT
DOCKED: ATOM      1  O   UNL     1     -53.397 -29.727   0.181 -0.05 -0.00    -0.346 OA 
DOCKED: ATOM      2  C   UNL     1     -54.837 -29.838   0.417 -0.20 +0.00    +0.130 C  
DOCKED: ATOM      3  C   UNL     1     -55.450 -29.151  -0.769 -0.28 +0.00    +0.004 A  
DOCKED: ATOM      4  C   UNL     1     -54.454 -28.778  -1.659 -0.24 +0.00    +0.006 A  
DOCKED: ATOM      5  C   UNL     1     -53.133 -29.197  -1.139 -0.12 +0.00    +0.169 C  
DOCKED: ATOM      6  C   UNL     1     -56.784 -28.888  -1.043 +0.00 -0.00    -0.001 A  
DOCKED: ATOM      7  C   UNL     1     -54.753 -28.129  -2.845 -0.30 +0.00    +0.008 A  
DOCKED: ATOM      8  C   UNL     1     -57.102 -28.231  -2.232 -0.36 +0.00    +0.010 A  
DOCKED: ATOM      9  C   UNL     1     -56.091 -27.853  -3.129 -0.33 +0.00    +0.068 A  
DOCKED: ATOM     10  N   UNL     1     -56.716 -26.639  -5.331 -2.35 -0.00    -0.191 NA 
DOCKED: ATOM     11  C   UNL     1     -56.435 -27.183  -4.343 -0.34 +0.00    +0.101 C  
DOCKED: ENDROOT
DOCKED: BRANCH   2  12
DOCKED: ATOM     12  C   UNL     1     -55.199 -31.316   0.500 -0.23 +0.00    +0.038 C  
DOCKED: BRANCH  12  13
DOCKED: ATOM     13  C   UNL     1     -54.733 -31.931   1.818 -0.16 +0.00    +0.038 C  
DOCKED: BRANCH  13  14
DOCKED: ATOM     14  C   UNL     1     -53.297 -32.441   1.709 -0.05 +0.00    +0.251 C  
DOCKED: BRANCH  14  15
DOCKED: ATOM     15  N   UNL     1     -53.285 -33.880   1.478 -0.12 +0.00    +0.141 N  
DOCKED: ATOM     16  C   UNL     1     -54.619 -34.447   1.686 -0.22 +0.00    +0.285 C  
DOCKED: ATOM     17  C   UNL     1     -52.811 -34.182   0.126 -0.13 +0.00    +0.285 C  
DOCKED: ENDBRANCH  14  15
DOCKED: ENDBRANCH  13  14
DOCKED: ENDBRANCH  12  13
DOCKED: ENDBRANCH   2  12
DOCKED: BRANCH   2  18
DOCKED: ATOM     18  C   UNL     1     -55.123 -29.141   1.705 -0.20 +0.00    +0.006 A  
DOCKED: ATOM     19  C   UNL     1     -56.439 -28.855   2.065 -0.27 +0.00    +0.001 A  
DOCKED: ATOM     20  C   UNL     1     -56.705 -28.203   3.270 -0.23 +0.00    +0.029 A  
DOCKED: ATOM     21  C   UNL     1     -55.655 -27.838   4.112 -0.15 +0.00    +0.140 A  
DOCKED: ATOM     22  C   UNL     1     -54.339 -28.125   3.751 -0.04 +0.00    +0.029 A  
DOCKED: ATOM     23  F   UNL     1     -55.911 -27.214   5.269 -0.04 -0.00    -0.204 F  
DOCKED: ATOM     24  C   UNL     1     -54.072 -28.777   2.546 -0.14 +0.00    +0.001 A  
DOCKED: ENDBRANCH   2  18
DOCKED: TORSDOF 5
DOCKED: TER
DOCKED: ENDMDL
________________________________________________________________________________


    FINAL DOCKED STATE:
    ________________________


Run:   397 / 512
Time taken for this run:   0.002s

DOCKED: MODEL        397
DOCKED: USER    Run = 397
DOCKED: USER
DOCKED: USER    Estimated Free Energy of Binding    =  -4.63 kcal/mol  [=(1)+(2)+(3)-(4)]
DOCKED: USER
DOCKED: USER    (1) Final Intermolecular Energy     =  -6.12 kcal/mol
DOCKED: USER        vdW + Hbond + desolv Energy     =  -6.12 kcal/mol
DOCKED: USER        Electrostatic Energy            =  +0.00 kcal/mol
DOCKED: USER        Moving Ligand-Fixed Receptor    =  -6.12 kcal/mol
DOCKED: USER        Moving Ligand-Moving Receptor   =  +0.00 kcal/mol
DOCKED: USER    (2) Final Total Internal Energy     =  -1.50 kcal/mol
DOCKED: USER    (3) Torsional Free Energy           =  +1.49 kcal/mol
DOCKED: USER    (4) Unbound System's Energy         =  -1.50 kcal/mol
DOCKED: USER
DOCKED: USER
DOCKED: REMARK  5 active torsions:
DOCKED: REMARK  status: ('A' for Active; 'I' for Inactive)
DOCKED: REMARK    1  A    between atoms: C_2  and  C_19 
DOCKED: REMARK    2  A    between atoms: C_2  and  C_11 
DOCKED: REMARK    3  A    between atoms: C_19  and  C_20 
DOCKED: REMARK    4  A    between atoms: C_20  and  C_21 
DOCKED: REMARK    5  A    between atoms: C_21  and  N_22 
DOCKED: USER                              x       y       z     vdW  Elec       q    Type
DOCKED: USER                           _______ _______ _______ _____ _____    ______ ____
DOCKED: ROOT
DOCKED: ATOM      1  O   UNL     1     -58.584 -35.998   8.223 -0.02 -0.00    -0.346 OA 
DOCKED: ATOM      2  C   UNL     1     -57.689 -37.155   8.161 -0.16 +0.00    +0.130 C  
DOCKED: ATOM      3  C   UNL     1     -58.023 -37.797   6.846 -0.31 +0.00    +0.004 A  
DOCKED: ATOM      4  C   UNL     1     -58.947 -37.017   6.166 -0.31 +0.00    +0.006 A  
DOCKED: ATOM      5  C   UNL     1     -59.275 -35.815   6.965 -0.19 +0.00    +0.169 C  
DOCKED: ATOM      6  C   UNL     1     -57.539 -38.973   6.291 -0.41 -0.00    -0.001 A  
DOCKED: ATOM      7  C   UNL     1     -59.420 -37.384   4.918 -0.09 +0.00    +0.008 A  
DOCKED: ATOM      8  C   UNL     1     -58.009 -39.359   5.035 -0.33 +0.00    +0.010 A  
DOCKED: ATOM      9  C   UNL     1     -58.944 -38.568   4.352 -0.43 +0.00    +0.068 A  
DOCKED: ATOM     10  N   UNL     1     -59.793 -39.310   2.019 -2.24 -0.00    -0.191 NA 
DOCKED: ATOM     11  C   UNL     1     -59.413 -38.977   3.065 -0.50 +0.00    +0.101 C  
DOCKED: ENDROOT
DOCKED: BRANCH   2  12
DOCKED: ATOM     12  C   UNL     1     -56.251 -36.656   8.230 -0.21 +0.00    +0.038 C  
DOCKED: BRANCH  12  13
DOCKED: ATOM     13  C   UNL     1     -56.190 -35.187   8.644 -0.11 +0.00    +0.038 C  
DOCKED: BRANCH  13  14
DOCKED: ATOM     14  C   UNL     1     -56.458 -35.026  10.139 -0.01 +0.00    +0.251 C  
DOCKED: BRANCH  14  15
DOCKED: ATOM     15  N   UNL     1     -57.374 -33.917  10.374 -0.01 +0.00    +0.141 N  
DOCKED: ATOM     16  C   UNL     1     -57.719 -33.257   9.114 -0.01 +0.00    +0.285 C  
DOCKED: ATOM     17  C   UNL     1     -58.586 -34.383  11.050 -0.00 +0.00    +0.285 C  
DOCKED: ENDBRANCH  14  15
DOCKED: ENDBRANCH  13  14
DOCKED: ENDBRANCH  12  13
DOCKED: ENDBRANCH   2  12
DOCKED: BRANCH   2  18
DOCKED: ATOM     18  C   UNL     1     -58.015 -38.021   9.332 -0.15 +0.00    +0.006 A  
DOCKED: ATOM     19  C   UNL     1     -59.034 -37.653  10.209 -0.09 +0.00    +0.001 A  
DOCKED: ATOM     20  C   UNL     1     -59.337 -38.464  11.303 -0.10 +0.00    +0.029 A  
DOCKED: ATOM     21  C   UNL     1     -58.622 -39.642  11.518 -0.11 +0.00    +0.140 A  
DOCKED: ATOM     22  C   UNL     1     -57.603 -40.009  10.640 -0.19 +0.00    +0.029 A  
DOCKED: ATOM     23  F   UNL     1     -58.915 -40.421  12.567 -0.04 -0.00    -0.204 F  
DOCKED: ATOM     24  C   UNL     1     -57.299 -39.198   9.545 -0.08 +0.00    +0.001 A  
DOCKED: ENDBRANCH   2  18
DOCKED: TORSDOF 5
DOCKED: TER
DOCKED: ENDMDL
________________________________________________________________________________


    FINAL DOCKED STATE:
    ________________________


Run:   398 / 512
Time taken for this run:   0.002s

DOCKED: MODEL        398
DOCKED: USER    Run = 398
DOCKED: USER
DOCKED: USER    Estimated Free Energy of Binding    =  -4.16 kcal/mol  [=(1)+(2)+(3)-(4)]
DOCKED: USER
DOCKED: USER    (1) Final Intermolecular Energy     =  -5.65 kcal/mol
DOCKED: USER        vdW + Hbond + desolv Energy     =  -5.65 kcal/mol
DOCKED: USER        Electrostatic Energy            =  +0.00 kcal/mol
DOCKED: USER        Moving Ligand-Fixed Receptor    =  -5.65 kcal/mol
DOCKED: USER        Moving Ligand-Moving Receptor   =  +0.00 kcal/mol
DOCKED: USER    (2) Final Total Internal Energy     =  -0.96 kcal/mol
DOCKED: USER    (3) Torsional Free Energy           =  +1.49 kcal/mol
DOCKED: USER    (4) Unbound System's Energy         =  -0.96 kcal/mol
DOCKED: USER
DOCKED: USER
DOCKED: REMARK  5 active torsions:
DOCKED: REMARK  status: ('A' for Active; 'I' for Inactive)
DOCKED: REMARK    1  A    between atoms: C_2  and  C_19 
DOCKED: REMARK    2  A    between atoms: C_2  and  C_11 
DOCKED: REMARK    3  A    between atoms: C_19  and  C_20 
DOCKED: REMARK    4  A    between atoms: C_20  and  C_21 
DOCKED: REMARK    5  A    between atoms: C_21  and  N_22 
DOCKED: USER                              x       y       z     vdW  Elec       q    Type
DOCKED: USER                           _______ _______ _______ _____ _____    ______ ____
DOCKED: ROOT
DOCKED: ATOM      1  O   UNL     1     -56.189 -34.356   7.770 -0.05 -0.00    -0.346 OA 
DOCKED: ATOM      2  C   UNL     1     -55.798 -35.506   8.586 -0.11 +0.00    +0.130 C  
DOCKED: ATOM      3  C   UNL     1     -56.608 -36.638   8.023 -0.20 +0.00    +0.004 A  
DOCKED: ATOM      4  C   UNL     1     -57.316 -36.199   6.913 -0.25 +0.00    +0.006 A  
DOCKED: ATOM      5  C   UNL     1     -57.018 -34.771   6.660 -0.19 +0.00    +0.169 C  
DOCKED: ATOM      6  C   UNL     1     -56.702 -37.954   8.451 -0.23 -0.00    -0.001 A  
DOCKED: ATOM      7  C   UNL     1     -58.140 -37.053   6.200 -0.33 +0.00    +0.008 A  
DOCKED: ATOM      8  C   UNL     1     -57.533 -38.826   7.745 -0.32 +0.00    +0.010 A  
DOCKED: ATOM      9  C   UNL     1     -58.248 -38.377   6.625 -0.30 +0.00    +0.068 A  
DOCKED: ATOM     10  N   UNL     1     -59.777 -40.023   5.334 -2.55 -0.00    -0.191 NA 
DOCKED: ATOM     11  C   UNL     1     -59.091 -39.285   5.913 -0.31 +0.00    +0.101 C  
DOCKED: ENDROOT
DOCKED: BRANCH   2  12
DOCKED: ATOM     12  C   UNL     1     -54.297 -35.718   8.434 -0.14 +0.00    +0.038 C  
DOCKED: BRANCH  12  13
DOCKED: ATOM     13  C   UNL     1     -53.795 -36.830   9.353 -0.15 +0.00    +0.038 C  
DOCKED: BRANCH  13  14
DOCKED: ATOM     14  C   UNL     1     -52.737 -37.683   8.656 -0.13 +0.00    +0.251 C  
DOCKED: BRANCH  14  15
DOCKED: ATOM     15  N   UNL     1     -52.285 -38.752   9.538 -0.13 +0.00    +0.141 N  
DOCKED: ATOM     16  C   UNL     1     -51.364 -39.647   8.835 -0.13 +0.00    +0.285 C  
DOCKED: ATOM     17  C   UNL     1     -51.643 -38.199  10.732 -0.05 +0.00    +0.285 C  
DOCKED: ENDBRANCH  14  15
DOCKED: ENDBRANCH  13  14
DOCKED: ENDBRANCH  12  13
DOCKED: ENDBRANCH   2  12
DOCKED: BRANCH   2  18
DOCKED: ATOM     18  C   UNL     1     -56.156 -35.182   9.998 -0.04 +0.00    +0.006 A  
DOCKED: ATOM     19  C   UNL     1     -55.362 -34.303  10.733 -0.01 +0.00    +0.001 A  
DOCKED: ATOM     20  C   UNL     1     -55.697 -34.001  12.054 -0.00 +0.00    +0.029 A  
DOCKED: ATOM     21  C   UNL     1     -56.825 -34.576  12.636 -0.00 +0.00    +0.140 A  
DOCKED: ATOM     22  C   UNL     1     -57.620 -35.455  11.900 -0.01 +0.00    +0.029 A  
DOCKED: ATOM     23  F   UNL     1     -57.148 -34.284  13.903 +0.00 -0.00    -0.204 F  
DOCKED: ATOM     24  C   UNL     1     -57.285 -35.759  10.579 -0.03 +0.00    +0.001 A  
DOCKED: ENDBRANCH   2  18
DOCKED: TORSDOF 5
DOCKED: TER
DOCKED: ENDMDL
________________________________________________________________________________


    FINAL DOCKED STATE:
    ________________________


Run:   399 / 512
Time taken for this run:   0.002s

DOCKED: MODEL        399
DOCKED: USER    Run = 399
DOCKED: USER
DOCKED: USER    Estimated Free Energy of Binding    =  -5.55 kcal/mol  [=(1)+(2)+(3)-(4)]
DOCKED: USER
DOCKED: USER    (1) Final Intermolecular Energy     =  -7.04 kcal/mol
DOCKED: USER        vdW + Hbond + desolv Energy     =  -7.04 kcal/mol
DOCKED: USER        Electrostatic Energy            =  +0.00 kcal/mol
DOCKED: USER        Moving Ligand-Fixed Receptor    =  -7.04 kcal/mol
DOCKED: USER        Moving Ligand-Moving Receptor   =  +0.00 kcal/mol
DOCKED: USER    (2) Final Total Internal Energy     =  -1.47 kcal/mol
DOCKED: USER    (3) Torsional Free Energy           =  +1.49 kcal/mol
DOCKED: USER    (4) Unbound System's Energy         =  -1.47 kcal/mol
DOCKED: USER
DOCKED: USER
DOCKED: REMARK  5 active torsions:
DOCKED: REMARK  status: ('A' for Active; 'I' for Inactive)
DOCKED: REMARK    1  A    between atoms: C_2  and  C_19 
DOCKED: REMARK    2  A    between atoms: C_2  and  C_11 
DOCKED: REMARK    3  A    between atoms: C_19  and  C_20 
DOCKED: REMARK    4  A    between atoms: C_20  and  C_21 
DOCKED: REMARK    5  A    between atoms: C_21  and  N_22 
DOCKED: USER                              x       y       z     vdW  Elec       q    Type
DOCKED: USER                           _______ _______ _______ _____ _____    ______ ____
DOCKED: ROOT
DOCKED: ATOM      1  O   UNL     1     -57.889 -36.156   8.003 -0.04 -0.00    -0.346 OA 
DOCKED: ATOM      2  C   UNL     1     -57.364 -37.522   7.957 -0.21 +0.00    +0.130 C  
DOCKED: ATOM      3  C   UNL     1     -57.835 -38.043   6.630 -0.34 +0.00    +0.004 A  
DOCKED: ATOM      4  C   UNL     1     -58.477 -37.031   5.931 -0.34 +0.00    +0.006 A  
DOCKED: ATOM      5  C   UNL     1     -58.464 -35.784   6.729 -0.22 +0.00    +0.169 C  
DOCKED: ATOM      6  C   UNL     1     -57.697 -39.310   6.081 -0.41 -0.00    -0.001 A  
DOCKED: ATOM      7  C   UNL     1     -59.003 -37.248   4.669 -0.04 +0.00    +0.008 A  
DOCKED: ATOM      8  C   UNL     1     -58.226 -39.546   4.811 -0.40 +0.00    +0.010 A  
DOCKED: ATOM      9  C   UNL     1     -58.875 -38.519   4.109 -0.42 +0.00    +0.068 A  
DOCKED: ATOM     10  N   UNL     1     -59.841 -38.989   1.751 -2.73 -0.00    -0.191 NA 
DOCKED: ATOM     11  C   UNL     1     -59.409 -38.779   2.809 -0.45 +0.00    +0.101 C  
DOCKED: ENDROOT
DOCKED: BRANCH   2  12
DOCKED: ATOM     12  C   UNL     1     -55.845 -37.459   8.065 -0.24 +0.00    +0.038 C  
DOCKED: BRANCH  12  13
DOCKED: ATOM     13  C   UNL     1     -55.343 -36.018   8.019 -0.15 +0.00    +0.038 C  
DOCKED: BRANCH  13  14
DOCKED: ATOM     14  C   UNL     1     -55.199 -35.441   9.427 -0.05 +0.00    +0.251 C  
DOCKED: BRANCH  14  15
DOCKED: ATOM     15  N   UNL     1     -56.374 -34.650   9.773 -0.02 +0.00    +0.141 N  
DOCKED: ATOM     16  C   UNL     1     -57.042 -35.206  10.951 -0.00 +0.00    +0.285 C  
DOCKED: ATOM     17  C   UNL     1     -56.003 -33.254  10.012 -0.00 +0.00    +0.285 C  
DOCKED: ENDBRANCH  14  15
DOCKED: ENDBRANCH  13  14
DOCKED: ENDBRANCH  12  13
DOCKED: ENDBRANCH   2  12
DOCKED: BRANCH   2  18
DOCKED: ATOM     18  C   UNL     1     -57.956 -38.256   9.114 -0.18 +0.00    +0.006 A  
DOCKED: ATOM     19  C   UNL     1     -57.154 -38.613  10.197 -0.17 +0.00    +0.001 A  
DOCKED: ATOM     20  C   UNL     1     -57.709 -39.299  11.277 -0.21 +0.00    +0.029 A  
DOCKED: ATOM     21  C   UNL     1     -59.064 -39.627  11.274 -0.05 +0.00    +0.140 A  
DOCKED: ATOM     22  C   UNL     1     -59.866 -39.269  10.191 -0.15 +0.00    +0.029 A  
DOCKED: ATOM     23  F   UNL     1     -59.596 -40.284  12.312 -0.03 -0.00    -0.204 F  
DOCKED: ATOM     24  C   UNL     1     -59.312 -38.583   9.109 -0.18 +0.00    +0.001 A  
DOCKED: ENDBRANCH   2  18
DOCKED: TORSDOF 5
DOCKED: TER
DOCKED: ENDMDL
________________________________________________________________________________


    FINAL DOCKED STATE:
    ________________________


Run:   400 / 512
Time taken for this run:   0.002s

DOCKED: MODEL        400
DOCKED: USER    Run = 400
DOCKED: USER
DOCKED: USER    Estimated Free Energy of Binding    =  -3.82 kcal/mol  [=(1)+(2)+(3)-(4)]
DOCKED: USER
DOCKED: USER    (1) Final Intermolecular Energy     =  -5.32 kcal/mol
DOCKED: USER        vdW + Hbond + desolv Energy     =  -5.32 kcal/mol
DOCKED: USER        Electrostatic Energy            =  +0.00 kcal/mol
DOCKED: USER        Moving Ligand-Fixed Receptor    =  -5.32 kcal/mol
DOCKED: USER        Moving Ligand-Moving Receptor   =  +0.00 kcal/mol
DOCKED: USER    (2) Final Total Internal Energy     =  -1.32 kcal/mol
DOCKED: USER    (3) Torsional Free Energy           =  +1.49 kcal/mol
DOCKED: USER    (4) Unbound System's Energy         =  -1.32 kcal/mol
DOCKED: USER
DOCKED: USER
DOCKED: REMARK  5 active torsions:
DOCKED: REMARK  status: ('A' for Active; 'I' for Inactive)
DOCKED: REMARK    1  A    between atoms: C_2  and  C_19 
DOCKED: REMARK    2  A    between atoms: C_2  and  C_11 
DOCKED: REMARK    3  A    between atoms: C_19  and  C_20 
DOCKED: REMARK    4  A    between atoms: C_20  and  C_21 
DOCKED: REMARK    5  A    between atoms: C_21  and  N_22 
DOCKED: USER                              x       y       z     vdW  Elec       q    Type
DOCKED: USER                           _______ _______ _______ _____ _____    ______ ____
DOCKED: ROOT
DOCKED: ATOM      1  O   UNL     1     -51.195 -25.579  -1.092 -0.05 -0.00    -0.346 OA 
DOCKED: ATOM      2  C   UNL     1     -50.761 -25.425  -2.481 -0.06 +0.00    +0.130 C  
DOCKED: ATOM      3  C   UNL     1     -51.994 -25.735  -3.279 -0.15 +0.00    +0.004 A  
DOCKED: ATOM      4  C   UNL     1     -53.066 -25.939  -2.423 -0.24 +0.00    +0.006 A  
DOCKED: ATOM      5  C   UNL     1     -52.627 -25.768  -1.019 -0.03 +0.00    +0.169 C  
DOCKED: ATOM      6  C   UNL     1     -52.156 -25.819  -4.655 -0.17 -0.00    -0.001 A  
DOCKED: ATOM      7  C   UNL     1     -54.329 -26.236  -2.906 -0.32 +0.00    +0.008 A  
DOCKED: ATOM      8  C   UNL     1     -53.422 -26.122  -5.158 -0.25 +0.00    +0.010 A  
DOCKED: ATOM      9  C   UNL     1     -54.503 -26.329  -4.288 -0.31 +0.00    +0.068 A  
DOCKED: ATOM     10  N   UNL     1     -56.841 -26.884  -5.256 -2.55 -0.00    -0.191 NA 
DOCKED: ATOM     11  C   UNL     1     -55.792 -26.636  -4.821 -0.39 +0.00    +0.101 C  
DOCKED: ENDROOT
DOCKED: BRANCH   2  12
DOCKED: ATOM     12  C   UNL     1     -50.270 -23.996  -2.678 -0.08 +0.00    +0.038 C  
DOCKED: BRANCH  12  13
DOCKED: ATOM     13  C   UNL     1     -50.851 -23.057  -1.622 -0.09 +0.00    +0.038 C  
DOCKED: BRANCH  13  14
DOCKED: ATOM     14  C   UNL     1     -52.217 -22.525  -2.051 -0.12 +0.00    +0.251 C  
DOCKED: BRANCH  14  15
DOCKED: ATOM     15  N   UNL     1     -53.142 -22.536  -0.925 -0.20 +0.00    +0.141 N  
DOCKED: ATOM     16  C   UNL     1     -52.909 -21.383  -0.054 -0.07 +0.00    +0.285 C  
DOCKED: ATOM     17  C   UNL     1     -54.528 -22.545  -1.396 -0.18 +0.00    +0.285 C  
DOCKED: ENDBRANCH  14  15
DOCKED: ENDBRANCH  13  14
DOCKED: ENDBRANCH  12  13
DOCKED: ENDBRANCH   2  12
DOCKED: BRANCH   2  18
DOCKED: ATOM     18  C   UNL     1     -49.660 -26.408  -2.705 -0.02 +0.00    +0.006 A  
DOCKED: ATOM     19  C   UNL     1     -49.605 -27.577  -1.947 -0.02 +0.00    +0.001 A  
DOCKED: ATOM     20  C   UNL     1     -48.575 -28.495  -2.158 -0.00 +0.00    +0.029 A  
DOCKED: ATOM     21  C   UNL     1     -47.604 -28.243  -3.125 -0.00 +0.00    +0.140 A  
DOCKED: ATOM     22  C   UNL     1     -47.660 -27.074  -3.883 -0.00 +0.00    +0.029 A  
DOCKED: ATOM     23  F   UNL     1     -46.617 -29.125  -3.328 +0.00 -0.00    -0.204 F  
DOCKED: ATOM     24  C   UNL     1     -48.689 -26.155  -3.673 -0.01 +0.00    +0.001 A  
DOCKED: ENDBRANCH   2  18
DOCKED: TORSDOF 5
DOCKED: TER
DOCKED: ENDMDL
________________________________________________________________________________


    FINAL DOCKED STATE:
    ________________________


Run:   401 / 512
Time taken for this run:   0.002s

DOCKED: MODEL        401
DOCKED: USER    Run = 401
DOCKED: USER
DOCKED: USER    Estimated Free Energy of Binding    =  -4.80 kcal/mol  [=(1)+(2)+(3)-(4)]
DOCKED: USER
DOCKED: USER    (1) Final Intermolecular Energy     =  -6.29 kcal/mol
DOCKED: USER        vdW + Hbond + desolv Energy     =  -6.29 kcal/mol
DOCKED: USER        Electrostatic Energy            =  +0.00 kcal/mol
DOCKED: USER        Moving Ligand-Fixed Receptor    =  -6.29 kcal/mol
DOCKED: USER        Moving Ligand-Moving Receptor   =  +0.00 kcal/mol
DOCKED: USER    (2) Final Total Internal Energy     =  -1.30 kcal/mol
DOCKED: USER    (3) Torsional Free Energy           =  +1.49 kcal/mol
DOCKED: USER    (4) Unbound System's Energy         =  -1.30 kcal/mol
DOCKED: USER
DOCKED: USER
DOCKED: REMARK  5 active torsions:
DOCKED: REMARK  status: ('A' for Active; 'I' for Inactive)
DOCKED: REMARK    1  A    between atoms: C_2  and  C_19 
DOCKED: REMARK    2  A    between atoms: C_2  and  C_11 
DOCKED: REMARK    3  A    between atoms: C_19  and  C_20 
DOCKED: REMARK    4  A    between atoms: C_20  and  C_21 
DOCKED: REMARK    5  A    between atoms: C_21  and  N_22 
DOCKED: USER                              x       y       z     vdW  Elec       q    Type
DOCKED: USER                           _______ _______ _______ _____ _____    ______ ____
DOCKED: ROOT
DOCKED: ATOM      1  O   UNL     1     -58.510 -36.121   9.128 -0.00 -0.00    -0.346 OA 
DOCKED: ATOM      2  C   UNL     1     -57.703 -37.339   9.052 -0.12 +0.00    +0.130 C  
DOCKED: ATOM      3  C   UNL     1     -57.966 -37.859   7.669 -0.24 +0.00    +0.004 A  
DOCKED: ATOM      4  C   UNL     1     -58.764 -36.960   6.976 -0.24 +0.00    +0.006 A  
DOCKED: ATOM      5  C   UNL     1     -59.070 -35.795   7.835 -0.12 +0.00    +0.169 C  
DOCKED: ATOM      6  C   UNL     1     -57.524 -39.028   7.067 -0.39 -0.00    -0.001 A  
DOCKED: ATOM      7  C   UNL     1     -59.151 -37.199   5.668 -0.30 +0.00    +0.008 A  
DOCKED: ATOM      8  C   UNL     1     -57.909 -39.286   5.750 -0.43 +0.00    +0.010 A  
DOCKED: ATOM      9  C   UNL     1     -58.718 -38.375   5.054 -0.38 +0.00    +0.068 A  
DOCKED: ATOM     10  N   UNL     1     -59.409 -38.880   2.609 -1.95 -0.00    -0.191 NA 
DOCKED: ATOM     11  C   UNL     1     -59.100 -38.654   3.706 -0.52 +0.00    +0.101 C  
DOCKED: ENDROOT
DOCKED: BRANCH   2  12
DOCKED: ATOM     12  C   UNL     1     -56.243 -36.965   9.278 -0.15 +0.00    +0.038 C  
DOCKED: BRANCH  12  13
DOCKED: ATOM     13  C   UNL     1     -55.536 -36.657   7.960 -0.16 +0.00    +0.038 C  
DOCKED: BRANCH  13  14
DOCKED: ATOM     14  C   UNL     1     -54.472 -35.577   8.146 -0.08 +0.00    +0.251 C  
DOCKED: BRANCH  14  15
DOCKED: ATOM     15  N   UNL     1     -55.004 -34.272   7.772 -0.08 +0.00    +0.141 N  
DOCKED: ATOM     16  C   UNL     1     -56.032 -34.410   6.739 -0.12 +0.00    +0.285 C  
DOCKED: ATOM     17  C   UNL     1     -55.550 -33.582   8.942 -0.02 +0.00    +0.285 C  
DOCKED: ENDBRANCH  14  15
DOCKED: ENDBRANCH  13  14
DOCKED: ENDBRANCH  12  13
DOCKED: ENDBRANCH   2  12
DOCKED: BRANCH   2  18
DOCKED: ATOM     18  C   UNL     1     -58.195 -38.256  10.122 -0.15 +0.00    +0.006 A  
DOCKED: ATOM     19  C   UNL     1     -57.288 -39.010  10.865 -0.20 +0.00    +0.001 A  
DOCKED: ATOM     20  C   UNL     1     -57.750 -39.867  11.865 -0.23 +0.00    +0.029 A  
DOCKED: ATOM     21  C   UNL     1     -59.117 -39.969  12.119 -0.08 +0.00    +0.140 A  
DOCKED: ATOM     22  C   UNL     1     -60.024 -39.215  11.375 -0.14 +0.00    +0.029 A  
DOCKED: ATOM     23  F   UNL     1     -59.560 -40.791  13.079 -0.05 -0.00    -0.204 F  
DOCKED: ATOM     24  C   UNL     1     -59.563 -38.357  10.374 -0.12 +0.00    +0.001 A  
DOCKED: ENDBRANCH   2  18
DOCKED: TORSDOF 5
DOCKED: TER
DOCKED: ENDMDL
________________________________________________________________________________


    FINAL DOCKED STATE:
    ________________________


Run:   402 / 512
Time taken for this run:   0.002s

DOCKED: MODEL        402
DOCKED: USER    Run = 402
DOCKED: USER
DOCKED: USER    Estimated Free Energy of Binding    =  -4.66 kcal/mol  [=(1)+(2)+(3)-(4)]
DOCKED: USER
DOCKED: USER    (1) Final Intermolecular Energy     =  -6.15 kcal/mol
DOCKED: USER        vdW + Hbond + desolv Energy     =  -6.15 kcal/mol
DOCKED: USER        Electrostatic Energy            =  +0.00 kcal/mol
DOCKED: USER        Moving Ligand-Fixed Receptor    =  -6.15 kcal/mol
DOCKED: USER        Moving Ligand-Moving Receptor   =  +0.00 kcal/mol
DOCKED: USER    (2) Final Total Internal Energy     =  -1.39 kcal/mol
DOCKED: USER    (3) Torsional Free Energy           =  +1.49 kcal/mol
DOCKED: USER    (4) Unbound System's Energy         =  -1.39 kcal/mol
DOCKED: USER
DOCKED: USER
DOCKED: REMARK  5 active torsions:
DOCKED: REMARK  status: ('A' for Active; 'I' for Inactive)
DOCKED: REMARK    1  A    between atoms: C_2  and  C_19 
DOCKED: REMARK    2  A    between atoms: C_2  and  C_11 
DOCKED: REMARK    3  A    between atoms: C_19  and  C_20 
DOCKED: REMARK    4  A    between atoms: C_20  and  C_21 
DOCKED: REMARK    5  A    between atoms: C_21  and  N_22 
DOCKED: USER                              x       y       z     vdW  Elec       q    Type
DOCKED: USER                           _______ _______ _______ _____ _____    ______ ____
DOCKED: ROOT
DOCKED: ATOM      1  O   UNL     1     -56.259 -29.776   1.343 -0.12 -0.00    -0.346 OA 
DOCKED: ATOM      2  C   UNL     1     -54.960 -29.931   0.685 -0.20 +0.00    +0.130 C  
DOCKED: ATOM      3  C   UNL     1     -55.168 -29.318  -0.669 -0.27 +0.00    +0.004 A  
DOCKED: ATOM      4  C   UNL     1     -56.438 -28.762  -0.741 -0.09 +0.00    +0.006 A  
DOCKED: ATOM      5  C   UNL     1     -57.143 -28.954   0.546 -0.15 +0.00    +0.169 C  
DOCKED: ATOM      6  C   UNL     1     -54.299 -29.247  -1.748 -0.24 -0.00    -0.001 A  
DOCKED: ATOM      7  C   UNL     1     -56.882 -28.124  -1.886 -0.11 +0.00    +0.008 A  
DOCKED: ATOM      8  C   UNL     1     -54.733 -28.611  -2.912 -0.26 +0.00    +0.010 A  
DOCKED: ATOM      9  C   UNL     1     -56.018 -28.052  -2.980 -0.29 +0.00    +0.068 A  
DOCKED: ATOM     10  N   UNL     1     -56.792 -26.874  -5.155 -2.54 -0.00    -0.191 NA 
DOCKED: ATOM     11  C   UNL     1     -56.445 -27.403  -4.180 -0.31 +0.00    +0.101 C  
DOCKED: ENDROOT
DOCKED: BRANCH   2  12
DOCKED: ATOM     12  C   UNL     1     -53.910 -29.200   1.513 -0.17 +0.00    +0.038 C  
DOCKED: BRANCH  12  13
DOCKED: ATOM     13  C   UNL     1     -54.179 -29.347   3.009 -0.15 +0.00    +0.038 C  
DOCKED: BRANCH  13  14
DOCKED: ATOM     14  C   UNL     1     -52.956 -29.905   3.735 -0.05 +0.00    +0.251 C  
DOCKED: BRANCH  14  15
DOCKED: ATOM     15  N   UNL     1     -52.435 -31.069   3.029 -0.02 +0.00    +0.141 N  
DOCKED: ATOM     16  C   UNL     1     -50.995 -30.934   2.804 -0.01 +0.00    +0.285 C  
DOCKED: ATOM     17  C   UNL     1     -52.719 -32.296   3.776 -0.03 +0.00    +0.285 C  
DOCKED: ENDBRANCH  14  15
DOCKED: ENDBRANCH  13  14
DOCKED: ENDBRANCH  12  13
DOCKED: ENDBRANCH   2  12
DOCKED: BRANCH   2  18
DOCKED: ATOM     18  C   UNL     1     -54.675 -31.394   0.623 -0.17 +0.00    +0.006 A  
DOCKED: ATOM     19  C   UNL     1     -53.494 -31.849   0.037 -0.11 +0.00    +0.001 A  
DOCKED: ATOM     20  C   UNL     1     -53.229 -33.218  -0.021 -0.15 +0.00    +0.029 A  
DOCKED: ATOM     21  C   UNL     1     -54.142 -34.129   0.508 -0.19 +0.00    +0.140 A  
DOCKED: ATOM     22  C   UNL     1     -55.322 -33.673   1.095 -0.20 +0.00    +0.029 A  
DOCKED: ATOM     23  F   UNL     1     -53.886 -35.442   0.455 -0.11 -0.00    -0.204 F  
DOCKED: ATOM     24  C   UNL     1     -55.589 -32.304   1.153 -0.22 +0.00    +0.001 A  
DOCKED: ENDBRANCH   2  18
DOCKED: TORSDOF 5
DOCKED: TER
DOCKED: ENDMDL
________________________________________________________________________________


    FINAL DOCKED STATE:
    ________________________


Run:   403 / 512
Time taken for this run:   0.002s

DOCKED: MODEL        403
DOCKED: USER    Run = 403
DOCKED: USER
DOCKED: USER    Estimated Free Energy of Binding    =  -4.29 kcal/mol  [=(1)+(2)+(3)-(4)]
DOCKED: USER
DOCKED: USER    (1) Final Intermolecular Energy     =  -5.78 kcal/mol
DOCKED: USER        vdW + Hbond + desolv Energy     =  -5.78 kcal/mol
DOCKED: USER        Electrostatic Energy            =  +0.00 kcal/mol
DOCKED: USER        Moving Ligand-Fixed Receptor    =  -5.78 kcal/mol
DOCKED: USER        Moving Ligand-Moving Receptor   =  +0.00 kcal/mol
DOCKED: USER    (2) Final Total Internal Energy     =  -1.18 kcal/mol
DOCKED: USER    (3) Torsional Free Energy           =  +1.49 kcal/mol
DOCKED: USER    (4) Unbound System's Energy         =  -1.18 kcal/mol
DOCKED: USER
DOCKED: USER
DOCKED: REMARK  5 active torsions:
DOCKED: REMARK  status: ('A' for Active; 'I' for Inactive)
DOCKED: REMARK    1  A    between atoms: C_2  and  C_19 
DOCKED: REMARK    2  A    between atoms: C_2  and  C_11 
DOCKED: REMARK    3  A    between atoms: C_19  and  C_20 
DOCKED: REMARK    4  A    between atoms: C_20  and  C_21 
DOCKED: REMARK    5  A    between atoms: C_21  and  N_22 
DOCKED: USER                              x       y       z     vdW  Elec       q    Type
DOCKED: USER                           _______ _______ _______ _____ _____    ______ ____
DOCKED: ROOT
DOCKED: ATOM      1  O   UNL     1     -60.517 -37.339   8.825 -0.00 -0.00    -0.346 OA 
DOCKED: ATOM      2  C   UNL     1     -59.408 -36.559   8.272 -0.10 +0.00    +0.130 C  
DOCKED: ATOM      3  C   UNL     1     -59.314 -37.026   6.849 -0.24 +0.00    +0.004 A  
DOCKED: ATOM      4  C   UNL     1     -60.347 -37.913   6.579 -0.25 +0.00    +0.006 A  
DOCKED: ATOM      5  C   UNL     1     -61.191 -38.082   7.783 -0.13 +0.00    +0.169 C  
DOCKED: ATOM      6  C   UNL     1     -58.394 -36.685   5.868 -0.33 -0.00    -0.001 A  
DOCKED: ATOM      7  C   UNL     1     -60.493 -38.489   5.329 -0.35 +0.00    +0.008 A  
DOCKED: ATOM      8  C   UNL     1     -58.526 -37.261   4.603 -0.15 +0.00    +0.010 A  
DOCKED: ATOM      9  C   UNL     1     -59.571 -38.159   4.335 -0.35 +0.00    +0.068 A  
DOCKED: ATOM     10  N   UNL     1     -59.789 -39.206   1.976 -2.37 -0.00    -0.191 NA 
DOCKED: ATOM     11  C   UNL     1     -59.691 -38.737   3.034 -0.36 +0.00    +0.101 C  
DOCKED: ENDROOT
DOCKED: BRANCH   2  12
DOCKED: ATOM     12  C   UNL     1     -59.754 -35.079   8.390 -0.11 +0.00    +0.038 C  
DOCKED: BRANCH  12  13
DOCKED: ATOM     13  C   UNL     1     -60.220 -34.509   7.052 -0.24 +0.00    +0.038 C  
DOCKED: BRANCH  13  14
DOCKED: ATOM     14  C   UNL     1     -61.388 -33.543   7.244 -0.15 +0.00    +0.251 C  
DOCKED: BRANCH  14  15
DOCKED: ATOM     15  N   UNL     1     -62.627 -34.282   7.458 -0.15 +0.00    +0.141 N  
DOCKED: ATOM     16  C   UNL     1     -62.746 -35.380   6.497 -0.06 +0.00    +0.285 C  
DOCKED: ATOM     17  C   UNL     1     -62.690 -34.796   8.827 -0.02 +0.00    +0.285 C  
DOCKED: ENDBRANCH  14  15
DOCKED: ENDBRANCH  13  14
DOCKED: ENDBRANCH  12  13
DOCKED: ENDBRANCH   2  12
DOCKED: BRANCH   2  18
DOCKED: ATOM     18  C   UNL     1     -58.196 -36.894   9.076 -0.10 +0.00    +0.006 A  
DOCKED: ATOM     19  C   UNL     1     -57.708 -38.200   9.089 -0.19 +0.00    +0.001 A  
DOCKED: ATOM     20  C   UNL     1     -56.575 -38.512   9.841 +0.06 +0.00    +0.029 A  
DOCKED: ATOM     21  C   UNL     1     -55.932 -37.519  10.578 -0.08 +0.00    +0.140 A  
DOCKED: ATOM     22  C   UNL     1     -56.420 -36.213  10.564 -0.05 +0.00    +0.029 A  
DOCKED: ATOM     23  F   UNL     1     -54.843 -37.818  11.298 -0.03 -0.00    -0.204 F  
DOCKED: ATOM     24  C   UNL     1     -57.554 -35.900   9.813 -0.05 +0.00    +0.001 A  
DOCKED: ENDBRANCH   2  18
DOCKED: TORSDOF 5
DOCKED: TER
DOCKED: ENDMDL
________________________________________________________________________________


    FINAL DOCKED STATE:
    ________________________


Run:   404 / 512
Time taken for this run:   0.002s

DOCKED: MODEL        404
DOCKED: USER    Run = 404
DOCKED: USER
DOCKED: USER    Estimated Free Energy of Binding    =  -3.45 kcal/mol  [=(1)+(2)+(3)-(4)]
DOCKED: USER
DOCKED: USER    (1) Final Intermolecular Energy     =  -4.94 kcal/mol
DOCKED: USER        vdW + Hbond + desolv Energy     =  -4.94 kcal/mol
DOCKED: USER        Electrostatic Energy            =  +0.00 kcal/mol
DOCKED: USER        Moving Ligand-Fixed Receptor    =  -4.94 kcal/mol
DOCKED: USER        Moving Ligand-Moving Receptor   =  +0.00 kcal/mol
DOCKED: USER    (2) Final Total Internal Energy     =  -1.22 kcal/mol
DOCKED: USER    (3) Torsional Free Energy           =  +1.49 kcal/mol
DOCKED: USER    (4) Unbound System's Energy         =  -1.22 kcal/mol
DOCKED: USER
DOCKED: USER
DOCKED: REMARK  5 active torsions:
DOCKED: REMARK  status: ('A' for Active; 'I' for Inactive)
DOCKED: REMARK    1  A    between atoms: C_2  and  C_19 
DOCKED: REMARK    2  A    between atoms: C_2  and  C_11 
DOCKED: REMARK    3  A    between atoms: C_19  and  C_20 
DOCKED: REMARK    4  A    between atoms: C_20  and  C_21 
DOCKED: REMARK    5  A    between atoms: C_21  and  N_22 
DOCKED: USER                              x       y       z     vdW  Elec       q    Type
DOCKED: USER                           _______ _______ _______ _____ _____    ______ ____
DOCKED: ROOT
DOCKED: ATOM      1  O   UNL     1     -57.629 -35.078   9.934 -0.00 -0.00    -0.346 OA 
DOCKED: ATOM      2  C   UNL     1     -56.488 -35.483   9.112 -0.07 +0.00    +0.130 C  
DOCKED: ATOM      3  C   UNL     1     -57.057 -36.529   8.197 -0.17 +0.00    +0.004 A  
DOCKED: ATOM      4  C   UNL     1     -58.425 -36.634   8.402 -0.12 +0.00    +0.006 A  
DOCKED: ATOM      5  C   UNL     1     -58.853 -35.671   9.441 -0.03 +0.00    +0.169 C  
DOCKED: ATOM      6  C   UNL     1     -56.416 -37.316   7.251 -0.12 -0.00    -0.001 A  
DOCKED: ATOM      7  C   UNL     1     -59.196 -37.527   7.677 -0.17 +0.00    +0.008 A  
DOCKED: ATOM      8  C   UNL     1     -57.179 -38.224   6.515 -0.32 +0.00    +0.010 A  
DOCKED: ATOM      9  C   UNL     1     -58.562 -38.328   6.727 -0.27 +0.00    +0.068 A  
DOCKED: ATOM     10  N   UNL     1     -59.949 -40.021   5.339 -2.45 -0.00    -0.191 NA 
DOCKED: ATOM     11  C   UNL     1     -59.327 -39.262   5.962 -0.33 +0.00    +0.101 C  
DOCKED: ENDROOT
DOCKED: BRANCH   2  12
DOCKED: ATOM     12  C   UNL     1     -55.973 -34.258   8.365 -0.09 +0.00    +0.038 C  
DOCKED: BRANCH  12  13
DOCKED: ATOM     13  C   UNL     1     -56.860 -33.040   8.613 -0.05 +0.00    +0.038 C  
DOCKED: BRANCH  13  14
DOCKED: ATOM     14  C   UNL     1     -57.057 -32.233   7.332 -0.06 +0.00    +0.251 C  
DOCKED: BRANCH  14  15
DOCKED: ATOM     15  N   UNL     1     -58.445 -32.311   6.891 -0.11 +0.00    +0.141 N  
DOCKED: ATOM     16  C   UNL     1     -58.676 -31.421   5.753 -0.12 +0.00    +0.285 C  
DOCKED: ATOM     17  C   UNL     1     -58.798 -33.687   6.539 -0.13 +0.00    +0.285 C  
DOCKED: ENDBRANCH  14  15
DOCKED: ENDBRANCH  13  14
DOCKED: ENDBRANCH  12  13
DOCKED: ENDBRANCH   2  12
DOCKED: BRANCH   2  18
DOCKED: ATOM     18  C   UNL     1     -55.451 -36.023  10.040 -0.07 +0.00    +0.006 A  
DOCKED: ATOM     19  C   UNL     1     -55.806 -36.958  11.012 -0.07 +0.00    +0.001 A  
DOCKED: ATOM     20  C   UNL     1     -54.835 -37.462  11.879 -0.07 +0.00    +0.029 A  
DOCKED: ATOM     21  C   UNL     1     -53.514 -37.032  11.772 -0.04 +0.00    +0.140 A  
DOCKED: ATOM     22  C   UNL     1     -53.160 -36.098  10.799 -0.04 +0.00    +0.029 A  
DOCKED: ATOM     23  F   UNL     1     -52.582 -37.518  12.603 -0.00 -0.00    -0.204 F  
DOCKED: ATOM     24  C   UNL     1     -54.130 -35.592   9.932 -0.06 +0.00    +0.001 A  
DOCKED: ENDBRANCH   2  18
DOCKED: TORSDOF 5
DOCKED: TER
DOCKED: ENDMDL
________________________________________________________________________________


    FINAL DOCKED STATE:
    ________________________


Run:   405 / 512
Time taken for this run:   0.002s

DOCKED: MODEL        405
DOCKED: USER    Run = 405
DOCKED: USER
DOCKED: USER    Estimated Free Energy of Binding    =  -4.40 kcal/mol  [=(1)+(2)+(3)-(4)]
DOCKED: USER
DOCKED: USER    (1) Final Intermolecular Energy     =  -5.89 kcal/mol
DOCKED: USER        vdW + Hbond + desolv Energy     =  -5.89 kcal/mol
DOCKED: USER        Electrostatic Energy            =  +0.00 kcal/mol
DOCKED: USER        Moving Ligand-Fixed Receptor    =  -5.89 kcal/mol
DOCKED: USER        Moving Ligand-Moving Receptor   =  +0.00 kcal/mol
DOCKED: USER    (2) Final Total Internal Energy     =  -1.21 kcal/mol
DOCKED: USER    (3) Torsional Free Energy           =  +1.49 kcal/mol
DOCKED: USER    (4) Unbound System's Energy         =  -1.21 kcal/mol
DOCKED: USER
DOCKED: USER
DOCKED: REMARK  5 active torsions:
DOCKED: REMARK  status: ('A' for Active; 'I' for Inactive)
DOCKED: REMARK    1  A    between atoms: C_2  and  C_19 
DOCKED: REMARK    2  A    between atoms: C_2  and  C_11 
DOCKED: REMARK    3  A    between atoms: C_19  and  C_20 
DOCKED: REMARK    4  A    between atoms: C_20  and  C_21 
DOCKED: REMARK    5  A    between atoms: C_21  and  N_22 
DOCKED: USER                              x       y       z     vdW  Elec       q    Type
DOCKED: USER                           _______ _______ _______ _____ _____    ______ ____
DOCKED: ROOT
DOCKED: ATOM      1  O   UNL     1     -54.822 -36.093   8.518 -0.08 -0.00    -0.346 OA 
DOCKED: ATOM      2  C   UNL     1     -55.861 -35.194   8.014 -0.13 +0.00    +0.130 C  
DOCKED: ATOM      3  C   UNL     1     -56.843 -36.116   7.351 -0.22 +0.00    +0.004 A  
DOCKED: ATOM      4  C   UNL     1     -56.458 -37.433   7.554 -0.23 +0.00    +0.006 A  
DOCKED: ATOM      5  C   UNL     1     -55.220 -37.475   8.364 -0.16 +0.00    +0.169 C  
DOCKED: ATOM      6  C   UNL     1     -57.992 -35.813   6.635 -0.27 -0.00    -0.001 A  
DOCKED: ATOM      7  C   UNL     1     -57.199 -38.487   7.049 -0.35 +0.00    +0.008 A  
DOCKED: ATOM      8  C   UNL     1     -58.748 -36.864   6.115 -0.32 +0.00    +0.010 A  
DOCKED: ATOM      9  C   UNL     1     -58.354 -38.195   6.321 -0.31 +0.00    +0.068 A  
DOCKED: ATOM     10  N   UNL     1     -59.784 -40.123   5.347 -2.56 -0.00    -0.191 NA 
DOCKED: ATOM     11  C   UNL     1     -59.142 -39.258   5.784 -0.36 +0.00    +0.101 C  
DOCKED: ENDROOT
DOCKED: BRANCH   2  12
DOCKED: ATOM     12  C   UNL     1     -56.460 -34.438   9.194 -0.05 +0.00    +0.038 C  
DOCKED: BRANCH  12  13
DOCKED: ATOM     13  C   UNL     1     -57.729 -33.690   8.790 -0.05 +0.00    +0.038 C  
DOCKED: BRANCH  13  14
DOCKED: ATOM     14  C   UNL     1     -57.522 -32.178   8.863 -0.01 +0.00    +0.251 C  
DOCKED: BRANCH  14  15
DOCKED: ATOM     15  N   UNL     1     -58.078 -31.533   7.680 -0.04 +0.00    +0.141 N  
DOCKED: ATOM     16  C   UNL     1     -57.028 -30.852   6.922 -0.03 +0.00    +0.285 C  
DOCKED: ATOM     17  C   UNL     1     -58.763 -32.510   6.833 -0.12 +0.00    +0.285 C  
DOCKED: ENDBRANCH  14  15
DOCKED: ENDBRANCH  13  14
DOCKED: ENDBRANCH  12  13
DOCKED: ENDBRANCH   2  12
DOCKED: BRANCH   2  18
DOCKED: ATOM     18  C   UNL     1     -55.201 -34.260   7.055 -0.14 +0.00    +0.006 A  
DOCKED: ATOM     19  C   UNL     1     -55.806 -33.976   5.831 -0.13 +0.00    +0.001 A  
DOCKED: ATOM     20  C   UNL     1     -55.188 -33.102   4.936 -0.12 +0.00    +0.029 A  
DOCKED: ATOM     21  C   UNL     1     -53.968 -32.514   5.265 -0.07 +0.00    +0.140 A  
DOCKED: ATOM     22  C   UNL     1     -53.364 -32.798   6.489 -0.06 +0.00    +0.029 A  
DOCKED: ATOM     23  F   UNL     1     -53.376 -31.674   4.405 -0.00 -0.00    -0.204 F  
DOCKED: ATOM     24  C   UNL     1     -53.981 -33.672   7.386 -0.08 +0.00    +0.001 A  
DOCKED: ENDBRANCH   2  18
DOCKED: TORSDOF 5
DOCKED: TER
DOCKED: ENDMDL
________________________________________________________________________________


    FINAL DOCKED STATE:
    ________________________


Run:   406 / 512
Time taken for this run:   0.002s

DOCKED: MODEL        406
DOCKED: USER    Run = 406
DOCKED: USER
DOCKED: USER    Estimated Free Energy of Binding    =  -5.35 kcal/mol  [=(1)+(2)+(3)-(4)]
DOCKED: USER
DOCKED: USER    (1) Final Intermolecular Energy     =  -6.84 kcal/mol
DOCKED: USER        vdW + Hbond + desolv Energy     =  -6.84 kcal/mol
DOCKED: USER        Electrostatic Energy            =  +0.00 kcal/mol
DOCKED: USER        Moving Ligand-Fixed Receptor    =  -6.84 kcal/mol
DOCKED: USER        Moving Ligand-Moving Receptor   =  +0.00 kcal/mol
DOCKED: USER    (2) Final Total Internal Energy     =  -1.37 kcal/mol
DOCKED: USER    (3) Torsional Free Energy           =  +1.49 kcal/mol
DOCKED: USER    (4) Unbound System's Energy         =  -1.37 kcal/mol
DOCKED: USER
DOCKED: USER
DOCKED: REMARK  5 active torsions:
DOCKED: REMARK  status: ('A' for Active; 'I' for Inactive)
DOCKED: REMARK    1  A    between atoms: C_2  and  C_19 
DOCKED: REMARK    2  A    between atoms: C_2  and  C_11 
DOCKED: REMARK    3  A    between atoms: C_19  and  C_20 
DOCKED: REMARK    4  A    between atoms: C_20  and  C_21 
DOCKED: REMARK    5  A    between atoms: C_21  and  N_22 
DOCKED: USER                              x       y       z     vdW  Elec       q    Type
DOCKED: USER                           _______ _______ _______ _____ _____    ______ ____
DOCKED: ROOT
DOCKED: ATOM      1  O   UNL     1     -57.930 -36.062   8.194 -0.03 -0.00    -0.346 OA 
DOCKED: ATOM      2  C   UNL     1     -57.353 -37.406   8.136 -0.19 +0.00    +0.130 C  
DOCKED: ATOM      3  C   UNL     1     -57.810 -37.935   6.807 -0.33 +0.00    +0.004 A  
DOCKED: ATOM      4  C   UNL     1     -58.493 -36.943   6.118 -0.33 +0.00    +0.006 A  
DOCKED: ATOM      5  C   UNL     1     -58.525 -35.703   6.925 -0.21 +0.00    +0.169 C  
DOCKED: ATOM      6  C   UNL     1     -57.624 -39.191   6.247 -0.42 -0.00    -0.001 A  
DOCKED: ATOM      7  C   UNL     1     -59.016 -37.171   4.857 -0.07 +0.00    +0.008 A  
DOCKED: ATOM      8  C   UNL     1     -58.149 -39.438   4.978 -0.40 +0.00    +0.010 A  
DOCKED: ATOM      9  C   UNL     1     -58.841 -38.432   4.286 -0.41 +0.00    +0.068 A  
DOCKED: ATOM     10  N   UNL     1     -59.799 -38.921   1.929 -2.59 -0.00    -0.191 NA 
DOCKED: ATOM     11  C   UNL     1     -59.370 -38.702   2.986 -0.48 +0.00    +0.101 C  
DOCKED: ENDROOT
DOCKED: BRANCH   2  12
DOCKED: ATOM     12  C   UNL     1     -55.838 -37.285   8.238 -0.24 +0.00    +0.038 C  
DOCKED: BRANCH  12  13
DOCKED: ATOM     13  C   UNL     1     -55.361 -35.890   7.837 -0.10 +0.00    +0.038 C  
DOCKED: BRANCH  13  14
DOCKED: ATOM     14  C   UNL     1     -55.313 -34.958   9.046 -0.05 +0.00    +0.251 C  
DOCKED: BRANCH  14  15
DOCKED: ATOM     15  N   UNL     1     -56.331 -33.921   8.928 -0.03 +0.00    +0.141 N  
DOCKED: ATOM     16  C   UNL     1     -56.995 -33.701  10.213 -0.00 +0.00    +0.285 C  
DOCKED: ATOM     17  C   UNL     1     -55.741 -32.673   8.441 -0.02 +0.00    +0.285 C  
DOCKED: ENDBRANCH  14  15
DOCKED: ENDBRANCH  13  14
DOCKED: ENDBRANCH  12  13
DOCKED: ENDBRANCH   2  12
DOCKED: BRANCH   2  18
DOCKED: ATOM     18  C   UNL     1     -57.912 -38.171   9.289 -0.17 +0.00    +0.006 A  
DOCKED: ATOM     19  C   UNL     1     -57.093 -38.499  10.369 -0.16 +0.00    +0.001 A  
DOCKED: ATOM     20  C   UNL     1     -57.616 -39.215  11.446 -0.20 +0.00    +0.029 A  
DOCKED: ATOM     21  C   UNL     1     -58.956 -39.600  11.443 -0.08 +0.00    +0.140 A  
DOCKED: ATOM     22  C   UNL     1     -59.774 -39.270  10.363 -0.14 +0.00    +0.029 A  
DOCKED: ATOM     23  F   UNL     1     -59.458 -40.285  12.479 -0.04 -0.00    -0.204 F  
DOCKED: ATOM     24  C   UNL     1     -59.252 -38.555   9.285 -0.17 +0.00    +0.001 A  
DOCKED: ENDBRANCH   2  18
DOCKED: TORSDOF 5
DOCKED: TER
DOCKED: ENDMDL
________________________________________________________________________________


    FINAL DOCKED STATE:
    ________________________


Run:   407 / 512
Time taken for this run:   0.002s

DOCKED: MODEL        407
DOCKED: USER    Run = 407
DOCKED: USER
DOCKED: USER    Estimated Free Energy of Binding    =  -4.13 kcal/mol  [=(1)+(2)+(3)-(4)]
DOCKED: USER
DOCKED: USER    (1) Final Intermolecular Energy     =  -5.62 kcal/mol
DOCKED: USER        vdW + Hbond + desolv Energy     =  -5.62 kcal/mol
DOCKED: USER        Electrostatic Energy            =  +0.00 kcal/mol
DOCKED: USER        Moving Ligand-Fixed Receptor    =  -5.62 kcal/mol
DOCKED: USER        Moving Ligand-Moving Receptor   =  +0.00 kcal/mol
DOCKED: USER    (2) Final Total Internal Energy     =  -1.32 kcal/mol
DOCKED: USER    (3) Torsional Free Energy           =  +1.49 kcal/mol
DOCKED: USER    (4) Unbound System's Energy         =  -1.32 kcal/mol
DOCKED: USER
DOCKED: USER
DOCKED: REMARK  5 active torsions:
DOCKED: REMARK  status: ('A' for Active; 'I' for Inactive)
DOCKED: REMARK    1  A    between atoms: C_2  and  C_19 
DOCKED: REMARK    2  A    between atoms: C_2  and  C_11 
DOCKED: REMARK    3  A    between atoms: C_19  and  C_20 
DOCKED: REMARK    4  A    between atoms: C_20  and  C_21 
DOCKED: REMARK    5  A    between atoms: C_21  and  N_22 
DOCKED: USER                              x       y       z     vdW  Elec       q    Type
DOCKED: USER                           _______ _______ _______ _____ _____    ______ ____
DOCKED: ROOT
DOCKED: ATOM      1  O   UNL     1     -58.155 -36.170   8.773 -0.01 -0.00    -0.346 OA 
DOCKED: ATOM      2  C   UNL     1     -57.120 -37.182   8.555 -0.16 +0.00    +0.130 C  
DOCKED: ATOM      3  C   UNL     1     -57.551 -37.870   7.292 -0.30 +0.00    +0.004 A  
DOCKED: ATOM      4  C   UNL     1     -58.670 -37.236   6.773 -0.27 +0.00    +0.006 A  
DOCKED: ATOM      5  C   UNL     1     -59.046 -36.093   7.636 -0.13 +0.00    +0.169 C  
DOCKED: ATOM      6  C   UNL     1     -56.989 -38.963   6.648 -0.33 -0.00    -0.001 A  
DOCKED: ATOM      7  C   UNL     1     -59.267 -37.671   5.602 -0.34 +0.00    +0.008 A  
DOCKED: ATOM      8  C   UNL     1     -57.581 -39.416   5.468 -0.21 +0.00    +0.010 A  
DOCKED: ATOM      9  C   UNL     1     -58.714 -38.773   4.948 -0.41 +0.00    +0.068 A  
DOCKED: ATOM     10  N   UNL     1     -59.787 -39.637   2.753 -1.57 -0.00    -0.191 NA 
DOCKED: ATOM     11  C   UNL     1     -59.306 -39.250   3.738 -0.53 +0.00    +0.101 C  
DOCKED: ENDROOT
DOCKED: BRANCH   2  12
DOCKED: ATOM     12  C   UNL     1     -55.776 -36.477   8.419 -0.19 +0.00    +0.038 C  
DOCKED: BRANCH  12  13
DOCKED: ATOM     13  C   UNL     1     -55.764 -35.529   7.221 -0.04 +0.00    +0.038 C  
DOCKED: BRANCH  13  14
DOCKED: ATOM     14  C   UNL     1     -56.135 -34.108   7.640 -0.09 +0.00    +0.251 C  
DOCKED: BRANCH  14  15
DOCKED: ATOM     15  N   UNL     1     -55.639 -33.830   8.983 -0.03 +0.00    +0.141 N  
DOCKED: ATOM     16  C   UNL     1     -54.683 -32.722   8.961 -0.01 +0.00    +0.285 C  
DOCKED: ATOM     17  C   UNL     1     -56.748 -33.525   9.888 -0.01 +0.00    +0.285 C  
DOCKED: ENDBRANCH  14  15
DOCKED: ENDBRANCH  13  14
DOCKED: ENDBRANCH  12  13
DOCKED: ENDBRANCH   2  12
DOCKED: BRANCH   2  18
DOCKED: ATOM     18  C   UNL     1     -57.136 -38.085   9.743 -0.16 +0.00    +0.006 A  
DOCKED: ATOM     19  C   UNL     1     -56.232 -37.882  10.785 -0.12 +0.00    +0.001 A  
DOCKED: ATOM     20  C   UNL     1     -56.248 -38.727  11.895 -0.15 +0.00    +0.029 A  
DOCKED: ATOM     21  C   UNL     1     -57.167 -39.772  11.963 -0.19 +0.00    +0.140 A  
DOCKED: ATOM     22  C   UNL     1     -58.072 -39.975  10.921 -0.06 +0.00    +0.029 A  
DOCKED: ATOM     23  F   UNL     1     -57.183 -40.582  13.029 -0.07 -0.00    -0.204 F  
DOCKED: ATOM     24  C   UNL     1     -58.057 -39.130   9.809 -0.24 +0.00    +0.001 A  
DOCKED: ENDBRANCH   2  18
DOCKED: TORSDOF 5
DOCKED: TER
DOCKED: ENDMDL
________________________________________________________________________________


    FINAL DOCKED STATE:
    ________________________


Run:   408 / 512
Time taken for this run:   0.002s

DOCKED: MODEL        408
DOCKED: USER    Run = 408
DOCKED: USER
DOCKED: USER    Estimated Free Energy of Binding    =  -4.04 kcal/mol  [=(1)+(2)+(3)-(4)]
DOCKED: USER
DOCKED: USER    (1) Final Intermolecular Energy     =  -5.53 kcal/mol
DOCKED: USER        vdW + Hbond + desolv Energy     =  -5.53 kcal/mol
DOCKED: USER        Electrostatic Energy            =  +0.00 kcal/mol
DOCKED: USER        Moving Ligand-Fixed Receptor    =  -5.53 kcal/mol
DOCKED: USER        Moving Ligand-Moving Receptor   =  +0.00 kcal/mol
DOCKED: USER    (2) Final Total Internal Energy     =  -1.18 kcal/mol
DOCKED: USER    (3) Torsional Free Energy           =  +1.49 kcal/mol
DOCKED: USER    (4) Unbound System's Energy         =  -1.18 kcal/mol
DOCKED: USER
DOCKED: USER
DOCKED: REMARK  5 active torsions:
DOCKED: REMARK  status: ('A' for Active; 'I' for Inactive)
DOCKED: REMARK    1  A    between atoms: C_2  and  C_19 
DOCKED: REMARK    2  A    between atoms: C_2  and  C_11 
DOCKED: REMARK    3  A    between atoms: C_19  and  C_20 
DOCKED: REMARK    4  A    between atoms: C_20  and  C_21 
DOCKED: REMARK    5  A    between atoms: C_21  and  N_22 
DOCKED: USER                              x       y       z     vdW  Elec       q    Type
DOCKED: USER                           _______ _______ _______ _____ _____    ______ ____
DOCKED: ROOT
DOCKED: ATOM      1  O   UNL     1     -50.226 -34.576   1.040 +0.01 -0.00    -0.346 OA 
DOCKED: ATOM      2  C   UNL     1     -51.628 -34.802   0.684 -0.09 +0.00    +0.130 C  
DOCKED: ATOM      3  C   UNL     1     -51.954 -36.120   1.325 -0.19 +0.00    +0.004 A  
DOCKED: ATOM      4  C   UNL     1     -50.869 -36.557   2.073 -0.12 +0.00    +0.006 A  
DOCKED: ATOM      5  C   UNL     1     -49.772 -35.567   1.992 -0.02 +0.00    +0.169 C  
DOCKED: ATOM      6  C   UNL     1     -53.120 -36.868   1.259 -0.26 -0.00    -0.001 A  
DOCKED: ATOM      7  C   UNL     1     -50.911 -37.750   2.774 -0.19 +0.00    +0.008 A  
DOCKED: ATOM      8  C   UNL     1     -53.176 -38.076   1.957 -0.05 +0.00    +0.010 A  
DOCKED: ATOM      9  C   UNL     1     -52.077 -38.514   2.711 -0.30 +0.00    +0.068 A  
DOCKED: ATOM     10  N   UNL     1     -52.217 -40.758   3.998 -2.53 -0.00    -0.191 NA 
DOCKED: ATOM     11  C   UNL     1     -52.154 -39.752   3.420 -0.29 +0.00    +0.101 C  
DOCKED: ENDROOT
DOCKED: BRANCH   2  12
DOCKED: ATOM     12  C   UNL     1     -52.458 -33.651   1.240 -0.10 +0.00    +0.038 C  
DOCKED: BRANCH  12  13
DOCKED: ATOM     13  C   UNL     1     -53.354 -34.114   2.387 -0.19 +0.00    +0.038 C  
DOCKED: BRANCH  13  14
DOCKED: ATOM     14  C   UNL     1     -53.274 -33.151   3.570 -0.08 +0.00    +0.251 C  
DOCKED: BRANCH  14  15
DOCKED: ATOM     15  N   UNL     1     -52.293 -33.621   4.542 -0.07 +0.00    +0.141 N  
DOCKED: ATOM     16  C   UNL     1     -51.124 -32.740   4.562 -0.01 +0.00    +0.285 C  
DOCKED: ATOM     17  C   UNL     1     -52.889 -33.705   5.876 -0.07 +0.00    +0.285 C  
DOCKED: ENDBRANCH  14  15
DOCKED: ENDBRANCH  13  14
DOCKED: ENDBRANCH  12  13
DOCKED: ENDBRANCH   2  12
DOCKED: BRANCH   2  18
DOCKED: ATOM     18  C   UNL     1     -51.698 -34.846  -0.806 -0.14 +0.00    +0.006 A  
DOCKED: ATOM     19  C   UNL     1     -51.083 -35.886  -1.502 -0.12 +0.00    +0.001 A  
DOCKED: ATOM     20  C   UNL     1     -51.149 -35.925  -2.895 -0.15 +0.00    +0.029 A  
DOCKED: ATOM     21  C   UNL     1     -51.830 -34.926  -3.590 -0.17 +0.00    +0.140 A  
DOCKED: ATOM     22  C   UNL     1     -52.445 -33.887  -2.892 -0.20 +0.00    +0.029 A  
DOCKED: ATOM     23  F   UNL     1     -51.895 -34.966  -4.927 -0.05 -0.00    -0.204 F  
DOCKED: ATOM     24  C   UNL     1     -52.379 -33.846  -1.499 -0.17 +0.00    +0.001 A  
DOCKED: ENDBRANCH   2  18
DOCKED: TORSDOF 5
DOCKED: TER
DOCKED: ENDMDL
________________________________________________________________________________


    FINAL DOCKED STATE:
    ________________________


Run:   409 / 512
Time taken for this run:   0.002s

DOCKED: MODEL        409
DOCKED: USER    Run = 409
DOCKED: USER
DOCKED: USER    Estimated Free Energy of Binding    =  -5.09 kcal/mol  [=(1)+(2)+(3)-(4)]
DOCKED: USER
DOCKED: USER    (1) Final Intermolecular Energy     =  -6.58 kcal/mol
DOCKED: USER        vdW + Hbond + desolv Energy     =  -6.58 kcal/mol
DOCKED: USER        Electrostatic Energy            =  +0.00 kcal/mol
DOCKED: USER        Moving Ligand-Fixed Receptor    =  -6.58 kcal/mol
DOCKED: USER        Moving Ligand-Moving Receptor   =  +0.00 kcal/mol
DOCKED: USER    (2) Final Total Internal Energy     =  -1.27 kcal/mol
DOCKED: USER    (3) Torsional Free Energy           =  +1.49 kcal/mol
DOCKED: USER    (4) Unbound System's Energy         =  -1.27 kcal/mol
DOCKED: USER
DOCKED: USER
DOCKED: REMARK  5 active torsions:
DOCKED: REMARK  status: ('A' for Active; 'I' for Inactive)
DOCKED: REMARK    1  A    between atoms: C_2  and  C_19 
DOCKED: REMARK    2  A    between atoms: C_2  and  C_11 
DOCKED: REMARK    3  A    between atoms: C_19  and  C_20 
DOCKED: REMARK    4  A    between atoms: C_20  and  C_21 
DOCKED: REMARK    5  A    between atoms: C_21  and  N_22 
DOCKED: USER                              x       y       z     vdW  Elec       q    Type
DOCKED: USER                           _______ _______ _______ _____ _____    ______ ____
DOCKED: ROOT
DOCKED: ATOM      1  O   UNL     1     -58.707 -36.040   8.486 -0.01 -0.00    -0.346 OA 
DOCKED: ATOM      2  C   UNL     1     -57.792 -37.180   8.415 -0.14 +0.00    +0.130 C  
DOCKED: ATOM      3  C   UNL     1     -58.096 -37.803   7.083 -0.29 +0.00    +0.004 A  
DOCKED: ATOM      4  C   UNL     1     -59.023 -37.025   6.404 -0.29 +0.00    +0.006 A  
DOCKED: ATOM      5  C   UNL     1     -59.382 -35.844   7.221 -0.17 +0.00    +0.169 C  
DOCKED: ATOM      6  C   UNL     1     -57.584 -38.959   6.514 -0.41 -0.00    -0.001 A  
DOCKED: ATOM      7  C   UNL     1     -59.471 -37.375   5.142 -0.15 +0.00    +0.008 A  
DOCKED: ATOM      8  C   UNL     1     -58.029 -39.329   5.243 -0.40 +0.00    +0.010 A  
DOCKED: ATOM      9  C   UNL     1     -58.967 -38.540   4.561 -0.42 +0.00    +0.068 A  
DOCKED: ATOM     10  N   UNL     1     -59.769 -39.251   2.202 -2.13 -0.00    -0.191 NA 
DOCKED: ATOM     11  C   UNL     1     -59.410 -38.932   3.260 -0.52 +0.00    +0.101 C  
DOCKED: ENDROOT
DOCKED: BRANCH   2  12
DOCKED: ATOM     12  C   UNL     1     -56.363 -36.659   8.515 -0.19 +0.00    +0.038 C  
DOCKED: BRANCH  12  13
DOCKED: ATOM     13  C   UNL     1     -56.026 -35.733   7.348 -0.12 +0.00    +0.038 C  
DOCKED: BRANCH  13  14
DOCKED: ATOM     14  C   UNL     1     -56.397 -34.286   7.670 -0.10 +0.00    +0.251 C  
DOCKED: BRANCH  14  15
DOCKED: ATOM     15  N   UNL     1     -56.895 -33.613   6.476 -0.15 +0.00    +0.141 N  
DOCKED: ATOM     16  C   UNL     1     -57.838 -32.553   6.836 -0.10 +0.00    +0.285 C  
DOCKED: ATOM     17  C   UNL     1     -55.786 -33.062   5.695 -0.09 +0.00    +0.285 C  
DOCKED: ENDBRANCH  14  15
DOCKED: ENDBRANCH  13  14
DOCKED: ENDBRANCH  12  13
DOCKED: ENDBRANCH   2  12
DOCKED: BRANCH   2  18
DOCKED: ATOM     18  C   UNL     1     -58.120 -38.074   9.564 -0.15 +0.00    +0.006 A  
DOCKED: ATOM     19  C   UNL     1     -59.435 -38.491   9.769 -0.15 +0.00    +0.001 A  
DOCKED: ATOM     20  C   UNL     1     -59.740 -39.327  10.844 -0.12 +0.00    +0.029 A  
DOCKED: ATOM     21  C   UNL     1     -58.732 -39.746  11.710 -0.08 +0.00    +0.140 A  
DOCKED: ATOM     22  C   UNL     1     -57.417 -39.329  11.504 -0.21 +0.00    +0.029 A  
DOCKED: ATOM     23  F   UNL     1     -59.025 -40.550  12.741 -0.04 -0.00    -0.204 F  
DOCKED: ATOM     24  C   UNL     1     -57.110 -38.492  10.430 -0.17 +0.00    +0.001 A  
DOCKED: ENDBRANCH   2  18
DOCKED: TORSDOF 5
DOCKED: TER
DOCKED: ENDMDL
________________________________________________________________________________


    FINAL DOCKED STATE:
    ________________________


Run:   410 / 512
Time taken for this run:   0.002s

DOCKED: MODEL        410
DOCKED: USER    Run = 410
DOCKED: USER
DOCKED: USER    Estimated Free Energy of Binding    =  -4.21 kcal/mol  [=(1)+(2)+(3)-(4)]
DOCKED: USER
DOCKED: USER    (1) Final Intermolecular Energy     =  -5.70 kcal/mol
DOCKED: USER        vdW + Hbond + desolv Energy     =  -5.70 kcal/mol
DOCKED: USER        Electrostatic Energy            =  +0.00 kcal/mol
DOCKED: USER        Moving Ligand-Fixed Receptor    =  -5.70 kcal/mol
DOCKED: USER        Moving Ligand-Moving Receptor   =  +0.00 kcal/mol
DOCKED: USER    (2) Final Total Internal Energy     =  -1.13 kcal/mol
DOCKED: USER    (3) Torsional Free Energy           =  +1.49 kcal/mol
DOCKED: USER    (4) Unbound System's Energy         =  -1.13 kcal/mol
DOCKED: USER
DOCKED: USER
DOCKED: REMARK  5 active torsions:
DOCKED: REMARK  status: ('A' for Active; 'I' for Inactive)
DOCKED: REMARK    1  A    between atoms: C_2  and  C_19 
DOCKED: REMARK    2  A    between atoms: C_2  and  C_11 
DOCKED: REMARK    3  A    between atoms: C_19  and  C_20 
DOCKED: REMARK    4  A    between atoms: C_20  and  C_21 
DOCKED: REMARK    5  A    between atoms: C_21  and  N_22 
DOCKED: USER                              x       y       z     vdW  Elec       q    Type
DOCKED: USER                           _______ _______ _______ _____ _____    ______ ____
DOCKED: ROOT
DOCKED: ATOM      1  O   UNL     1     -55.469 -35.198   8.110 -0.06 -0.00    -0.346 OA 
DOCKED: ATOM      2  C   UNL     1     -56.723 -34.577   7.681 -0.13 +0.00    +0.130 C  
DOCKED: ATOM      3  C   UNL     1     -57.508 -35.716   7.099 -0.23 +0.00    +0.004 A  
DOCKED: ATOM      4  C   UNL     1     -56.812 -36.903   7.279 -0.23 +0.00    +0.006 A  
DOCKED: ATOM      5  C   UNL     1     -55.543 -36.638   7.993 -0.12 +0.00    +0.169 C  
DOCKED: ATOM      6  C   UNL     1     -58.745 -35.705   6.470 -0.27 -0.00    -0.001 A  
DOCKED: ATOM      7  C   UNL     1     -57.321 -38.112   6.836 -0.33 +0.00    +0.008 A  
DOCKED: ATOM      8  C   UNL     1     -59.270 -36.915   6.014 -0.27 +0.00    +0.010 A  
DOCKED: ATOM      9  C   UNL     1     -58.562 -38.112   6.196 -0.31 +0.00    +0.068 A  
DOCKED: ATOM     10  N   UNL     1     -59.568 -40.342   5.342 -2.57 -0.00    -0.191 NA 
DOCKED: ATOM     11  C   UNL     1     -59.117 -39.342   5.725 -0.34 +0.00    +0.101 C  
DOCKED: ENDROOT
DOCKED: BRANCH   2  12
DOCKED: ATOM     12  C   UNL     1     -57.395 -33.955   8.900 -0.05 +0.00    +0.038 C  
DOCKED: BRANCH  12  13
DOCKED: ATOM     13  C   UNL     1     -58.249 -34.977   9.647 -0.04 +0.00    +0.038 C  
DOCKED: BRANCH  13  14
DOCKED: ATOM     14  C   UNL     1     -57.609 -35.358  10.981 -0.01 +0.00    +0.251 C  
DOCKED: BRANCH  14  15
DOCKED: ATOM     15  N   UNL     1     -58.623 -35.843  11.910 -0.01 +0.00    +0.141 N  
DOCKED: ATOM     16  C   UNL     1     -59.608 -36.672  11.212 -0.01 +0.00    +0.285 C  
DOCKED: ATOM     17  C   UNL     1     -58.004 -36.599  13.000 -0.00 +0.00    +0.285 C  
DOCKED: ENDBRANCH  14  15
DOCKED: ENDBRANCH  13  14
DOCKED: ENDBRANCH  12  13
DOCKED: ENDBRANCH   2  12
DOCKED: BRANCH   2  18
DOCKED: ATOM     18  C   UNL     1     -56.371 -33.536   6.671 -0.16 +0.00    +0.006 A  
DOCKED: ATOM     19  C   UNL     1     -55.136 -33.581   6.027 -0.15 +0.00    +0.001 A  
DOCKED: ATOM     20  C   UNL     1     -54.808 -32.607   5.082 -0.12 +0.00    +0.029 A  
DOCKED: ATOM     21  C   UNL     1     -55.715 -31.592   4.783 -0.07 +0.00    +0.140 A  
DOCKED: ATOM     22  C   UNL     1     -56.951 -31.548   5.428 -0.08 +0.00    +0.029 A  
DOCKED: ATOM     23  F   UNL     1     -55.401 -30.659   3.876 -0.01 -0.00    -0.204 F  
DOCKED: ATOM     24  C   UNL     1     -57.280 -32.522   6.373 -0.13 +0.00    +0.001 A  
DOCKED: ENDBRANCH   2  18
DOCKED: TORSDOF 5
DOCKED: TER
DOCKED: ENDMDL
________________________________________________________________________________


    FINAL DOCKED STATE:
    ________________________


Run:   411 / 512
Time taken for this run:   0.002s

DOCKED: MODEL        411
DOCKED: USER    Run = 411
DOCKED: USER
DOCKED: USER    Estimated Free Energy of Binding    =  -4.00 kcal/mol  [=(1)+(2)+(3)-(4)]
DOCKED: USER
DOCKED: USER    (1) Final Intermolecular Energy     =  -5.49 kcal/mol
DOCKED: USER        vdW + Hbond + desolv Energy     =  -5.49 kcal/mol
DOCKED: USER        Electrostatic Energy            =  +0.00 kcal/mol
DOCKED: USER        Moving Ligand-Fixed Receptor    =  -5.49 kcal/mol
DOCKED: USER        Moving Ligand-Moving Receptor   =  +0.00 kcal/mol
DOCKED: USER    (2) Final Total Internal Energy     =  -1.20 kcal/mol
DOCKED: USER    (3) Torsional Free Energy           =  +1.49 kcal/mol
DOCKED: USER    (4) Unbound System's Energy         =  -1.20 kcal/mol
DOCKED: USER
DOCKED: USER
DOCKED: REMARK  5 active torsions:
DOCKED: REMARK  status: ('A' for Active; 'I' for Inactive)
DOCKED: REMARK    1  A    between atoms: C_2  and  C_19 
DOCKED: REMARK    2  A    between atoms: C_2  and  C_11 
DOCKED: REMARK    3  A    between atoms: C_19  and  C_20 
DOCKED: REMARK    4  A    between atoms: C_20  and  C_21 
DOCKED: REMARK    5  A    between atoms: C_21  and  N_22 
DOCKED: USER                              x       y       z     vdW  Elec       q    Type
DOCKED: USER                           _______ _______ _______ _____ _____    ______ ____
DOCKED: ROOT
DOCKED: ATOM      1  O   UNL     1     -52.528 -30.682  -0.536 +0.00 -0.00    -0.346 OA 
DOCKED: ATOM      2  C   UNL     1     -53.876 -30.732   0.031 -0.12 +0.00    +0.130 C  
DOCKED: ATOM      3  C   UNL     1     -54.693 -29.897  -0.911 -0.25 +0.00    +0.004 A  
DOCKED: ATOM      4  C   UNL     1     -53.907 -29.496  -1.982 -0.20 +0.00    +0.006 A  
DOCKED: ATOM      5  C   UNL     1     -52.539 -30.041  -1.833 -0.07 +0.00    +0.169 C  
DOCKED: ATOM      6  C   UNL     1     -56.029 -29.530  -0.833 -0.20 -0.00    -0.001 A  
DOCKED: ATOM      7  C   UNL     1     -54.423 -28.717  -3.004 -0.25 +0.00    +0.008 A  
DOCKED: ATOM      8  C   UNL     1     -56.563 -28.741  -1.853 -0.22 +0.00    +0.010 A  
DOCKED: ATOM      9  C   UNL     1     -55.764 -28.337  -2.933 -0.17 +0.00    +0.068 A  
DOCKED: ATOM     10  N   UNL     1     -56.788 -26.876  -4.812 -2.18 -0.00    -0.191 NA 
DOCKED: ATOM     11  C   UNL     1     -56.329 -27.531  -3.969 -0.35 +0.00    +0.101 C  
DOCKED: ENDROOT
DOCKED: BRANCH   2  12
DOCKED: ATOM     12  C   UNL     1     -54.327 -32.187   0.077 -0.19 +0.00    +0.038 C  
DOCKED: BRANCH  12  13
DOCKED: ATOM     13  C   UNL     1     -53.434 -33.075  -0.787 -0.20 +0.00    +0.038 C  
DOCKED: BRANCH  13  14
DOCKED: ATOM     14  C   UNL     1     -53.747 -32.889  -2.271 -0.14 +0.00    +0.251 C  
DOCKED: BRANCH  14  15
DOCKED: ATOM     15  N   UNL     1     -52.790 -33.628  -3.087 -0.21 +0.00    +0.141 N  
DOCKED: ATOM     16  C   UNL     1     -52.184 -32.752  -4.091 -0.09 +0.00    +0.285 C  
DOCKED: ATOM     17  C   UNL     1     -51.753 -34.230  -2.248 -0.12 +0.00    +0.285 C  
DOCKED: ENDBRANCH  14  15
DOCKED: ENDBRANCH  13  14
DOCKED: ENDBRANCH  12  13
DOCKED: ENDBRANCH   2  12
DOCKED: BRANCH   2  18
DOCKED: ATOM     18  C   UNL     1     -53.794 -30.150   1.403 -0.12 +0.00    +0.006 A  
DOCKED: ATOM     19  C   UNL     1     -54.522 -30.720   2.446 -0.11 +0.00    +0.001 A  
DOCKED: ATOM     20  C   UNL     1     -54.445 -30.174   3.728 -0.08 +0.00    +0.029 A  
DOCKED: ATOM     21  C   UNL     1     -53.641 -29.061   3.965 -0.09 +0.00    +0.140 A  
DOCKED: ATOM     22  C   UNL     1     -52.913 -28.491   2.921 +0.01 +0.00    +0.029 A  
DOCKED: ATOM     23  F   UNL     1     -53.566 -28.538   5.196 -0.02 -0.00    -0.204 F  
DOCKED: ATOM     24  C   UNL     1     -52.989 -29.036   1.638 -0.13 +0.00    +0.001 A  
DOCKED: ENDBRANCH   2  18
DOCKED: TORSDOF 5
DOCKED: TER
DOCKED: ENDMDL
________________________________________________________________________________


    FINAL DOCKED STATE:
    ________________________


Run:   412 / 512
Time taken for this run:   0.002s

DOCKED: MODEL        412
DOCKED: USER    Run = 412
DOCKED: USER
DOCKED: USER    Estimated Free Energy of Binding    =  -4.69 kcal/mol  [=(1)+(2)+(3)-(4)]
DOCKED: USER
DOCKED: USER    (1) Final Intermolecular Energy     =  -6.18 kcal/mol
DOCKED: USER        vdW + Hbond + desolv Energy     =  -6.18 kcal/mol
DOCKED: USER        Electrostatic Energy            =  +0.00 kcal/mol
DOCKED: USER        Moving Ligand-Fixed Receptor    =  -6.18 kcal/mol
DOCKED: USER        Moving Ligand-Moving Receptor   =  +0.00 kcal/mol
DOCKED: USER    (2) Final Total Internal Energy     =  -1.26 kcal/mol
DOCKED: USER    (3) Torsional Free Energy           =  +1.49 kcal/mol
DOCKED: USER    (4) Unbound System's Energy         =  -1.26 kcal/mol
DOCKED: USER
DOCKED: USER
DOCKED: REMARK  5 active torsions:
DOCKED: REMARK  status: ('A' for Active; 'I' for Inactive)
DOCKED: REMARK    1  A    between atoms: C_2  and  C_19 
DOCKED: REMARK    2  A    between atoms: C_2  and  C_11 
DOCKED: REMARK    3  A    between atoms: C_19  and  C_20 
DOCKED: REMARK    4  A    between atoms: C_20  and  C_21 
DOCKED: REMARK    5  A    between atoms: C_21  and  N_22 
DOCKED: USER                              x       y       z     vdW  Elec       q    Type
DOCKED: USER                           _______ _______ _______ _____ _____    ______ ____
DOCKED: ROOT
DOCKED: ATOM      1  O   UNL     1     -57.612 -33.645   6.914 -0.07 -0.00    -0.346 OA 
DOCKED: ATOM      2  C   UNL     1     -58.920 -33.894   7.521 -0.15 +0.00    +0.130 C  
DOCKED: ATOM      3  C   UNL     1     -59.236 -35.308   7.127 -0.21 +0.00    +0.004 A  
DOCKED: ATOM      4  C   UNL     1     -58.157 -35.856   6.449 -0.28 +0.00    +0.006 A  
DOCKED: ATOM      5  C   UNL     1     -57.063 -34.863   6.359 -0.17 +0.00    +0.169 C  
DOCKED: ATOM      6  C   UNL     1     -60.383 -36.053   7.360 -0.19 -0.00    -0.001 A  
DOCKED: ATOM      7  C   UNL     1     -58.186 -37.158   5.979 -0.34 +0.00    +0.008 A  
DOCKED: ATOM      8  C   UNL     1     -60.430 -37.366   6.888 -0.21 +0.00    +0.010 A  
DOCKED: ATOM      9  C   UNL     1     -59.337 -37.916   6.202 -0.26 +0.00    +0.068 A  
DOCKED: ATOM     10  N   UNL     1     -59.456 -40.358   5.345 -2.60 -0.00    -0.191 NA 
DOCKED: ATOM     11  C   UNL     1     -59.403 -39.263   5.729 -0.37 +0.00    +0.101 C  
DOCKED: ENDROOT
DOCKED: BRANCH   2  12
DOCKED: ATOM     12  C   UNL     1     -58.795 -33.712   9.029 -0.05 +0.00    +0.038 C  
DOCKED: BRANCH  12  13
DOCKED: ATOM     13  C   UNL     1     -57.432 -34.180   9.535 -0.04 +0.00    +0.038 C  
DOCKED: BRANCH  13  14
DOCKED: ATOM     14  C   UNL     1     -57.445 -35.675   9.846 -0.02 +0.00    +0.251 C  
DOCKED: BRANCH  14  15
DOCKED: ATOM     15  N   UNL     1     -56.085 -36.164  10.046 -0.05 +0.00    +0.141 N  
DOCKED: ATOM     16  C   UNL     1     -55.668 -37.004   8.922 -0.11 +0.00    +0.285 C  
DOCKED: ATOM     17  C   UNL     1     -55.155 -35.046  10.215 -0.01 +0.00    +0.285 C  
DOCKED: ENDBRANCH  14  15
DOCKED: ENDBRANCH  13  14
DOCKED: ENDBRANCH  12  13
DOCKED: ENDBRANCH   2  12
DOCKED: BRANCH   2  18
DOCKED: ATOM     18  C   UNL     1     -59.869 -32.902   6.936 -0.20 +0.00    +0.006 A  
DOCKED: ATOM     19  C   UNL     1     -59.384 -31.844   6.167 -0.18 +0.00    +0.001 A  
DOCKED: ATOM     20  C   UNL     1     -60.272 -30.917   5.621 -0.15 +0.00    +0.029 A  
DOCKED: ATOM     21  C   UNL     1     -61.642 -31.048   5.844 -0.10 +0.00    +0.140 A  
DOCKED: ATOM     22  C   UNL     1     -62.126 -32.106   6.612 -0.19 +0.00    +0.029 A  
DOCKED: ATOM     23  F   UNL     1     -62.494 -30.159   5.318 -0.02 -0.00    -0.204 F  
DOCKED: ATOM     24  C   UNL     1     -61.239 -33.034   7.159 -0.20 +0.00    +0.001 A  
DOCKED: ENDBRANCH   2  18
DOCKED: TORSDOF 5
DOCKED: TER
DOCKED: ENDMDL
________________________________________________________________________________


    FINAL DOCKED STATE:
    ________________________


Run:   413 / 512
Time taken for this run:   0.002s

DOCKED: MODEL        413
DOCKED: USER    Run = 413
DOCKED: USER
DOCKED: USER    Estimated Free Energy of Binding    =  -4.29 kcal/mol  [=(1)+(2)+(3)-(4)]
DOCKED: USER
DOCKED: USER    (1) Final Intermolecular Energy     =  -5.78 kcal/mol
DOCKED: USER        vdW + Hbond + desolv Energy     =  -5.78 kcal/mol
DOCKED: USER        Electrostatic Energy            =  +0.00 kcal/mol
DOCKED: USER        Moving Ligand-Fixed Receptor    =  -5.78 kcal/mol
DOCKED: USER        Moving Ligand-Moving Receptor   =  +0.00 kcal/mol
DOCKED: USER    (2) Final Total Internal Energy     =  -1.15 kcal/mol
DOCKED: USER    (3) Torsional Free Energy           =  +1.49 kcal/mol
DOCKED: USER    (4) Unbound System's Energy         =  -1.15 kcal/mol
DOCKED: USER
DOCKED: USER
DOCKED: REMARK  5 active torsions:
DOCKED: REMARK  status: ('A' for Active; 'I' for Inactive)
DOCKED: REMARK    1  A    between atoms: C_2  and  C_19 
DOCKED: REMARK    2  A    between atoms: C_2  and  C_11 
DOCKED: REMARK    3  A    between atoms: C_19  and  C_20 
DOCKED: REMARK    4  A    between atoms: C_20  and  C_21 
DOCKED: REMARK    5  A    between atoms: C_21  and  N_22 
DOCKED: USER                              x       y       z     vdW  Elec       q    Type
DOCKED: USER                           _______ _______ _______ _____ _____    ______ ____
DOCKED: ROOT
DOCKED: ATOM      1  O   UNL     1     -54.806 -36.014   8.490 -0.08 -0.00    -0.346 OA 
DOCKED: ATOM      2  C   UNL     1     -55.862 -35.117   8.016 -0.12 +0.00    +0.130 C  
DOCKED: ATOM      3  C   UNL     1     -56.847 -36.039   7.356 -0.21 +0.00    +0.004 A  
DOCKED: ATOM      4  C   UNL     1     -56.446 -37.355   7.534 -0.22 +0.00    +0.006 A  
DOCKED: ATOM      5  C   UNL     1     -55.194 -37.397   8.322 -0.16 +0.00    +0.169 C  
DOCKED: ATOM      6  C   UNL     1     -58.010 -35.736   6.664 -0.27 -0.00    -0.001 A  
DOCKED: ATOM      7  C   UNL     1     -57.186 -38.409   7.026 -0.34 +0.00    +0.008 A  
DOCKED: ATOM      8  C   UNL     1     -58.766 -36.788   6.142 -0.31 +0.00    +0.010 A  
DOCKED: ATOM      9  C   UNL     1     -58.356 -38.117   6.323 -0.30 +0.00    +0.068 A  
DOCKED: ATOM     10  N   UNL     1     -59.784 -40.045   5.345 -2.56 -0.00    -0.191 NA 
DOCKED: ATOM     11  C   UNL     1     -59.143 -39.180   5.783 -0.37 +0.00    +0.101 C  
DOCKED: ENDROOT
DOCKED: BRANCH   2  12
DOCKED: ATOM     12  C   UNL     1     -56.447 -34.384   9.217 -0.05 +0.00    +0.038 C  
DOCKED: BRANCH  12  13
DOCKED: ATOM     13  C   UNL     1     -57.734 -33.648   8.847 -0.05 +0.00    +0.038 C  
DOCKED: BRANCH  13  14
DOCKED: ATOM     14  C   UNL     1     -57.562 -32.137   8.987 -0.01 +0.00    +0.251 C  
DOCKED: BRANCH  14  15
DOCKED: ATOM     15  N   UNL     1     -57.775 -31.481   7.702 -0.03 +0.00    +0.141 N  
DOCKED: ATOM     16  C   UNL     1     -58.657 -32.284   6.853 -0.11 +0.00    +0.285 C  
DOCKED: ATOM     17  C   UNL     1     -58.336 -30.143   7.893 -0.01 +0.00    +0.285 C  
DOCKED: ENDBRANCH  14  15
DOCKED: ENDBRANCH  13  14
DOCKED: ENDBRANCH  12  13
DOCKED: ENDBRANCH   2  12
DOCKED: BRANCH   2  18
DOCKED: ATOM     18  C   UNL     1     -55.227 -34.163   7.060 -0.14 +0.00    +0.006 A  
DOCKED: ATOM     19  C   UNL     1     -54.105 -33.433   7.446 -0.07 +0.00    +0.001 A  
DOCKED: ATOM     20  C   UNL     1     -53.513 -32.541   6.551 -0.05 +0.00    +0.029 A  
DOCKED: ATOM     21  C   UNL     1     -54.043 -32.381   5.272 -0.07 +0.00    +0.140 A  
DOCKED: ATOM     22  C   UNL     1     -55.166 -33.113   4.886 -0.11 +0.00    +0.029 A  
DOCKED: ATOM     23  F   UNL     1     -53.474 -31.526   4.413 -0.00 -0.00    -0.204 F  
DOCKED: ATOM     24  C   UNL     1     -55.759 -34.005   5.781 -0.12 +0.00    +0.001 A  
DOCKED: ENDBRANCH   2  18
DOCKED: TORSDOF 5
DOCKED: TER
DOCKED: ENDMDL
________________________________________________________________________________


    FINAL DOCKED STATE:
    ________________________


Run:   414 / 512
Time taken for this run:   0.002s

DOCKED: MODEL        414
DOCKED: USER    Run = 414
DOCKED: USER
DOCKED: USER    Estimated Free Energy of Binding    =  -4.88 kcal/mol  [=(1)+(2)+(3)-(4)]
DOCKED: USER
DOCKED: USER    (1) Final Intermolecular Energy     =  -6.37 kcal/mol
DOCKED: USER        vdW + Hbond + desolv Energy     =  -6.37 kcal/mol
DOCKED: USER        Electrostatic Energy            =  +0.00 kcal/mol
DOCKED: USER        Moving Ligand-Fixed Receptor    =  -6.37 kcal/mol
DOCKED: USER        Moving Ligand-Moving Receptor   =  +0.00 kcal/mol
DOCKED: USER    (2) Final Total Internal Energy     =  -0.89 kcal/mol
DOCKED: USER    (3) Torsional Free Energy           =  +1.49 kcal/mol
DOCKED: USER    (4) Unbound System's Energy         =  -0.89 kcal/mol
DOCKED: USER
DOCKED: USER
DOCKED: REMARK  5 active torsions:
DOCKED: REMARK  status: ('A' for Active; 'I' for Inactive)
DOCKED: REMARK    1  A    between atoms: C_2  and  C_19 
DOCKED: REMARK    2  A    between atoms: C_2  and  C_11 
DOCKED: REMARK    3  A    between atoms: C_19  and  C_20 
DOCKED: REMARK    4  A    between atoms: C_20  and  C_21 
DOCKED: REMARK    5  A    between atoms: C_21  and  N_22 
DOCKED: USER                              x       y       z     vdW  Elec       q    Type
DOCKED: USER                           _______ _______ _______ _____ _____    ______ ____
DOCKED: ROOT
DOCKED: ATOM      1  O   UNL     1     -55.032 -29.956   0.440 -0.09 -0.00    -0.346 OA 
DOCKED: ATOM      2  C   UNL     1     -53.814 -29.823  -0.361 -0.15 +0.00    +0.130 C  
DOCKED: ATOM      3  C   UNL     1     -54.276 -29.115  -1.602 -0.23 +0.00    +0.004 A  
DOCKED: ATOM      4  C   UNL     1     -55.615 -28.774  -1.474 -0.29 +0.00    +0.006 A  
DOCKED: ATOM      5  C   UNL     1     -56.122 -29.214  -0.155 -0.24 +0.00    +0.169 C  
DOCKED: ATOM      6  C   UNL     1     -53.565 -28.788  -2.747 -0.19 -0.00    -0.001 A  
DOCKED: ATOM      7  C   UNL     1     -56.288 -28.103  -2.481 -0.38 +0.00    +0.008 A  
DOCKED: ATOM      8  C   UNL     1     -54.230 -28.115  -3.774 -0.26 +0.00    +0.010 A  
DOCKED: ATOM      9  C   UNL     1     -55.584 -27.774  -3.641 -0.29 +0.00    +0.068 A  
DOCKED: ATOM     10  N   UNL     1     -56.788 -26.522  -5.564 -2.55 -0.00    -0.191 NA 
DOCKED: ATOM     11  C   UNL     1     -56.248 -27.084  -4.701 -0.33 +0.00    +0.101 C  
DOCKED: ENDROOT
DOCKED: BRANCH   2  12
DOCKED: ATOM     12  C   UNL     1     -52.796 -29.017   0.438 -0.15 +0.00    +0.038 C  
DOCKED: BRANCH  12  13
DOCKED: ATOM     13  C   UNL     1     -51.747 -28.385  -0.475 -0.12 +0.00    +0.038 C  
DOCKED: BRANCH  13  14
DOCKED: ATOM     14  C   UNL     1     -51.049 -27.216   0.218 -0.09 +0.00    +0.251 C  
DOCKED: BRANCH  14  15
DOCKED: ATOM     15  N   UNL     1     -51.438 -25.954  -0.401 -0.13 +0.00    +0.141 N  
DOCKED: ATOM     16  C   UNL     1     -50.273 -25.284  -0.982 -0.04 +0.00    +0.285 C  
DOCKED: ATOM     17  C   UNL     1     -52.460 -26.176  -1.425 -0.10 +0.00    +0.285 C  
DOCKED: ENDBRANCH  14  15
DOCKED: ENDBRANCH  13  14
DOCKED: ENDBRANCH  12  13
DOCKED: ENDBRANCH   2  12
DOCKED: BRANCH   2  18
DOCKED: ATOM     18  C   UNL     1     -53.316 -31.203  -0.631 -0.11 +0.00    +0.006 A  
DOCKED: ATOM     19  C   UNL     1     -53.954 -32.299  -0.051 -0.16 +0.00    +0.001 A  
DOCKED: ATOM     20  C   UNL     1     -53.487 -33.590  -0.303 -0.18 +0.00    +0.029 A  
DOCKED: ATOM     21  C   UNL     1     -52.385 -33.782  -1.135 -0.13 +0.00    +0.140 A  
DOCKED: ATOM     22  C   UNL     1     -51.748 -32.686  -1.715 -0.06 +0.00    +0.029 A  
DOCKED: ATOM     23  F   UNL     1     -51.938 -35.021  -1.379 -0.07 -0.00    -0.204 F  
DOCKED: ATOM     24  C   UNL     1     -52.214 -31.394  -1.463 -0.05 +0.00    +0.001 A  
DOCKED: ENDBRANCH   2  18
DOCKED: TORSDOF 5
DOCKED: TER
DOCKED: ENDMDL
________________________________________________________________________________


    FINAL DOCKED STATE:
    ________________________


Run:   415 / 512
Time taken for this run:   0.002s

DOCKED: MODEL        415
DOCKED: USER    Run = 415
DOCKED: USER
DOCKED: USER    Estimated Free Energy of Binding    =  -4.17 kcal/mol  [=(1)+(2)+(3)-(4)]
DOCKED: USER
DOCKED: USER    (1) Final Intermolecular Energy     =  -5.66 kcal/mol
DOCKED: USER        vdW + Hbond + desolv Energy     =  -5.66 kcal/mol
DOCKED: USER        Electrostatic Energy            =  +0.00 kcal/mol
DOCKED: USER        Moving Ligand-Fixed Receptor    =  -5.66 kcal/mol
DOCKED: USER        Moving Ligand-Moving Receptor   =  +0.00 kcal/mol
DOCKED: USER    (2) Final Total Internal Energy     =  -1.41 kcal/mol
DOCKED: USER    (3) Torsional Free Energy           =  +1.49 kcal/mol
DOCKED: USER    (4) Unbound System's Energy         =  -1.41 kcal/mol
DOCKED: USER
DOCKED: USER
DOCKED: REMARK  5 active torsions:
DOCKED: REMARK  status: ('A' for Active; 'I' for Inactive)
DOCKED: REMARK    1  A    between atoms: C_2  and  C_19 
DOCKED: REMARK    2  A    between atoms: C_2  and  C_11 
DOCKED: REMARK    3  A    between atoms: C_19  and  C_20 
DOCKED: REMARK    4  A    between atoms: C_20  and  C_21 
DOCKED: REMARK    5  A    between atoms: C_21  and  N_22 
DOCKED: USER                              x       y       z     vdW  Elec       q    Type
DOCKED: USER                           _______ _______ _______ _____ _____    ______ ____
DOCKED: ROOT
DOCKED: ATOM      1  O   UNL     1     -57.393 -33.909   7.846 -0.03 -0.00    -0.346 OA 
DOCKED: ATOM      2  C   UNL     1     -58.851 -33.825   7.754 -0.12 +0.00    +0.130 C  
DOCKED: ATOM      3  C   UNL     1     -59.254 -35.164   7.208 -0.21 +0.00    +0.004 A  
DOCKED: ATOM      4  C   UNL     1     -58.138 -35.981   7.101 -0.24 +0.00    +0.006 A  
DOCKED: ATOM      5  C   UNL     1     -56.937 -35.255   7.574 -0.15 +0.00    +0.169 C  
DOCKED: ATOM      6  C   UNL     1     -60.511 -35.626   6.845 -0.23 -0.00    -0.001 A  
DOCKED: ATOM      7  C   UNL     1     -58.236 -37.278   6.627 -0.31 +0.00    +0.008 A  
DOCKED: ATOM      8  C   UNL     1     -60.626 -36.931   6.361 -0.21 +0.00    +0.010 A  
DOCKED: ATOM      9  C   UNL     1     -59.494 -37.752   6.253 -0.24 +0.00    +0.068 A  
DOCKED: ATOM     10  N   UNL     1     -59.744 -40.170   5.355 -2.55 -0.00    -0.191 NA 
DOCKED: ATOM     11  C   UNL     1     -59.632 -39.085   5.757 -0.35 +0.00    +0.101 C  
DOCKED: ENDROOT
DOCKED: BRANCH   2  12
DOCKED: ATOM     12  C   UNL     1     -59.408 -33.561   9.148 -0.04 +0.00    +0.038 C  
DOCKED: BRANCH  12  13
DOCKED: ATOM     13  C   UNL     1     -58.702 -32.382   9.815 -0.02 +0.00    +0.038 C  
DOCKED: BRANCH  13  14
DOCKED: ATOM     14  C   UNL     1     -59.535 -31.107   9.702 -0.00 +0.00    +0.251 C  
DOCKED: BRANCH  14  15
DOCKED: ATOM     15  N   UNL     1     -58.667 -29.938   9.628 -0.00 +0.00    +0.141 N  
DOCKED: ATOM     16  C   UNL     1     -57.461 -30.239   8.855 -0.00 +0.00    +0.285 C  
DOCKED: ATOM     17  C   UNL     1     -59.378 -28.804   9.037 -0.00 +0.00    +0.285 C  
DOCKED: ENDBRANCH  14  15
DOCKED: ENDBRANCH  13  14
DOCKED: ENDBRANCH  12  13
DOCKED: ENDBRANCH   2  12
DOCKED: BRANCH   2  18
DOCKED: ATOM     18  C   UNL     1     -59.165 -32.700   6.826 -0.18 +0.00    +0.006 A  
DOCKED: ATOM     19  C   UNL     1     -58.139 -32.065   6.127 -0.14 +0.00    +0.001 A  
DOCKED: ATOM     20  C   UNL     1     -58.435 -31.013   5.260 -0.15 +0.00    +0.029 A  
DOCKED: ATOM     21  C   UNL     1     -59.755 -30.597   5.093 -0.11 +0.00    +0.140 A  
DOCKED: ATOM     22  C   UNL     1     -60.781 -31.232   5.792 -0.14 +0.00    +0.029 A  
DOCKED: ATOM     23  F   UNL     1     -60.038 -29.587   4.260 -0.03 -0.00    -0.204 F  
DOCKED: ATOM     24  C   UNL     1     -60.486 -32.285   6.660 -0.21 +0.00    +0.001 A  
DOCKED: ENDBRANCH   2  18
DOCKED: TORSDOF 5
DOCKED: TER
DOCKED: ENDMDL
________________________________________________________________________________


    FINAL DOCKED STATE:
    ________________________


Run:   416 / 512
Time taken for this run:   0.002s

DOCKED: MODEL        416
DOCKED: USER    Run = 416
DOCKED: USER
DOCKED: USER    Estimated Free Energy of Binding    =  -3.77 kcal/mol  [=(1)+(2)+(3)-(4)]
DOCKED: USER
DOCKED: USER    (1) Final Intermolecular Energy     =  -5.26 kcal/mol
DOCKED: USER        vdW + Hbond + desolv Energy     =  -5.26 kcal/mol
DOCKED: USER        Electrostatic Energy            =  +0.00 kcal/mol
DOCKED: USER        Moving Ligand-Fixed Receptor    =  -5.26 kcal/mol
DOCKED: USER        Moving Ligand-Moving Receptor   =  +0.00 kcal/mol
DOCKED: USER    (2) Final Total Internal Energy     =  -1.37 kcal/mol
DOCKED: USER    (3) Torsional Free Energy           =  +1.49 kcal/mol
DOCKED: USER    (4) Unbound System's Energy         =  -1.37 kcal/mol
DOCKED: USER
DOCKED: USER
DOCKED: REMARK  5 active torsions:
DOCKED: REMARK  status: ('A' for Active; 'I' for Inactive)
DOCKED: REMARK    1  A    between atoms: C_2  and  C_19 
DOCKED: REMARK    2  A    between atoms: C_2  and  C_11 
DOCKED: REMARK    3  A    between atoms: C_19  and  C_20 
DOCKED: REMARK    4  A    between atoms: C_20  and  C_21 
DOCKED: REMARK    5  A    between atoms: C_21  and  N_22 
DOCKED: USER                              x       y       z     vdW  Elec       q    Type
DOCKED: USER                           _______ _______ _______ _____ _____    ______ ____
DOCKED: ROOT
DOCKED: ATOM      1  O   UNL     1     -48.465 -37.072  -0.534 +0.01 -0.00    -0.346 OA 
DOCKED: ATOM      2  C   UNL     1     -49.731 -36.363  -0.345 -0.05 +0.00    +0.130 C  
DOCKED: ATOM      3  C   UNL     1     -50.474 -37.213   0.646 -0.10 +0.00    +0.004 A  
DOCKED: ATOM      4  C   UNL     1     -49.661 -38.254   1.070 -0.08 +0.00    +0.006 A  
DOCKED: ATOM      5  C   UNL     1     -48.340 -38.161   0.410 -0.02 +0.00    +0.169 C  
DOCKED: ATOM      6  C   UNL     1     -51.762 -37.069   1.141 -0.21 -0.00    -0.001 A  
DOCKED: ATOM      7  C   UNL     1     -50.105 -39.185   1.994 -0.18 +0.00    +0.008 A  
DOCKED: ATOM      8  C   UNL     1     -52.226 -38.001   2.070 -0.32 +0.00    +0.010 A  
DOCKED: ATOM      9  C   UNL     1     -51.401 -39.054   2.494 -0.29 +0.00    +0.068 A  
DOCKED: ATOM     10  N   UNL     1     -52.292 -40.765   4.224 -2.67 -0.00    -0.191 NA 
DOCKED: ATOM     11  C   UNL     1     -51.893 -39.998   3.447 -0.39 +0.00    +0.101 C  
DOCKED: ENDROOT
DOCKED: BRANCH   2  12
DOCKED: ATOM     12  C   UNL     1     -49.429 -34.965   0.182 -0.02 +0.00    +0.038 C  
DOCKED: BRANCH  12  13
DOCKED: ATOM     13  C   UNL     1     -49.429 -34.933   1.709 -0.02 +0.00    +0.038 C  
DOCKED: BRANCH  13  14
DOCKED: ATOM     14  C   UNL     1     -48.053 -34.549   2.251 -0.00 +0.00    +0.251 C  
DOCKED: BRANCH  14  15
DOCKED: ATOM     15  N   UNL     1     -47.088 -35.607   1.980 -0.00 +0.00    +0.141 N  
DOCKED: ATOM     16  C   UNL     1     -45.805 -35.040   1.559 +0.00 +0.00    +0.285 C  
DOCKED: ATOM     17  C   UNL     1     -46.906 -36.454   3.159 +0.00 +0.00    +0.285 C  
DOCKED: ENDBRANCH  14  15
DOCKED: ENDBRANCH  13  14
DOCKED: ENDBRANCH  12  13
DOCKED: ENDBRANCH   2  12
DOCKED: BRANCH   2  18
DOCKED: ATOM     18  C   UNL     1     -50.401 -36.303  -1.677 -0.11 +0.00    +0.006 A  
DOCKED: ATOM     19  C   UNL     1     -50.074 -37.233  -2.663 -0.11 +0.00    +0.001 A  
DOCKED: ATOM     20  C   UNL     1     -50.701 -37.176  -3.909 -0.10 +0.00    +0.029 A  
DOCKED: ATOM     21  C   UNL     1     -51.653 -36.190  -4.166 -0.15 +0.00    +0.140 A  
DOCKED: ATOM     22  C   UNL     1     -51.979 -35.261  -3.178 -0.19 +0.00    +0.029 A  
DOCKED: ATOM     23  F   UNL     1     -52.255 -36.136  -5.361 -0.09 -0.00    -0.204 F  
DOCKED: ATOM     24  C   UNL     1     -51.353 -35.317  -1.932 -0.14 +0.00    +0.001 A  
DOCKED: ENDBRANCH   2  18
DOCKED: TORSDOF 5
DOCKED: TER
DOCKED: ENDMDL
________________________________________________________________________________


    FINAL DOCKED STATE:
    ________________________


Run:   417 / 512
Time taken for this run:   0.002s

DOCKED: MODEL        417
DOCKED: USER    Run = 417
DOCKED: USER
DOCKED: USER    Estimated Free Energy of Binding    =  -3.71 kcal/mol  [=(1)+(2)+(3)-(4)]
DOCKED: USER
DOCKED: USER    (1) Final Intermolecular Energy     =  -5.21 kcal/mol
DOCKED: USER        vdW + Hbond + desolv Energy     =  -5.21 kcal/mol
DOCKED: USER        Electrostatic Energy            =  +0.00 kcal/mol
DOCKED: USER        Moving Ligand-Fixed Receptor    =  -5.21 kcal/mol
DOCKED: USER        Moving Ligand-Moving Receptor   =  +0.00 kcal/mol
DOCKED: USER    (2) Final Total Internal Energy     =  -1.37 kcal/mol
DOCKED: USER    (3) Torsional Free Energy           =  +1.49 kcal/mol
DOCKED: USER    (4) Unbound System's Energy         =  -1.37 kcal/mol
DOCKED: USER
DOCKED: USER
DOCKED: REMARK  5 active torsions:
DOCKED: REMARK  status: ('A' for Active; 'I' for Inactive)
DOCKED: REMARK    1  A    between atoms: C_2  and  C_19 
DOCKED: REMARK    2  A    between atoms: C_2  and  C_11 
DOCKED: REMARK    3  A    between atoms: C_19  and  C_20 
DOCKED: REMARK    4  A    between atoms: C_20  and  C_21 
DOCKED: REMARK    5  A    between atoms: C_21  and  N_22 
DOCKED: USER                              x       y       z     vdW  Elec       q    Type
DOCKED: USER                           _______ _______ _______ _____ _____    ______ ____
DOCKED: ROOT
DOCKED: ATOM      1  O   UNL     1     -51.599 -34.396   1.017 +0.01 -0.00    -0.346 OA 
DOCKED: ATOM      2  C   UNL     1     -51.047 -35.398   0.104 -0.09 +0.00    +0.130 C  
DOCKED: ATOM      3  C   UNL     1     -51.212 -36.692   0.847 -0.14 +0.00    +0.004 A  
DOCKED: ATOM      4  C   UNL     1     -51.898 -36.466   2.032 -0.22 +0.00    +0.006 A  
DOCKED: ATOM      5  C   UNL     1     -52.241 -35.030   2.148 -0.13 +0.00    +0.169 C  
DOCKED: ATOM      6  C   UNL     1     -50.799 -37.969   0.497 -0.15 -0.00    -0.001 A  
DOCKED: ATOM      7  C   UNL     1     -52.190 -37.500   2.905 -0.25 +0.00    +0.008 A  
DOCKED: ATOM      8  C   UNL     1     -51.081 -39.022   1.369 -0.23 +0.00    +0.010 A  
DOCKED: ATOM      9  C   UNL     1     -51.773 -38.788   2.567 -0.30 +0.00    +0.068 A  
DOCKED: ATOM     10  N   UNL     1     -52.285 -40.766   4.160 -2.66 -0.00    -0.191 NA 
DOCKED: ATOM     11  C   UNL     1     -52.055 -39.879   3.446 -0.35 +0.00    +0.101 C  
DOCKED: ENDROOT
DOCKED: BRANCH   2  12
DOCKED: ATOM     12  C   UNL     1     -51.840 -35.355  -1.196 -0.12 +0.00    +0.038 C  
DOCKED: BRANCH  12  13
DOCKED: ATOM     13  C   UNL     1     -52.078 -33.918  -1.656 -0.16 +0.00    +0.038 C  
DOCKED: BRANCH  13  14
DOCKED: ATOM     14  C   UNL     1     -53.434 -33.404  -1.174 -0.14 +0.00    +0.251 C  
DOCKED: BRANCH  14  15
DOCKED: ATOM     15  N   UNL     1     -53.254 -32.317  -0.219 -0.09 +0.00    +0.141 N  
DOCKED: ATOM     16  C   UNL     1     -51.919 -31.730  -0.351 -0.01 +0.00    +0.285 C  
DOCKED: ATOM     17  C   UNL     1     -54.281 -31.291  -0.405 -0.12 +0.00    +0.285 C  
DOCKED: ENDBRANCH  14  15
DOCKED: ENDBRANCH  13  14
DOCKED: ENDBRANCH  12  13
DOCKED: ENDBRANCH   2  12
DOCKED: BRANCH   2  18
DOCKED: ATOM     18  C   UNL     1     -49.617 -35.038  -0.125 -0.02 +0.00    +0.006 A  
DOCKED: ATOM     19  C   UNL     1     -49.058 -35.178  -1.395 -0.02 +0.00    +0.001 A  
DOCKED: ATOM     20  C   UNL     1     -47.721 -34.841  -1.608 -0.00 +0.00    +0.029 A  
DOCKED: ATOM     21  C   UNL     1     -46.945 -34.364  -0.553 +0.00 +0.00    +0.140 A  
DOCKED: ATOM     22  C   UNL     1     -47.505 -34.224   0.717 -0.00 +0.00    +0.029 A  
DOCKED: ATOM     23  F   UNL     1     -45.662 -34.039  -0.758 +0.00 -0.00    -0.204 F  
DOCKED: ATOM     24  C   UNL     1     -48.842 -34.561   0.932 -0.01 +0.00    +0.001 A  
DOCKED: ENDBRANCH   2  18
DOCKED: TORSDOF 5
DOCKED: TER
DOCKED: ENDMDL
________________________________________________________________________________


    FINAL DOCKED STATE:
    ________________________


Run:   418 / 512
Time taken for this run:   0.002s

DOCKED: MODEL        418
DOCKED: USER    Run = 418
DOCKED: USER
DOCKED: USER    Estimated Free Energy of Binding    =  -4.31 kcal/mol  [=(1)+(2)+(3)-(4)]
DOCKED: USER
DOCKED: USER    (1) Final Intermolecular Energy     =  -5.80 kcal/mol
DOCKED: USER        vdW + Hbond + desolv Energy     =  -5.80 kcal/mol
DOCKED: USER        Electrostatic Energy            =  +0.00 kcal/mol
DOCKED: USER        Moving Ligand-Fixed Receptor    =  -5.80 kcal/mol
DOCKED: USER        Moving Ligand-Moving Receptor   =  +0.00 kcal/mol
DOCKED: USER    (2) Final Total Internal Energy     =  -1.25 kcal/mol
DOCKED: USER    (3) Torsional Free Energy           =  +1.49 kcal/mol
DOCKED: USER    (4) Unbound System's Energy         =  -1.25 kcal/mol
DOCKED: USER
DOCKED: USER
DOCKED: REMARK  5 active torsions:
DOCKED: REMARK  status: ('A' for Active; 'I' for Inactive)
DOCKED: REMARK    1  A    between atoms: C_2  and  C_19 
DOCKED: REMARK    2  A    between atoms: C_2  and  C_11 
DOCKED: REMARK    3  A    between atoms: C_19  and  C_20 
DOCKED: REMARK    4  A    between atoms: C_20  and  C_21 
DOCKED: REMARK    5  A    between atoms: C_21  and  N_22 
DOCKED: USER                              x       y       z     vdW  Elec       q    Type
DOCKED: USER                           _______ _______ _______ _____ _____    ______ ____
DOCKED: ROOT
DOCKED: ATOM      1  O   UNL     1     -57.088 -38.480   8.703 -0.09 -0.00    -0.346 OA 
DOCKED: ATOM      2  C   UNL     1     -58.238 -37.586   8.566 -0.13 +0.00    +0.130 C  
DOCKED: ATOM      3  C   UNL     1     -58.692 -37.798   7.151 -0.24 +0.00    +0.004 A  
DOCKED: ATOM      4  C   UNL     1     -57.938 -38.805   6.565 -0.39 +0.00    +0.006 A  
DOCKED: ATOM      5  C   UNL     1     -56.956 -39.330   7.540 -0.23 +0.00    +0.169 C  
DOCKED: ATOM      6  C   UNL     1     -59.699 -37.160   6.443 -0.26 -0.00    -0.001 A  
DOCKED: ATOM      7  C   UNL     1     -58.159 -39.203   5.257 -0.43 +0.00    +0.008 A  
DOCKED: ATOM      8  C   UNL     1     -59.932 -37.546   5.122 -0.03 +0.00    +0.010 A  
DOCKED: ATOM      9  C   UNL     1     -59.166 -38.563   4.532 -0.41 +0.00    +0.068 A  
DOCKED: ATOM     10  N   UNL     1     -59.627 -39.261   2.080 -2.10 -0.00    -0.191 NA 
DOCKED: ATOM     11  C   UNL     1     -59.420 -38.947   3.180 -0.51 +0.00    +0.101 C  
DOCKED: ENDROOT
DOCKED: BRANCH   2  12
DOCKED: ATOM     12  C   UNL     1     -59.289 -37.991   9.593 -0.14 +0.00    +0.038 C  
DOCKED: BRANCH  12  13
DOCKED: ATOM     13  C   UNL     1     -59.564 -39.493   9.546 -0.18 +0.00    +0.038 C  
DOCKED: BRANCH  13  14
DOCKED: ATOM     14  C   UNL     1     -61.064 -39.778   9.571 -0.04 +0.00    +0.251 C  
DOCKED: BRANCH  14  15
DOCKED: ATOM     15  N   UNL     1     -61.738 -39.042   8.508 -0.13 +0.00    +0.141 N  
DOCKED: ATOM     16  C   UNL     1     -62.784 -39.863   7.896 -0.11 +0.00    +0.285 C  
DOCKED: ATOM     17  C   UNL     1     -62.308 -37.797   9.025 -0.03 +0.00    +0.285 C  
DOCKED: ENDBRANCH  14  15
DOCKED: ENDBRANCH  13  14
DOCKED: ENDBRANCH  12  13
DOCKED: ENDBRANCH   2  12
DOCKED: BRANCH   2  18
DOCKED: ATOM     18  C   UNL     1     -57.746 -36.200   8.818 -0.09 +0.00    +0.006 A  
DOCKED: ATOM     19  C   UNL     1     -58.656 -35.152   8.955 -0.06 +0.00    +0.001 A  
DOCKED: ATOM     20  C   UNL     1     -58.195 -33.856   9.190 -0.03 +0.00    +0.029 A  
DOCKED: ATOM     21  C   UNL     1     -56.826 -33.610   9.287 -0.02 +0.00    +0.140 A  
DOCKED: ATOM     22  C   UNL     1     -55.917 -34.659   9.150 -0.05 +0.00    +0.029 A  
DOCKED: ATOM     23  F   UNL     1     -56.383 -32.367   9.514 +0.00 -0.00    -0.204 F  
DOCKED: ATOM     24  C   UNL     1     -56.377 -35.955   8.915 -0.11 +0.00    +0.001 A  
DOCKED: ENDBRANCH   2  18
DOCKED: TORSDOF 5
DOCKED: TER
DOCKED: ENDMDL
________________________________________________________________________________


    FINAL DOCKED STATE:
    ________________________


Run:   419 / 512
Time taken for this run:   0.002s

DOCKED: MODEL        419
DOCKED: USER    Run = 419
DOCKED: USER
DOCKED: USER    Estimated Free Energy of Binding    =  -4.55 kcal/mol  [=(1)+(2)+(3)-(4)]
DOCKED: USER
DOCKED: USER    (1) Final Intermolecular Energy     =  -6.05 kcal/mol
DOCKED: USER        vdW + Hbond + desolv Energy     =  -6.05 kcal/mol
DOCKED: USER        Electrostatic Energy            =  +0.00 kcal/mol
DOCKED: USER        Moving Ligand-Fixed Receptor    =  -6.05 kcal/mol
DOCKED: USER        Moving Ligand-Moving Receptor   =  +0.00 kcal/mol
DOCKED: USER    (2) Final Total Internal Energy     =  -1.03 kcal/mol
DOCKED: USER    (3) Torsional Free Energy           =  +1.49 kcal/mol
DOCKED: USER    (4) Unbound System's Energy         =  -1.03 kcal/mol
DOCKED: USER
DOCKED: USER
DOCKED: REMARK  5 active torsions:
DOCKED: REMARK  status: ('A' for Active; 'I' for Inactive)
DOCKED: REMARK    1  A    between atoms: C_2  and  C_19 
DOCKED: REMARK    2  A    between atoms: C_2  and  C_11 
DOCKED: REMARK    3  A    between atoms: C_19  and  C_20 
DOCKED: REMARK    4  A    between atoms: C_20  and  C_21 
DOCKED: REMARK    5  A    between atoms: C_21  and  N_22 
DOCKED: USER                              x       y       z     vdW  Elec       q    Type
DOCKED: USER                           _______ _______ _______ _____ _____    ______ ____
DOCKED: ROOT
DOCKED: ATOM      1  O   UNL     1     -58.494 -35.869   8.564 -0.01 -0.00    -0.346 OA 
DOCKED: ATOM      2  C   UNL     1     -57.523 -36.959   8.454 -0.14 +0.00    +0.130 C  
DOCKED: ATOM      3  C   UNL     1     -57.879 -37.627   7.157 -0.28 +0.00    +0.004 A  
DOCKED: ATOM      4  C   UNL     1     -58.891 -36.916   6.528 -0.28 +0.00    +0.006 A  
DOCKED: ATOM      5  C   UNL     1     -59.261 -35.739   7.345 -0.16 +0.00    +0.169 C  
DOCKED: ATOM      6  C   UNL     1     -57.343 -38.767   6.576 -0.38 -0.00    -0.001 A  
DOCKED: ATOM      7  C   UNL     1     -59.402 -37.318   5.305 -0.21 +0.00    +0.008 A  
DOCKED: ATOM      8  C   UNL     1     -57.850 -39.188   5.345 -0.33 +0.00    +0.010 A  
DOCKED: ATOM      9  C   UNL     1     -58.874 -38.467   4.714 -0.40 +0.00    +0.068 A  
DOCKED: ATOM     10  N   UNL     1     -59.790 -39.273   2.428 -1.92 -0.00    -0.191 NA 
DOCKED: ATOM     11  C   UNL     1     -59.380 -38.912   3.453 -0.52 +0.00    +0.101 C  
DOCKED: ENDROOT
DOCKED: BRANCH   2  12
DOCKED: ATOM     12  C   UNL     1     -56.122 -36.359   8.447 -0.18 +0.00    +0.038 C  
DOCKED: BRANCH  12  13
DOCKED: ATOM     13  C   UNL     1     -55.058 -37.434   8.234 -0.17 +0.00    +0.038 C  
DOCKED: BRANCH  13  14
DOCKED: ATOM     14  C   UNL     1     -53.962 -37.339   9.294 -0.10 +0.00    +0.251 C  
DOCKED: BRANCH  14  15
DOCKED: ATOM     15  N   UNL     1     -53.690 -35.944   9.619 -0.05 +0.00    +0.141 N  
DOCKED: ATOM     16  C   UNL     1     -53.434 -35.788  11.052 -0.01 +0.00    +0.285 C  
DOCKED: ATOM     17  C   UNL     1     -52.552 -35.446   8.843 -0.04 +0.00    +0.285 C  
DOCKED: ENDBRANCH  14  15
DOCKED: ENDBRANCH  13  14
DOCKED: ENDBRANCH  12  13
DOCKED: ENDBRANCH   2  12
DOCKED: BRANCH   2  18
DOCKED: ATOM     18  C   UNL     1     -57.725 -37.844   9.638 -0.14 +0.00    +0.006 A  
DOCKED: ATOM     19  C   UNL     1     -58.742 -38.798   9.631 -0.20 +0.00    +0.001 A  
DOCKED: ATOM     20  C   UNL     1     -58.929 -39.625  10.739 -0.05 +0.00    +0.029 A  
DOCKED: ATOM     21  C   UNL     1     -58.100 -39.497  11.852 -0.15 +0.00    +0.140 A  
DOCKED: ATOM     22  C   UNL     1     -57.083 -38.543  11.859 -0.13 +0.00    +0.029 A  
DOCKED: ATOM     23  F   UNL     1     -58.278 -40.291  12.916 -0.04 -0.00    -0.204 F  
DOCKED: ATOM     24  C   UNL     1     -56.895 -37.715  10.751 -0.11 +0.00    +0.001 A  
DOCKED: ENDBRANCH   2  18
DOCKED: TORSDOF 5
DOCKED: TER
DOCKED: ENDMDL
________________________________________________________________________________


    FINAL DOCKED STATE:
    ________________________


Run:   420 / 512
Time taken for this run:   0.002s

DOCKED: MODEL        420
DOCKED: USER    Run = 420
DOCKED: USER
DOCKED: USER    Estimated Free Energy of Binding    =  -3.59 kcal/mol  [=(1)+(2)+(3)-(4)]
DOCKED: USER
DOCKED: USER    (1) Final Intermolecular Energy     =  -5.08 kcal/mol
DOCKED: USER        vdW + Hbond + desolv Energy     =  -5.08 kcal/mol
DOCKED: USER        Electrostatic Energy            =  +0.00 kcal/mol
DOCKED: USER        Moving Ligand-Fixed Receptor    =  -5.08 kcal/mol
DOCKED: USER        Moving Ligand-Moving Receptor   =  +0.00 kcal/mol
DOCKED: USER    (2) Final Total Internal Energy     =  -1.07 kcal/mol
DOCKED: USER    (3) Torsional Free Energy           =  +1.49 kcal/mol
DOCKED: USER    (4) Unbound System's Energy         =  -1.07 kcal/mol
DOCKED: USER
DOCKED: USER
DOCKED: REMARK  5 active torsions:
DOCKED: REMARK  status: ('A' for Active; 'I' for Inactive)
DOCKED: REMARK    1  A    between atoms: C_2  and  C_19 
DOCKED: REMARK    2  A    between atoms: C_2  and  C_11 
DOCKED: REMARK    3  A    between atoms: C_19  and  C_20 
DOCKED: REMARK    4  A    between atoms: C_20  and  C_21 
DOCKED: REMARK    5  A    between atoms: C_21  and  N_22 
DOCKED: USER                              x       y       z     vdW  Elec       q    Type
DOCKED: USER                           _______ _______ _______ _____ _____    ______ ____
DOCKED: ROOT
DOCKED: ATOM      1  O   UNL     1     -57.428 -35.105   9.939 -0.00 -0.00    -0.346 OA 
DOCKED: ATOM      2  C   UNL     1     -56.256 -35.766   9.365 -0.07 +0.00    +0.130 C  
DOCKED: ATOM      3  C   UNL     1     -56.840 -36.788   8.432 -0.17 +0.00    +0.004 A  
DOCKED: ATOM      4  C   UNL     1     -58.220 -36.648   8.392 -0.12 +0.00    +0.006 A  
DOCKED: ATOM      5  C   UNL     1     -58.638 -35.534   9.272 -0.04 +0.00    +0.169 C  
DOCKED: ATOM      6  C   UNL     1     -56.200 -37.755   7.671 -0.22 -0.00    -0.001 A  
DOCKED: ATOM      7  C   UNL     1     -59.004 -37.468   7.599 -0.18 +0.00    +0.008 A  
DOCKED: ATOM      8  C   UNL     1     -56.978 -38.593   6.870 -0.33 +0.00    +0.010 A  
DOCKED: ATOM      9  C   UNL     1     -58.373 -38.449   6.833 -0.28 +0.00    +0.068 A  
DOCKED: ATOM     10  N   UNL     1     -59.786 -40.017   5.331 -2.55 -0.00    -0.191 NA 
DOCKED: ATOM     11  C   UNL     1     -59.152 -39.314   6.005 -0.24 +0.00    +0.101 C  
DOCKED: ENDROOT
DOCKED: BRANCH   2  12
DOCKED: ATOM     12  C   UNL     1     -55.414 -34.719   8.646 -0.09 +0.00    +0.038 C  
DOCKED: BRANCH  12  13
DOCKED: ATOM     13  C   UNL     1     -56.175 -33.404   8.490 -0.05 +0.00    +0.038 C  
DOCKED: BRANCH  13  14
DOCKED: ATOM     14  C   UNL     1     -55.723 -32.652   7.240 -0.05 +0.00    +0.251 C  
DOCKED: BRANCH  14  15
DOCKED: ATOM     15  N   UNL     1     -56.750 -32.721   6.207 -0.11 +0.00    +0.141 N  
DOCKED: ATOM     16  C   UNL     1     -57.922 -33.451   6.693 -0.12 +0.00    +0.285 C  
DOCKED: ATOM     17  C   UNL     1     -57.134 -31.377   5.771 -0.08 +0.00    +0.285 C  
DOCKED: ENDBRANCH  14  15
DOCKED: ENDBRANCH  13  14
DOCKED: ENDBRANCH  12  13
DOCKED: ENDBRANCH   2  12
DOCKED: BRANCH   2  18
DOCKED: ATOM     18  C   UNL     1     -55.501 -36.378  10.498 -0.07 +0.00    +0.006 A  
DOCKED: ATOM     19  C   UNL     1     -55.464 -37.764  10.643 -0.11 +0.00    +0.001 A  
DOCKED: ATOM     20  C   UNL     1     -54.759 -38.335  11.703 -0.11 +0.00    +0.029 A  
DOCKED: ATOM     21  C   UNL     1     -54.092 -37.519  12.616 -0.04 +0.00    +0.140 A  
DOCKED: ATOM     22  C   UNL     1     -54.130 -36.133  12.471 -0.02 +0.00    +0.029 A  
DOCKED: ATOM     23  F   UNL     1     -53.414 -38.067  13.633 -0.00 -0.00    -0.204 F  
DOCKED: ATOM     24  C   UNL     1     -54.836 -35.561  11.411 -0.02 +0.00    +0.001 A  
DOCKED: ENDBRANCH   2  18
DOCKED: TORSDOF 5
DOCKED: TER
DOCKED: ENDMDL
________________________________________________________________________________


    FINAL DOCKED STATE:
    ________________________


Run:   421 / 512
Time taken for this run:   0.002s

DOCKED: MODEL        421
DOCKED: USER    Run = 421
DOCKED: USER
DOCKED: USER    Estimated Free Energy of Binding    =  -3.81 kcal/mol  [=(1)+(2)+(3)-(4)]
DOCKED: USER
DOCKED: USER    (1) Final Intermolecular Energy     =  -5.30 kcal/mol
DOCKED: USER        vdW + Hbond + desolv Energy     =  -5.30 kcal/mol
DOCKED: USER        Electrostatic Energy            =  +0.00 kcal/mol
DOCKED: USER        Moving Ligand-Fixed Receptor    =  -5.30 kcal/mol
DOCKED: USER        Moving Ligand-Moving Receptor   =  +0.00 kcal/mol
DOCKED: USER    (2) Final Total Internal Energy     =  -1.06 kcal/mol
DOCKED: USER    (3) Torsional Free Energy           =  +1.49 kcal/mol
DOCKED: USER    (4) Unbound System's Energy         =  -1.06 kcal/mol
DOCKED: USER
DOCKED: USER
DOCKED: REMARK  5 active torsions:
DOCKED: REMARK  status: ('A' for Active; 'I' for Inactive)
DOCKED: REMARK    1  A    between atoms: C_2  and  C_19 
DOCKED: REMARK    2  A    between atoms: C_2  and  C_11 
DOCKED: REMARK    3  A    between atoms: C_19  and  C_20 
DOCKED: REMARK    4  A    between atoms: C_20  and  C_21 
DOCKED: REMARK    5  A    between atoms: C_21  and  N_22 
DOCKED: USER                              x       y       z     vdW  Elec       q    Type
DOCKED: USER                           _______ _______ _______ _____ _____    ______ ____
DOCKED: ROOT
DOCKED: ATOM      1  O   UNL     1     -49.924 -36.249  -0.708 +0.00 -0.00    -0.346 OA 
DOCKED: ATOM      2  C   UNL     1     -49.663 -37.608  -1.185 -0.08 +0.00    +0.130 C  
DOCKED: ATOM      3  C   UNL     1     -50.176 -38.483  -0.078 -0.12 +0.00    +0.004 A  
DOCKED: ATOM      4  C   UNL     1     -50.777 -37.699   0.896 -0.14 +0.00    +0.006 A  
DOCKED: ATOM      5  C   UNL     1     -50.716 -36.273   0.502 -0.08 +0.00    +0.169 C  
DOCKED: ATOM      6  C   UNL     1     -50.124 -39.863   0.051 -0.16 -0.00    -0.001 A  
DOCKED: ATOM      7  C   UNL     1     -51.340 -38.262   2.028 -0.25 +0.00    +0.008 A  
DOCKED: ATOM      8  C   UNL     1     -50.684 -40.446   1.189 -0.27 +0.00    +0.010 A  
DOCKED: ATOM      9  C   UNL     1     -51.289 -39.649   2.172 -0.30 +0.00    +0.068 A  
DOCKED: ATOM     10  N   UNL     1     -52.323 -40.764   4.270 -2.64 -0.00    -0.191 NA 
DOCKED: ATOM     11  C   UNL     1     -51.859 -40.264   3.330 -0.36 +0.00    +0.101 C  
DOCKED: ENDROOT
DOCKED: BRANCH   2  12
DOCKED: ATOM     12  C   UNL     1     -50.412 -37.811  -2.497 -0.07 +0.00    +0.038 C  
DOCKED: BRANCH  12  13
DOCKED: ATOM     13  C   UNL     1     -50.010 -36.765  -3.536 -0.11 +0.00    +0.038 C  
DOCKED: BRANCH  13  14
DOCKED: ATOM     14  C   UNL     1     -50.907 -36.844  -4.770 -0.11 +0.00    +0.251 C  
DOCKED: BRANCH  14  15
DOCKED: ATOM     15  N   UNL     1     -52.174 -36.167  -4.520 -0.21 +0.00    +0.141 N  
DOCKED: ATOM     16  C   UNL     1     -52.004 -35.103  -3.529 -0.18 +0.00    +0.285 C  
DOCKED: ATOM     17  C   UNL     1     -52.719 -35.620  -5.764 -0.18 +0.00    +0.285 C  
DOCKED: ENDBRANCH  14  15
DOCKED: ENDBRANCH  13  14
DOCKED: ENDBRANCH  12  13
DOCKED: ENDBRANCH   2  12
DOCKED: BRANCH   2  18
DOCKED: ATOM     18  C   UNL     1     -48.189 -37.725  -1.384 -0.02 +0.00    +0.006 A  
DOCKED: ATOM     19  C   UNL     1     -47.631 -38.946  -1.762 -0.02 +0.00    +0.001 A  
DOCKED: ATOM     20  C   UNL     1     -46.252 -39.054  -1.947 -0.01 +0.00    +0.029 A  
DOCKED: ATOM     21  C   UNL     1     -45.434 -37.942  -1.754 -0.00 +0.00    +0.140 A  
DOCKED: ATOM     22  C   UNL     1     -45.992 -36.721  -1.377 -0.00 +0.00    +0.029 A  
DOCKED: ATOM     23  F   UNL     1     -44.110 -38.046  -1.934 +0.00 -0.00    -0.204 F  
DOCKED: ATOM     24  C   UNL     1     -47.371 -36.612  -1.191 -0.00 +0.00    +0.001 A  
DOCKED: ENDBRANCH   2  18
DOCKED: TORSDOF 5
DOCKED: TER
DOCKED: ENDMDL
________________________________________________________________________________


    FINAL DOCKED STATE:
    ________________________


Run:   422 / 512
Time taken for this run:   0.002s

DOCKED: MODEL        422
DOCKED: USER    Run = 422
DOCKED: USER
DOCKED: USER    Estimated Free Energy of Binding    =  -4.38 kcal/mol  [=(1)+(2)+(3)-(4)]
DOCKED: USER
DOCKED: USER    (1) Final Intermolecular Energy     =  -5.88 kcal/mol
DOCKED: USER        vdW + Hbond + desolv Energy     =  -5.88 kcal/mol
DOCKED: USER        Electrostatic Energy            =  +0.00 kcal/mol
DOCKED: USER        Moving Ligand-Fixed Receptor    =  -5.88 kcal/mol
DOCKED: USER        Moving Ligand-Moving Receptor   =  +0.00 kcal/mol
DOCKED: USER    (2) Final Total Internal Energy     =  -1.23 kcal/mol
DOCKED: USER    (3) Torsional Free Energy           =  +1.49 kcal/mol
DOCKED: USER    (4) Unbound System's Energy         =  -1.23 kcal/mol
DOCKED: USER
DOCKED: USER
DOCKED: REMARK  5 active torsions:
DOCKED: REMARK  status: ('A' for Active; 'I' for Inactive)
DOCKED: REMARK    1  A    between atoms: C_2  and  C_19 
DOCKED: REMARK    2  A    between atoms: C_2  and  C_11 
DOCKED: REMARK    3  A    between atoms: C_19  and  C_20 
DOCKED: REMARK    4  A    between atoms: C_20  and  C_21 
DOCKED: REMARK    5  A    between atoms: C_21  and  N_22 
DOCKED: USER                              x       y       z     vdW  Elec       q    Type
DOCKED: USER                           _______ _______ _______ _____ _____    ______ ____
DOCKED: ROOT
DOCKED: ATOM      1  O   UNL     1     -57.473 -39.263   9.441 -0.12 -0.00    -0.346 OA 
DOCKED: ATOM      2  C   UNL     1     -57.415 -37.835   9.123 -0.15 +0.00    +0.130 C  
DOCKED: ATOM      3  C   UNL     1     -57.814 -37.773   7.677 -0.25 +0.00    +0.004 A  
DOCKED: ATOM      4  C   UNL     1     -58.176 -39.038   7.237 -0.30 +0.00    +0.006 A  
DOCKED: ATOM      5  C   UNL     1     -58.056 -40.009   8.347 -0.18 +0.00    +0.169 C  
DOCKED: ATOM      6  C   UNL     1     -57.865 -36.681   6.822 -0.29 -0.00    -0.001 A  
DOCKED: ATOM      7  C   UNL     1     -58.594 -39.257   5.936 -0.37 +0.00    +0.008 A  
DOCKED: ATOM      8  C   UNL     1     -58.280 -36.886   5.505 -0.31 +0.00    +0.010 A  
DOCKED: ATOM      9  C   UNL     1     -58.643 -38.167   5.065 -0.37 +0.00    +0.068 A  
DOCKED: ATOM     10  N   UNL     1     -59.414 -38.511   2.615 -1.81 -0.00    -0.191 NA 
DOCKED: ATOM     11  C   UNL     1     -59.068 -38.357   3.714 -0.49 +0.00    +0.101 C  
DOCKED: ENDROOT
DOCKED: BRANCH   2  12
DOCKED: ATOM     12  C   UNL     1     -58.383 -37.097  10.039 -0.08 +0.00    +0.038 C  
DOCKED: BRANCH  12  13
DOCKED: ATOM     13  C   UNL     1     -58.867 -37.994  11.177 -0.10 +0.00    +0.038 C  
DOCKED: BRANCH  13  14
DOCKED: ATOM     14  C   UNL     1     -60.382 -38.180  11.123 -0.04 +0.00    +0.251 C  
DOCKED: BRANCH  14  15
DOCKED: ATOM     15  N   UNL     1     -60.712 -39.568  10.818 -0.12 +0.00    +0.141 N  
DOCKED: ATOM     16  C   UNL     1     -61.324 -40.219  11.977 -0.10 +0.00    +0.285 C  
DOCKED: ATOM     17  C   UNL     1     -61.607 -39.643   9.662 -0.07 +0.00    +0.285 C  
DOCKED: ENDBRANCH  14  15
DOCKED: ENDBRANCH  13  14
DOCKED: ENDBRANCH  12  13
DOCKED: ENDBRANCH   2  12
DOCKED: BRANCH   2  18
DOCKED: ATOM     18  C   UNL     1     -56.009 -37.393   9.357 -0.16 +0.00    +0.006 A  
DOCKED: ATOM     19  C   UNL     1     -55.092 -37.400   8.307 -0.19 +0.00    +0.001 A  
DOCKED: ATOM     20  C   UNL     1     -53.778 -36.987   8.527 -0.16 +0.00    +0.029 A  
DOCKED: ATOM     21  C   UNL     1     -53.382 -36.567   9.796 -0.07 +0.00    +0.140 A  
DOCKED: ATOM     22  C   UNL     1     -54.300 -36.560  10.846 -0.06 +0.00    +0.029 A  
DOCKED: ATOM     23  F   UNL     1     -52.121 -36.168  10.007 -0.00 -0.00    -0.204 F  
DOCKED: ATOM     24  C   UNL     1     -55.615 -36.974  10.627 -0.09 +0.00    +0.001 A  
DOCKED: ENDBRANCH   2  18
DOCKED: TORSDOF 5
DOCKED: TER
DOCKED: ENDMDL
________________________________________________________________________________


    FINAL DOCKED STATE:
    ________________________


Run:   423 / 512
Time taken for this run:   0.002s

DOCKED: MODEL        423
DOCKED: USER    Run = 423
DOCKED: USER
DOCKED: USER    Estimated Free Energy of Binding    =  -4.54 kcal/mol  [=(1)+(2)+(3)-(4)]
DOCKED: USER
DOCKED: USER    (1) Final Intermolecular Energy     =  -6.03 kcal/mol
DOCKED: USER        vdW + Hbond + desolv Energy     =  -6.03 kcal/mol
DOCKED: USER        Electrostatic Energy            =  +0.00 kcal/mol
DOCKED: USER        Moving Ligand-Fixed Receptor    =  -6.03 kcal/mol
DOCKED: USER        Moving Ligand-Moving Receptor   =  +0.00 kcal/mol
DOCKED: USER    (2) Final Total Internal Energy     =  -0.96 kcal/mol
DOCKED: USER    (3) Torsional Free Energy           =  +1.49 kcal/mol
DOCKED: USER    (4) Unbound System's Energy         =  -0.96 kcal/mol
DOCKED: USER
DOCKED: USER
DOCKED: REMARK  5 active torsions:
DOCKED: REMARK  status: ('A' for Active; 'I' for Inactive)
DOCKED: REMARK    1  A    between atoms: C_2  and  C_19 
DOCKED: REMARK    2  A    between atoms: C_2  and  C_11 
DOCKED: REMARK    3  A    between atoms: C_19  and  C_20 
DOCKED: REMARK    4  A    between atoms: C_20  and  C_21 
DOCKED: REMARK    5  A    between atoms: C_21  and  N_22 
DOCKED: USER                              x       y       z     vdW  Elec       q    Type
DOCKED: USER                           _______ _______ _______ _____ _____    ______ ____
DOCKED: ROOT
DOCKED: ATOM      1  O   UNL     1     -55.301 -30.264   0.785 -0.08 -0.00    -0.346 OA 
DOCKED: ATOM      2  C   UNL     1     -54.027 -29.869   0.183 -0.15 +0.00    +0.130 C  
DOCKED: ATOM      3  C   UNL     1     -54.430 -29.151  -1.073 -0.23 +0.00    +0.004 A  
DOCKED: ATOM      4  C   UNL     1     -55.812 -29.047  -1.128 -0.28 +0.00    +0.006 A  
DOCKED: ATOM      5  C   UNL     1     -56.411 -29.668   0.075 -0.24 +0.00    +0.169 C  
DOCKED: ATOM      6  C   UNL     1     -53.635 -28.623  -2.080 -0.19 -0.00    -0.001 A  
DOCKED: ATOM      7  C   UNL     1     -56.446 -28.419  -2.186 -0.35 +0.00    +0.008 A  
DOCKED: ATOM      8  C   UNL     1     -54.260 -27.990  -3.156 -0.26 +0.00    +0.010 A  
DOCKED: ATOM      9  C   UNL     1     -55.658 -27.888  -3.209 -0.32 +0.00    +0.068 A  
DOCKED: ATOM     10  N   UNL     1     -56.784 -26.703  -5.218 -2.47 -0.00    -0.191 NA 
DOCKED: ATOM     11  C   UNL     1     -56.279 -27.235  -4.317 -0.40 +0.00    +0.101 C  
DOCKED: ENDROOT
DOCKED: BRANCH   2  12
DOCKED: ATOM     12  C   UNL     1     -53.285 -28.973   1.167 -0.15 +0.00    +0.038 C  
DOCKED: BRANCH  12  13
DOCKED: ATOM     13  C   UNL     1     -51.855 -28.700   0.703 -0.12 +0.00    +0.038 C  
DOCKED: BRANCH  13  14
DOCKED: ATOM     14  C   UNL     1     -51.732 -27.305   0.094 -0.07 +0.00    +0.251 C  
DOCKED: BRANCH  14  15
DOCKED: ATOM     15  N   UNL     1     -50.648 -26.567   0.731 -0.09 +0.00    +0.141 N  
DOCKED: ATOM     16  C   UNL     1     -50.250 -27.212   1.983 -0.06 +0.00    +0.285 C  
DOCKED: ATOM     17  C   UNL     1     -49.499 -26.457  -0.170 -0.03 +0.00    +0.285 C  
DOCKED: ENDBRANCH  14  15
DOCKED: ENDBRANCH  13  14
DOCKED: ENDBRANCH  12  13
DOCKED: ENDBRANCH   2  12
DOCKED: BRANCH   2  18
DOCKED: ATOM     18  C   UNL     1     -53.263 -31.124  -0.084 -0.09 +0.00    +0.006 A  
DOCKED: ATOM     19  C   UNL     1     -52.575 -31.754   0.952 -0.04 +0.00    +0.001 A  
DOCKED: ATOM     20  C   UNL     1     -51.861 -32.927   0.701 -0.04 +0.00    +0.029 A  
DOCKED: ATOM     21  C   UNL     1     -51.838 -33.467  -0.584 -0.07 +0.00    +0.140 A  
DOCKED: ATOM     22  C   UNL     1     -52.527 -32.836  -1.619 -0.13 +0.00    +0.029 A  
DOCKED: ATOM     23  F   UNL     1     -51.154 -34.593  -0.824 -0.02 -0.00    -0.204 F  
DOCKED: ATOM     24  C   UNL     1     -53.240 -31.663  -1.370 -0.14 +0.00    +0.001 A  
DOCKED: ENDBRANCH   2  18
DOCKED: TORSDOF 5
DOCKED: TER
DOCKED: ENDMDL
________________________________________________________________________________


    FINAL DOCKED STATE:
    ________________________


Run:   424 / 512
Time taken for this run:   0.002s

DOCKED: MODEL        424
DOCKED: USER    Run = 424
DOCKED: USER
DOCKED: USER    Estimated Free Energy of Binding    =  -5.03 kcal/mol  [=(1)+(2)+(3)-(4)]
DOCKED: USER
DOCKED: USER    (1) Final Intermolecular Energy     =  -6.53 kcal/mol
DOCKED: USER        vdW + Hbond + desolv Energy     =  -6.53 kcal/mol
DOCKED: USER        Electrostatic Energy            =  +0.00 kcal/mol
DOCKED: USER        Moving Ligand-Fixed Receptor    =  -6.53 kcal/mol
DOCKED: USER        Moving Ligand-Moving Receptor   =  +0.00 kcal/mol
DOCKED: USER    (2) Final Total Internal Energy     =  -0.98 kcal/mol
DOCKED: USER    (3) Torsional Free Energy           =  +1.49 kcal/mol
DOCKED: USER    (4) Unbound System's Energy         =  -0.98 kcal/mol
DOCKED: USER
DOCKED: USER
DOCKED: REMARK  5 active torsions:
DOCKED: REMARK  status: ('A' for Active; 'I' for Inactive)
DOCKED: REMARK    1  A    between atoms: C_2  and  C_19 
DOCKED: REMARK    2  A    between atoms: C_2  and  C_11 
DOCKED: REMARK    3  A    between atoms: C_19  and  C_20 
DOCKED: REMARK    4  A    between atoms: C_20  and  C_21 
DOCKED: REMARK    5  A    between atoms: C_21  and  N_22 
DOCKED: USER                              x       y       z     vdW  Elec       q    Type
DOCKED: USER                           _______ _______ _______ _____ _____    ______ ____
DOCKED: ROOT
DOCKED: ATOM      1  O   UNL     1     -57.660 -36.056   7.524 -0.07 -0.00    -0.346 OA 
DOCKED: ATOM      2  C   UNL     1     -58.547 -37.159   7.897 -0.15 +0.00    +0.130 C  
DOCKED: ATOM      3  C   UNL     1     -59.006 -37.712   6.578 -0.28 +0.00    +0.004 A  
DOCKED: ATOM      4  C   UNL     1     -58.353 -37.056   5.544 -0.34 +0.00    +0.006 A  
DOCKED: ATOM      5  C   UNL     1     -57.422 -36.047   6.098 -0.11 +0.00    +0.169 C  
DOCKED: ATOM      6  C   UNL     1     -59.919 -38.723   6.316 -0.30 -0.00    -0.001 A  
DOCKED: ATOM      7  C   UNL     1     -58.592 -37.381   4.220 -0.12 +0.00    +0.008 A  
DOCKED: ATOM      8  C   UNL     1     -60.174 -39.060   4.985 -0.40 +0.00    +0.010 A  
DOCKED: ATOM      9  C   UNL     1     -59.513 -38.392   3.943 -0.40 +0.00    +0.068 A  
DOCKED: ATOM     10  N   UNL     1     -60.006 -39.046   1.485 -2.96 -0.00    -0.191 NA 
DOCKED: ATOM     11  C   UNL     1     -59.785 -38.752   2.587 -0.27 +0.00    +0.101 C  
DOCKED: ENDROOT
DOCKED: BRANCH   2  12
DOCKED: ATOM     12  C   UNL     1     -57.748 -38.165   8.716 -0.22 +0.00    +0.038 C  
DOCKED: BRANCH  12  13
DOCKED: ATOM     13  C   UNL     1     -58.591 -39.389   9.071 -0.29 +0.00    +0.038 C  
DOCKED: BRANCH  13  14
DOCKED: ATOM     14  C   UNL     1     -58.599 -39.632  10.579 -0.04 +0.00    +0.251 C  
DOCKED: BRANCH  14  15
DOCKED: ATOM     15  N   UNL     1     -57.775 -38.639  11.257 -0.11 +0.00    +0.141 N  
DOCKED: ATOM     16  C   UNL     1     -58.598 -37.780  12.111 -0.02 +0.00    +0.285 C  
DOCKED: ATOM     17  C   UNL     1     -56.730 -39.290  12.050 -0.13 +0.00    +0.285 C  
DOCKED: ENDBRANCH  14  15
DOCKED: ENDBRANCH  13  14
DOCKED: ENDBRANCH  12  13
DOCKED: ENDBRANCH   2  12
DOCKED: BRANCH   2  18
DOCKED: ATOM     18  C   UNL     1     -59.660 -36.573   8.700 -0.08 +0.00    +0.006 A  
DOCKED: ATOM     19  C   UNL     1     -60.686 -37.391   9.171 -0.09 +0.00    +0.001 A  
DOCKED: ATOM     20  C   UNL     1     -61.725 -36.841   9.921 -0.05 +0.00    +0.029 A  
DOCKED: ATOM     21  C   UNL     1     -61.737 -35.475  10.201 -0.01 +0.00    +0.140 A  
DOCKED: ATOM     22  C   UNL     1     -60.710 -34.657   9.730 -0.03 +0.00    +0.029 A  
DOCKED: ATOM     23  F   UNL     1     -62.735 -34.948  10.923 +0.01 -0.00    -0.204 F  
DOCKED: ATOM     24  C   UNL     1     -59.670 -35.206   8.978 -0.06 +0.00    +0.001 A  
DOCKED: ENDBRANCH   2  18
DOCKED: TORSDOF 5
DOCKED: TER
DOCKED: ENDMDL
________________________________________________________________________________


    FINAL DOCKED STATE:
    ________________________


Run:   425 / 512
Time taken for this run:   0.002s

DOCKED: MODEL        425
DOCKED: USER    Run = 425
DOCKED: USER
DOCKED: USER    Estimated Free Energy of Binding    =  -4.28 kcal/mol  [=(1)+(2)+(3)-(4)]
DOCKED: USER
DOCKED: USER    (1) Final Intermolecular Energy     =  -5.77 kcal/mol
DOCKED: USER        vdW + Hbond + desolv Energy     =  -5.77 kcal/mol
DOCKED: USER        Electrostatic Energy            =  +0.00 kcal/mol
DOCKED: USER        Moving Ligand-Fixed Receptor    =  -5.77 kcal/mol
DOCKED: USER        Moving Ligand-Moving Receptor   =  +0.00 kcal/mol
DOCKED: USER    (2) Final Total Internal Energy     =  -1.16 kcal/mol
DOCKED: USER    (3) Torsional Free Energy           =  +1.49 kcal/mol
DOCKED: USER    (4) Unbound System's Energy         =  -1.16 kcal/mol
DOCKED: USER
DOCKED: USER
DOCKED: REMARK  5 active torsions:
DOCKED: REMARK  status: ('A' for Active; 'I' for Inactive)
DOCKED: REMARK    1  A    between atoms: C_2  and  C_19 
DOCKED: REMARK    2  A    between atoms: C_2  and  C_11 
DOCKED: REMARK    3  A    between atoms: C_19  and  C_20 
DOCKED: REMARK    4  A    between atoms: C_20  and  C_21 
DOCKED: REMARK    5  A    between atoms: C_21  and  N_22 
DOCKED: USER                              x       y       z     vdW  Elec       q    Type
DOCKED: USER                           _______ _______ _______ _____ _____    ______ ____
DOCKED: ROOT
DOCKED: ATOM      1  O   UNL     1     -58.588 -38.454   9.088 -0.05 -0.00    -0.346 OA 
DOCKED: ATOM      2  C   UNL     1     -58.088 -37.225   8.471 -0.13 +0.00    +0.130 C  
DOCKED: ATOM      3  C   UNL     1     -58.361 -37.420   7.008 -0.27 +0.00    +0.004 A  
DOCKED: ATOM      4  C   UNL     1     -59.054 -38.606   6.816 -0.28 +0.00    +0.006 A  
DOCKED: ATOM      5  C   UNL     1     -59.298 -39.262   8.120 -0.20 +0.00    +0.169 C  
DOCKED: ATOM      6  C   UNL     1     -58.031 -36.607   5.933 -0.31 -0.00    -0.001 A  
DOCKED: ATOM      7  C   UNL     1     -59.437 -39.022   5.552 -0.40 +0.00    +0.008 A  
DOCKED: ATOM      8  C   UNL     1     -58.405 -37.014   4.651 -0.01 +0.00    +0.010 A  
DOCKED: ATOM      9  C   UNL     1     -59.105 -38.215   4.462 -0.40 +0.00    +0.068 A  
DOCKED: ATOM     10  N   UNL     1     -59.789 -38.939   2.070 -2.42 -0.00    -0.191 NA 
DOCKED: ATOM     11  C   UNL     1     -59.482 -38.615   3.143 -0.47 +0.00    +0.101 C  
DOCKED: ENDROOT
DOCKED: BRANCH   2  12
DOCKED: ATOM     12  C   UNL     1     -58.849 -36.044   9.063 -0.08 +0.00    +0.038 C  
DOCKED: BRANCH  12  13
DOCKED: ATOM     13  C   UNL     1     -58.424 -35.776  10.506 -0.03 +0.00    +0.038 C  
DOCKED: BRANCH  13  14
DOCKED: ATOM     14  C   UNL     1     -57.419 -34.628  10.579 -0.01 +0.00    +0.251 C  
DOCKED: BRANCH  14  15
DOCKED: ATOM     15  N   UNL     1     -56.949 -34.451  11.948 -0.00 +0.00    +0.141 N  
DOCKED: ATOM     16  C   UNL     1     -57.395 -35.560  12.793 -0.00 +0.00    +0.285 C  
DOCKED: ATOM     17  C   UNL     1     -55.490 -34.341  11.982 -0.00 +0.00    +0.285 C  
DOCKED: ENDBRANCH  14  15
DOCKED: ENDBRANCH  13  14
DOCKED: ENDBRANCH  12  13
DOCKED: ENDBRANCH   2  12
DOCKED: BRANCH   2  18
DOCKED: ATOM     18  C   UNL     1     -56.632 -37.140   8.786 -0.17 +0.00    +0.006 A  
DOCKED: ATOM     19  C   UNL     1     -56.116 -37.824   9.885 -0.11 +0.00    +0.001 A  
DOCKED: ATOM     20  C   UNL     1     -54.754 -37.744  10.178 -0.04 +0.00    +0.029 A  
DOCKED: ATOM     21  C   UNL     1     -53.911 -36.980   9.372 -0.11 +0.00    +0.140 A  
DOCKED: ATOM     22  C   UNL     1     -54.428 -36.296   8.272 -0.12 +0.00    +0.029 A  
DOCKED: ATOM     23  F   UNL     1     -52.604 -36.904   9.652 -0.01 -0.00    -0.204 F  
DOCKED: ATOM     24  C   UNL     1     -55.791 -36.375   7.978 -0.17 +0.00    +0.001 A  
DOCKED: ENDBRANCH   2  18
DOCKED: TORSDOF 5
DOCKED: TER
DOCKED: ENDMDL
________________________________________________________________________________


    FINAL DOCKED STATE:
    ________________________


Run:   426 / 512
Time taken for this run:   0.002s

DOCKED: MODEL        426
DOCKED: USER    Run = 426
DOCKED: USER
DOCKED: USER    Estimated Free Energy of Binding    =  -6.07 kcal/mol  [=(1)+(2)+(3)-(4)]
DOCKED: USER
DOCKED: USER    (1) Final Intermolecular Energy     =  -7.56 kcal/mol
DOCKED: USER        vdW + Hbond + desolv Energy     =  -7.56 kcal/mol
DOCKED: USER        Electrostatic Energy            =  +0.00 kcal/mol
DOCKED: USER        Moving Ligand-Fixed Receptor    =  -7.56 kcal/mol
DOCKED: USER        Moving Ligand-Moving Receptor   =  +0.00 kcal/mol
DOCKED: USER    (2) Final Total Internal Energy     =  -1.08 kcal/mol
DOCKED: USER    (3) Torsional Free Energy           =  +1.49 kcal/mol
DOCKED: USER    (4) Unbound System's Energy         =  -1.08 kcal/mol
DOCKED: USER
DOCKED: USER
DOCKED: REMARK  5 active torsions:
DOCKED: REMARK  status: ('A' for Active; 'I' for Inactive)
DOCKED: REMARK    1  A    between atoms: C_2  and  C_19 
DOCKED: REMARK    2  A    between atoms: C_2  and  C_11 
DOCKED: REMARK    3  A    between atoms: C_19  and  C_20 
DOCKED: REMARK    4  A    between atoms: C_20  and  C_21 
DOCKED: REMARK    5  A    between atoms: C_21  and  N_22 
DOCKED: USER                              x       y       z     vdW  Elec       q    Type
DOCKED: USER                           _______ _______ _______ _____ _____    ______ ____
DOCKED: ROOT
DOCKED: ATOM      1  O   UNL     1     -57.625 -36.300   7.886 -0.05 -0.00    -0.346 OA 
DOCKED: ATOM      2  C   UNL     1     -57.269 -37.719   7.845 -0.23 +0.00    +0.130 C  
DOCKED: ATOM      3  C   UNL     1     -57.791 -38.182   6.515 -0.35 +0.00    +0.004 A  
DOCKED: ATOM      4  C   UNL     1     -58.301 -37.101   5.811 -0.35 +0.00    +0.006 A  
DOCKED: ATOM      5  C   UNL     1     -58.143 -35.863   6.608 -0.24 +0.00    +0.169 C  
DOCKED: ATOM      6  C   UNL     1     -57.802 -39.457   5.968 -0.36 -0.00    -0.001 A  
DOCKED: ATOM      7  C   UNL     1     -58.841 -37.255   4.546 -0.08 +0.00    +0.008 A  
DOCKED: ATOM      8  C   UNL     1     -58.348 -39.629   4.695 -0.44 +0.00    +0.010 A  
DOCKED: ATOM      9  C   UNL     1     -58.864 -38.534   3.988 -0.42 +0.00    +0.068 A  
DOCKED: ATOM     10  N   UNL     1     -59.865 -38.888   1.624 -2.95 -0.00    -0.191 NA 
DOCKED: ATOM     11  C   UNL     1     -59.417 -38.729   2.684 -0.41 +0.00    +0.101 C  
DOCKED: ENDROOT
DOCKED: BRANCH   2  12
DOCKED: ATOM     12  C   UNL     1     -55.754 -37.840   7.963 -0.21 +0.00    +0.038 C  
DOCKED: BRANCH  12  13
DOCKED: ATOM     13  C   UNL     1     -55.118 -36.508   8.356 -0.19 +0.00    +0.038 C  
DOCKED: BRANCH  13  14
DOCKED: ATOM     14  C   UNL     1     -54.405 -36.616   9.703 -0.08 +0.00    +0.251 C  
DOCKED: BRANCH  14  15
DOCKED: ATOM     15  N   UNL     1     -53.201 -37.428   9.575 -0.11 +0.00    +0.141 N  
DOCKED: ATOM     16  C   UNL     1     -52.202 -36.744   8.752 -0.07 +0.00    +0.285 C  
DOCKED: ATOM     17  C   UNL     1     -52.646 -37.739  10.893 -0.05 +0.00    +0.285 C  
DOCKED: ENDBRANCH  14  15
DOCKED: ENDBRANCH  13  14
DOCKED: ENDBRANCH  12  13
DOCKED: ENDBRANCH   2  12
DOCKED: BRANCH   2  18
DOCKED: ATOM     18  C   UNL     1     -57.953 -38.373   8.998 -0.20 +0.00    +0.006 A  
DOCKED: ATOM     19  C   UNL     1     -59.301 -38.717   8.905 -0.19 +0.00    +0.001 A  
DOCKED: ATOM     20  C   UNL     1     -59.939 -39.329   9.985 -0.14 +0.00    +0.029 A  
DOCKED: ATOM     21  C   UNL     1     -59.229 -39.597  11.154 -0.03 +0.00    +0.140 A  
DOCKED: ATOM     22  C   UNL     1     -57.881 -39.253  11.246 -0.20 +0.00    +0.029 A  
DOCKED: ATOM     23  F   UNL     1     -59.842 -40.186  12.190 -0.03 -0.00    -0.204 F  
DOCKED: ATOM     24  C   UNL     1     -57.241 -38.640  10.167 -0.17 +0.00    +0.001 A  
DOCKED: ENDBRANCH   2  18
DOCKED: TORSDOF 5
DOCKED: TER
DOCKED: ENDMDL
________________________________________________________________________________


    FINAL DOCKED STATE:
    ________________________


Run:   427 / 512
Time taken for this run:   0.002s

DOCKED: MODEL        427
DOCKED: USER    Run = 427
DOCKED: USER
DOCKED: USER    Estimated Free Energy of Binding    =  -4.59 kcal/mol  [=(1)+(2)+(3)-(4)]
DOCKED: USER
DOCKED: USER    (1) Final Intermolecular Energy     =  -6.08 kcal/mol
DOCKED: USER        vdW + Hbond + desolv Energy     =  -6.08 kcal/mol
DOCKED: USER        Electrostatic Energy            =  +0.00 kcal/mol
DOCKED: USER        Moving Ligand-Fixed Receptor    =  -6.08 kcal/mol
DOCKED: USER        Moving Ligand-Moving Receptor   =  +0.00 kcal/mol
DOCKED: USER    (2) Final Total Internal Energy     =  -1.21 kcal/mol
DOCKED: USER    (3) Torsional Free Energy           =  +1.49 kcal/mol
DOCKED: USER    (4) Unbound System's Energy         =  -1.21 kcal/mol
DOCKED: USER
DOCKED: USER
DOCKED: REMARK  5 active torsions:
DOCKED: REMARK  status: ('A' for Active; 'I' for Inactive)
DOCKED: REMARK    1  A    between atoms: C_2  and  C_19 
DOCKED: REMARK    2  A    between atoms: C_2  and  C_11 
DOCKED: REMARK    3  A    between atoms: C_19  and  C_20 
DOCKED: REMARK    4  A    between atoms: C_20  and  C_21 
DOCKED: REMARK    5  A    between atoms: C_21  and  N_22 
DOCKED: USER                              x       y       z     vdW  Elec       q    Type
DOCKED: USER                           _______ _______ _______ _____ _____    ______ ____
DOCKED: ROOT
DOCKED: ATOM      1  O   UNL     1     -59.328 -36.241   8.453 -0.01 -0.00    -0.346 OA 
DOCKED: ATOM      2  C   UNL     1     -58.111 -37.034   8.274 -0.13 +0.00    +0.130 C  
DOCKED: ATOM      3  C   UNL     1     -58.321 -37.719   6.954 -0.29 +0.00    +0.004 A  
DOCKED: ATOM      4  C   UNL     1     -59.501 -37.272   6.378 -0.27 +0.00    +0.006 A  
DOCKED: ATOM      5  C   UNL     1     -60.139 -36.266   7.256 -0.16 +0.00    +0.169 C  
DOCKED: ATOM      6  C   UNL     1     -57.524 -38.655   6.311 -0.38 -0.00    -0.001 A  
DOCKED: ATOM      7  C   UNL     1     -59.926 -37.744   5.148 -0.25 +0.00    +0.008 A  
DOCKED: ATOM      8  C   UNL     1     -57.942 -39.144   5.071 -0.27 +0.00    +0.010 A  
DOCKED: ATOM      9  C   UNL     1     -59.136 -38.690   4.493 -0.42 +0.00    +0.068 A  
DOCKED: ATOM     10  N   UNL     1     -59.880 -39.615   2.190 -1.81 -0.00    -0.191 NA 
DOCKED: ATOM     11  C   UNL     1     -59.547 -39.200   3.223 -0.49 +0.00    +0.101 C  
DOCKED: ENDROOT
DOCKED: BRANCH   2  12
DOCKED: ATOM     12  C   UNL     1     -56.915 -36.090   8.269 -0.17 +0.00    +0.038 C  
DOCKED: BRANCH  12  13
DOCKED: ATOM     13  C   UNL     1     -56.736 -35.425   6.906 -0.22 +0.00    +0.038 C  
DOCKED: BRANCH  13  14
DOCKED: ATOM     14  C   UNL     1     -56.497 -33.923   7.054 -0.12 +0.00    +0.251 C  
DOCKED: BRANCH  14  15
DOCKED: ATOM     15  N   UNL     1     -57.723 -33.253   7.469 -0.09 +0.00    +0.141 N  
DOCKED: ATOM     16  C   UNL     1     -57.794 -33.163   8.928 -0.02 +0.00    +0.285 C  
DOCKED: ATOM     17  C   UNL     1     -57.808 -31.918   6.873 -0.08 +0.00    +0.285 C  
DOCKED: ENDBRANCH  14  15
DOCKED: ENDBRANCH  13  14
DOCKED: ENDBRANCH  12  13
DOCKED: ENDBRANCH   2  12
DOCKED: BRANCH   2  18
DOCKED: ATOM     18  C   UNL     1     -58.040 -37.988   9.419 -0.15 +0.00    +0.006 A  
DOCKED: ATOM     19  C   UNL     1     -56.848 -38.139  10.127 -0.15 +0.00    +0.001 A  
DOCKED: ATOM     20  C   UNL     1     -56.782 -39.032  11.197 -0.16 +0.00    +0.029 A  
DOCKED: ATOM     21  C   UNL     1     -57.907 -39.770  11.559 -0.17 +0.00    +0.140 A  
DOCKED: ATOM     22  C   UNL     1     -59.099 -39.618  10.852 -0.04 +0.00    +0.029 A  
DOCKED: ATOM     23  F   UNL     1     -57.845 -40.625  12.588 -0.07 -0.00    -0.204 F  
DOCKED: ATOM     24  C   UNL     1     -59.166 -38.726   9.780 -0.18 +0.00    +0.001 A  
DOCKED: ENDBRANCH   2  18
DOCKED: TORSDOF 5
DOCKED: TER
DOCKED: ENDMDL
________________________________________________________________________________


    FINAL DOCKED STATE:
    ________________________


Run:   428 / 512
Time taken for this run:   0.002s

DOCKED: MODEL        428
DOCKED: USER    Run = 428
DOCKED: USER
DOCKED: USER    Estimated Free Energy of Binding    =  -6.81 kcal/mol  [=(1)+(2)+(3)-(4)]
DOCKED: USER
DOCKED: USER    (1) Final Intermolecular Energy     =  -8.30 kcal/mol
DOCKED: USER        vdW + Hbond + desolv Energy     =  -8.30 kcal/mol
DOCKED: USER        Electrostatic Energy            =  +0.00 kcal/mol
DOCKED: USER        Moving Ligand-Fixed Receptor    =  -8.30 kcal/mol
DOCKED: USER        Moving Ligand-Moving Receptor   =  +0.00 kcal/mol
DOCKED: USER    (2) Final Total Internal Energy     =  -0.95 kcal/mol
DOCKED: USER    (3) Torsional Free Energy           =  +1.49 kcal/mol
DOCKED: USER    (4) Unbound System's Energy         =  -0.95 kcal/mol
DOCKED: USER
DOCKED: USER
DOCKED: REMARK  5 active torsions:
DOCKED: REMARK  status: ('A' for Active; 'I' for Inactive)
DOCKED: REMARK    1  A    between atoms: C_2  and  C_19 
DOCKED: REMARK    2  A    between atoms: C_2  and  C_11 
DOCKED: REMARK    3  A    between atoms: C_19  and  C_20 
DOCKED: REMARK    4  A    between atoms: C_20  and  C_21 
DOCKED: REMARK    5  A    between atoms: C_21  and  N_22 
DOCKED: USER                              x       y       z     vdW  Elec       q    Type
DOCKED: USER                           _______ _______ _______ _____ _____    ______ ____
DOCKED: ROOT
DOCKED: ATOM      1  O   UNL     1     -56.901 -39.838   7.513 -0.52 -0.00    -0.346 OA 
DOCKED: ATOM      2  C   UNL     1     -57.988 -38.880   7.721 -0.28 +0.00    +0.130 C  
DOCKED: ATOM      3  C   UNL     1     -58.591 -38.719   6.356 -0.36 +0.00    +0.004 A  
DOCKED: ATOM      4  C   UNL     1     -57.976 -39.589   5.467 -0.41 +0.00    +0.006 A  
DOCKED: ATOM      5  C   UNL     1     -56.948 -40.385   6.175 -0.10 +0.00    +0.169 C  
DOCKED: ATOM      6  C   UNL     1     -59.610 -37.876   5.936 -0.32 -0.00    -0.001 A  
DOCKED: ATOM      7  C   UNL     1     -58.352 -39.646   4.136 -0.37 +0.00    +0.008 A  
DOCKED: ATOM      8  C   UNL     1     -59.998 -37.918   4.595 -0.19 +0.00    +0.010 A  
DOCKED: ATOM      9  C   UNL     1     -59.372 -38.799   3.701 -0.46 +0.00    +0.068 A  
DOCKED: ATOM     10  N   UNL     1     -60.120 -38.855   1.221 -3.30 -0.00    -0.191 NA 
DOCKED: ATOM     11  C   UNL     1     -59.784 -38.829   2.333 -0.29 +0.00    +0.101 C  
DOCKED: ENDROOT
DOCKED: BRANCH   2  12
DOCKED: ATOM     12  C   UNL     1     -58.962 -39.469   8.734 -0.29 +0.00    +0.038 C  
DOCKED: BRANCH  12  13
DOCKED: ATOM     13  C   UNL     1     -60.308 -39.795   8.089 -0.22 +0.00    +0.038 C  
DOCKED: BRANCH  13  14
DOCKED: ATOM     14  C   UNL     1     -61.387 -38.815   8.543 -0.09 +0.00    +0.251 C  
DOCKED: BRANCH  14  15
DOCKED: ATOM     15  N   UNL     1     -62.330 -39.476   9.437 -0.12 +0.00    +0.141 N  
DOCKED: ATOM     16  C   UNL     1     -62.750 -40.764   8.883 -0.13 +0.00    +0.285 C  
DOCKED: ATOM     17  C   UNL     1     -61.738 -39.663  10.763 -0.06 +0.00    +0.285 C  
DOCKED: ENDBRANCH  14  15
DOCKED: ENDBRANCH  13  14
DOCKED: ENDBRANCH  12  13
DOCKED: ENDBRANCH   2  12
DOCKED: BRANCH   2  18
DOCKED: ATOM     18  C   UNL     1     -57.369 -37.623   8.236 -0.21 +0.00    +0.006 A  
DOCKED: ATOM     19  C   UNL     1     -56.013 -37.377   8.025 -0.23 +0.00    +0.001 A  
DOCKED: ATOM     20  C   UNL     1     -55.436 -36.202   8.507 -0.15 +0.00    +0.029 A  
DOCKED: ATOM     21  C   UNL     1     -56.215 -35.275   9.199 -0.05 +0.00    +0.140 A  
DOCKED: ATOM     22  C   UNL     1     -57.572 -35.522   9.409 -0.05 +0.00    +0.029 A  
DOCKED: ATOM     23  F   UNL     1     -55.662 -34.146   9.660 +0.00 -0.00    -0.204 F  
DOCKED: ATOM     24  C   UNL     1     -58.150 -36.698   8.928 -0.10 +0.00    +0.001 A  
DOCKED: ENDBRANCH   2  18
DOCKED: TORSDOF 5
DOCKED: TER
DOCKED: ENDMDL
________________________________________________________________________________


    FINAL DOCKED STATE:
    ________________________


Run:   429 / 512
Time taken for this run:   0.002s

DOCKED: MODEL        429
DOCKED: USER    Run = 429
DOCKED: USER
DOCKED: USER    Estimated Free Energy of Binding    =  -5.35 kcal/mol  [=(1)+(2)+(3)-(4)]
DOCKED: USER
DOCKED: USER    (1) Final Intermolecular Energy     =  -6.84 kcal/mol
DOCKED: USER        vdW + Hbond + desolv Energy     =  -6.84 kcal/mol
DOCKED: USER        Electrostatic Energy            =  +0.00 kcal/mol
DOCKED: USER        Moving Ligand-Fixed Receptor    =  -6.84 kcal/mol
DOCKED: USER        Moving Ligand-Moving Receptor   =  +0.00 kcal/mol
DOCKED: USER    (2) Final Total Internal Energy     =  -1.12 kcal/mol
DOCKED: USER    (3) Torsional Free Energy           =  +1.49 kcal/mol
DOCKED: USER    (4) Unbound System's Energy         =  -1.12 kcal/mol
DOCKED: USER
DOCKED: USER
DOCKED: REMARK  5 active torsions:
DOCKED: REMARK  status: ('A' for Active; 'I' for Inactive)
DOCKED: REMARK    1  A    between atoms: C_2  and  C_19 
DOCKED: REMARK    2  A    between atoms: C_2  and  C_11 
DOCKED: REMARK    3  A    between atoms: C_19  and  C_20 
DOCKED: REMARK    4  A    between atoms: C_20  and  C_21 
DOCKED: REMARK    5  A    between atoms: C_21  and  N_22 
DOCKED: USER                              x       y       z     vdW  Elec       q    Type
DOCKED: USER                           _______ _______ _______ _____ _____    ______ ____
DOCKED: ROOT
DOCKED: ATOM      1  O   UNL     1     -60.879 -36.996   8.321 -0.00 -0.00    -0.346 OA 
DOCKED: ATOM      2  C   UNL     1     -59.473 -36.766   7.987 -0.11 +0.00    +0.130 C  
DOCKED: ATOM      3  C   UNL     1     -59.352 -37.269   6.577 -0.26 +0.00    +0.004 A  
DOCKED: ATOM      4  C   UNL     1     -60.601 -37.649   6.108 -0.27 +0.00    +0.006 A  
DOCKED: ATOM      5  C   UNL     1     -61.623 -37.417   7.154 -0.16 +0.00    +0.169 C  
DOCKED: ATOM      6  C   UNL     1     -58.228 -37.370   5.770 -0.36 -0.00    -0.001 A  
DOCKED: ATOM      7  C   UNL     1     -60.770 -38.146   4.827 -0.29 +0.00    +0.008 A  
DOCKED: ATOM      8  C   UNL     1     -58.381 -37.873   4.477 -0.13 +0.00    +0.010 A  
DOCKED: ATOM      9  C   UNL     1     -59.646 -38.258   4.008 -0.36 +0.00    +0.068 A  
DOCKED: ATOM     10  N   UNL     1     -59.895 -39.182   1.600 -2.74 -0.00    -0.191 NA 
DOCKED: ATOM     11  C   UNL     1     -59.783 -38.768   2.680 -0.28 +0.00    +0.101 C  
DOCKED: ENDROOT
DOCKED: BRANCH   2  12
DOCKED: ATOM     12  C   UNL     1     -59.185 -35.275   8.112 -0.13 +0.00    +0.038 C  
DOCKED: BRANCH  12  13
DOCKED: ATOM     13  C   UNL     1     -59.460 -34.542   6.800 -0.24 +0.00    +0.038 C  
DOCKED: BRANCH  13  14
DOCKED: ATOM     14  C   UNL     1     -60.915 -34.084   6.722 -0.15 +0.00    +0.251 C  
DOCKED: BRANCH  14  15
DOCKED: ATOM     15  N   UNL     1     -60.982 -32.641   6.526 -0.20 +0.00    +0.141 N  
DOCKED: ATOM     16  C   UNL     1     -62.020 -32.053   7.375 -0.08 +0.00    +0.285 C  
DOCKED: ATOM     17  C   UNL     1     -59.686 -32.021   6.808 -0.13 +0.00    +0.285 C  
DOCKED: ENDBRANCH  14  15
DOCKED: ENDBRANCH  13  14
DOCKED: ENDBRANCH  12  13
DOCKED: ENDBRANCH   2  12
DOCKED: BRANCH   2  18
DOCKED: ATOM     18  C   UNL     1     -58.659 -37.555   8.957 -0.12 +0.00    +0.006 A  
DOCKED: ATOM     19  C   UNL     1     -58.820 -38.938   9.039 -0.22 +0.00    +0.001 A  
DOCKED: ATOM     20  C   UNL     1     -58.058 -39.674   9.947 -0.21 +0.00    +0.029 A  
DOCKED: ATOM     21  C   UNL     1     -57.137 -39.028  10.771 -0.13 +0.00    +0.140 A  
DOCKED: ATOM     22  C   UNL     1     -56.977 -37.645  10.688 -0.10 +0.00    +0.029 A  
DOCKED: ATOM     23  F   UNL     1     -56.405 -39.735  11.641 -0.07 -0.00    -0.204 F  
DOCKED: ATOM     24  C   UNL     1     -57.739 -36.907   9.780 -0.08 +0.00    +0.001 A  
DOCKED: ENDBRANCH   2  18
DOCKED: TORSDOF 5
DOCKED: TER
DOCKED: ENDMDL
________________________________________________________________________________


    FINAL DOCKED STATE:
    ________________________


Run:   430 / 512
Time taken for this run:   0.002s

DOCKED: MODEL        430
DOCKED: USER    Run = 430
DOCKED: USER
DOCKED: USER    Estimated Free Energy of Binding    =  -3.64 kcal/mol  [=(1)+(2)+(3)-(4)]
DOCKED: USER
DOCKED: USER    (1) Final Intermolecular Energy     =  -5.14 kcal/mol
DOCKED: USER        vdW + Hbond + desolv Energy     =  -5.14 kcal/mol
DOCKED: USER        Electrostatic Energy            =  +0.00 kcal/mol
DOCKED: USER        Moving Ligand-Fixed Receptor    =  -5.14 kcal/mol
DOCKED: USER        Moving Ligand-Moving Receptor   =  +0.00 kcal/mol
DOCKED: USER    (2) Final Total Internal Energy     =  -1.27 kcal/mol
DOCKED: USER    (3) Torsional Free Energy           =  +1.49 kcal/mol
DOCKED: USER    (4) Unbound System's Energy         =  -1.27 kcal/mol
DOCKED: USER
DOCKED: USER
DOCKED: REMARK  5 active torsions:
DOCKED: REMARK  status: ('A' for Active; 'I' for Inactive)
DOCKED: REMARK    1  A    between atoms: C_2  and  C_19 
DOCKED: REMARK    2  A    between atoms: C_2  and  C_11 
DOCKED: REMARK    3  A    between atoms: C_19  and  C_20 
DOCKED: REMARK    4  A    between atoms: C_20  and  C_21 
DOCKED: REMARK    5  A    between atoms: C_21  and  N_22 
DOCKED: USER                              x       y       z     vdW  Elec       q    Type
DOCKED: USER                           _______ _______ _______ _____ _____    ______ ____
DOCKED: ROOT
DOCKED: ATOM      1  O   UNL     1     -57.061 -35.051   8.913 -0.01 -0.00    -0.346 OA 
DOCKED: ATOM      2  C   UNL     1     -56.026 -36.077   8.778 -0.12 +0.00    +0.130 C  
DOCKED: ATOM      3  C   UNL     1     -56.687 -37.148   7.960 -0.23 +0.00    +0.004 A  
DOCKED: ATOM      4  C   UNL     1     -57.949 -36.725   7.568 -0.21 +0.00    +0.006 A  
DOCKED: ATOM      5  C   UNL     1     -58.203 -35.360   8.080 -0.10 +0.00    +0.169 C  
DOCKED: ATOM      6  C   UNL     1     -56.205 -38.393   7.583 -0.20 -0.00    -0.001 A  
DOCKED: ATOM      7  C   UNL     1     -58.770 -37.528   6.795 -0.27 +0.00    +0.008 A  
DOCKED: ATOM      8  C   UNL     1     -57.022 -39.216   6.807 -0.39 +0.00    +0.010 A  
DOCKED: ATOM      9  C   UNL     1     -58.298 -38.785   6.414 -0.33 +0.00    +0.068 A  
DOCKED: ATOM     10  N   UNL     1     -59.789 -40.336   4.969 -2.32 -0.00    -0.191 NA 
DOCKED: ATOM     11  C   UNL     1     -59.121 -39.640   5.618 -0.23 +0.00    +0.101 C  
DOCKED: ENDROOT
DOCKED: BRANCH   2  12
DOCKED: ATOM     12  C   UNL     1     -54.820 -35.457   8.081 -0.14 +0.00    +0.038 C  
DOCKED: BRANCH  12  13
DOCKED: ATOM     13  C   UNL     1     -55.246 -34.385   7.080 -0.15 +0.00    +0.038 C  
DOCKED: BRANCH  13  14
DOCKED: ATOM     14  C   UNL     1     -54.552 -33.055   7.370 -0.05 +0.00    +0.251 C  
DOCKED: BRANCH  14  15
DOCKED: ATOM     15  N   UNL     1     -55.162 -32.406   8.524 -0.01 +0.00    +0.141 N  
DOCKED: ATOM     16  C   UNL     1     -54.136 -31.948   9.461 -0.00 +0.00    +0.285 C  
DOCKED: ATOM     17  C   UNL     1     -56.000 -31.283   8.100 -0.01 +0.00    +0.285 C  
DOCKED: ENDBRANCH  14  15
DOCKED: ENDBRANCH  13  14
DOCKED: ENDBRANCH  12  13
DOCKED: ENDBRANCH   2  12
DOCKED: BRANCH   2  18
DOCKED: ATOM     18  C   UNL     1     -55.677 -36.529  10.156 -0.08 +0.00    +0.006 A  
DOCKED: ATOM     19  C   UNL     1     -54.341 -36.618  10.543 -0.08 +0.00    +0.001 A  
DOCKED: ATOM     20  C   UNL     1     -54.016 -37.041  11.833 -0.05 +0.00    +0.029 A  
DOCKED: ATOM     21  C   UNL     1     -55.028 -37.375  12.733 -0.03 +0.00    +0.140 A  
DOCKED: ATOM     22  C   UNL     1     -56.364 -37.285  12.345 -0.05 +0.00    +0.029 A  
DOCKED: ATOM     23  F   UNL     1     -54.716 -37.779  13.971 -0.00 -0.00    -0.204 F  
DOCKED: ATOM     24  C   UNL     1     -56.690 -36.862  11.055 -0.06 +0.00    +0.001 A  
DOCKED: ENDBRANCH   2  18
DOCKED: TORSDOF 5
DOCKED: TER
DOCKED: ENDMDL
________________________________________________________________________________


    FINAL DOCKED STATE:
    ________________________


Run:   431 / 512
Time taken for this run:   0.002s

DOCKED: MODEL        431
DOCKED: USER    Run = 431
DOCKED: USER
DOCKED: USER    Estimated Free Energy of Binding    =  -4.25 kcal/mol  [=(1)+(2)+(3)-(4)]
DOCKED: USER
DOCKED: USER    (1) Final Intermolecular Energy     =  -5.74 kcal/mol
DOCKED: USER        vdW + Hbond + desolv Energy     =  -5.74 kcal/mol
DOCKED: USER        Electrostatic Energy            =  +0.00 kcal/mol
DOCKED: USER        Moving Ligand-Fixed Receptor    =  -5.74 kcal/mol
DOCKED: USER        Moving Ligand-Moving Receptor   =  +0.00 kcal/mol
DOCKED: USER    (2) Final Total Internal Energy     =  -1.29 kcal/mol
DOCKED: USER    (3) Torsional Free Energy           =  +1.49 kcal/mol
DOCKED: USER    (4) Unbound System's Energy         =  -1.29 kcal/mol
DOCKED: USER
DOCKED: USER
DOCKED: REMARK  5 active torsions:
DOCKED: REMARK  status: ('A' for Active; 'I' for Inactive)
DOCKED: REMARK    1  A    between atoms: C_2  and  C_19 
DOCKED: REMARK    2  A    between atoms: C_2  and  C_11 
DOCKED: REMARK    3  A    between atoms: C_19  and  C_20 
DOCKED: REMARK    4  A    between atoms: C_20  and  C_21 
DOCKED: REMARK    5  A    between atoms: C_21  and  N_22 
DOCKED: USER                              x       y       z     vdW  Elec       q    Type
DOCKED: USER                           _______ _______ _______ _____ _____    ______ ____
DOCKED: ROOT
DOCKED: ATOM      1  O   UNL     1     -56.489 -34.686   8.026 -0.04 -0.00    -0.346 OA 
DOCKED: ATOM      2  C   UNL     1     -57.921 -34.401   7.933 -0.11 +0.00    +0.130 C  
DOCKED: ATOM      3  C   UNL     1     -58.491 -35.632   7.291 -0.21 +0.00    +0.004 A  
DOCKED: ATOM      4  C   UNL     1     -57.492 -36.581   7.131 -0.25 +0.00    +0.006 A  
DOCKED: ATOM      5  C   UNL     1     -56.213 -36.058   7.661 -0.14 +0.00    +0.169 C  
DOCKED: ATOM      6  C   UNL     1     -59.793 -35.896   6.889 -0.23 -0.00    -0.001 A  
DOCKED: ATOM      7  C   UNL     1     -57.755 -37.817   6.565 -0.33 +0.00    +0.008 A  
DOCKED: ATOM      8  C   UNL     1     -60.073 -37.136   6.313 -0.24 +0.00    +0.010 A  
DOCKED: ATOM      9  C   UNL     1     -59.059 -38.091   6.152 -0.28 +0.00    +0.068 A  
DOCKED: ATOM     10  N   UNL     1     -59.615 -40.385   5.082 -2.43 -0.00    -0.191 NA 
DOCKED: ATOM     11  C   UNL     1     -59.366 -39.356   5.561 -0.37 +0.00    +0.101 C  
DOCKED: ENDROOT
DOCKED: BRANCH   2  12
DOCKED: ATOM     12  C   UNL     1     -58.458 -34.164   9.340 -0.04 +0.00    +0.038 C  
DOCKED: BRANCH  12  13
DOCKED: ATOM     13  C   UNL     1     -58.768 -35.481  10.048 -0.04 +0.00    +0.038 C  
DOCKED: BRANCH  13  14
DOCKED: ATOM     14  C   UNL     1     -57.541 -36.009  10.789 -0.01 +0.00    +0.251 C  
DOCKED: BRANCH  14  15
DOCKED: ATOM     15  N   UNL     1     -57.609 -37.460  10.912 -0.05 +0.00    +0.141 N  
DOCKED: ATOM     16  C   UNL     1     -56.413 -38.083  10.343 -0.06 +0.00    +0.285 C  
DOCKED: ATOM     17  C   UNL     1     -57.767 -37.851  12.314 -0.03 +0.00    +0.285 C  
DOCKED: ENDBRANCH  14  15
DOCKED: ENDBRANCH  13  14
DOCKED: ENDBRANCH  12  13
DOCKED: ENDBRANCH   2  12
DOCKED: BRANCH   2  18
DOCKED: ATOM     18  C   UNL     1     -58.070 -33.181   7.087 -0.15 +0.00    +0.006 A  
DOCKED: ATOM     19  C   UNL     1     -59.326 -32.599   6.919 -0.18 +0.00    +0.001 A  
DOCKED: ATOM     20  C   UNL     1     -59.463 -31.458   6.127 -0.17 +0.00    +0.029 A  
DOCKED: ATOM     21  C   UNL     1     -58.347 -30.902   5.505 -0.12 +0.00    +0.140 A  
DOCKED: ATOM     22  C   UNL     1     -57.091 -31.485   5.674 -0.11 +0.00    +0.029 A  
DOCKED: ATOM     23  F   UNL     1     -58.479 -29.806   4.747 -0.02 -0.00    -0.204 F  
DOCKED: ATOM     24  C   UNL     1     -56.952 -32.626   6.466 -0.13 +0.00    +0.001 A  
DOCKED: ENDBRANCH   2  18
DOCKED: TORSDOF 5
DOCKED: TER
DOCKED: ENDMDL
________________________________________________________________________________


    FINAL DOCKED STATE:
    ________________________


Run:   432 / 512
Time taken for this run:   0.002s

DOCKED: MODEL        432
DOCKED: USER    Run = 432
DOCKED: USER
DOCKED: USER    Estimated Free Energy of Binding    =  -4.27 kcal/mol  [=(1)+(2)+(3)-(4)]
DOCKED: USER
DOCKED: USER    (1) Final Intermolecular Energy     =  -5.76 kcal/mol
DOCKED: USER        vdW + Hbond + desolv Energy     =  -5.76 kcal/mol
DOCKED: USER        Electrostatic Energy            =  +0.00 kcal/mol
DOCKED: USER        Moving Ligand-Fixed Receptor    =  -5.76 kcal/mol
DOCKED: USER        Moving Ligand-Moving Receptor   =  +0.00 kcal/mol
DOCKED: USER    (2) Final Total Internal Energy     =  -1.04 kcal/mol
DOCKED: USER    (3) Torsional Free Energy           =  +1.49 kcal/mol
DOCKED: USER    (4) Unbound System's Energy         =  -1.04 kcal/mol
DOCKED: USER
DOCKED: USER
DOCKED: REMARK  5 active torsions:
DOCKED: REMARK  status: ('A' for Active; 'I' for Inactive)
DOCKED: REMARK    1  A    between atoms: C_2  and  C_19 
DOCKED: REMARK    2  A    between atoms: C_2  and  C_11 
DOCKED: REMARK    3  A    between atoms: C_19  and  C_20 
DOCKED: REMARK    4  A    between atoms: C_20  and  C_21 
DOCKED: REMARK    5  A    between atoms: C_21  and  N_22 
DOCKED: USER                              x       y       z     vdW  Elec       q    Type
DOCKED: USER                           _______ _______ _______ _____ _____    ______ ____
DOCKED: ROOT
DOCKED: ATOM      1  O   UNL     1     -60.090 -33.572   7.391 -0.08 -0.00    -0.346 OA 
DOCKED: ATOM      2  C   UNL     1     -58.663 -33.848   7.213 -0.17 +0.00    +0.130 C  
DOCKED: ATOM      3  C   UNL     1     -58.625 -35.293   6.807 -0.24 +0.00    +0.004 A  
DOCKED: ATOM      4  C   UNL     1     -59.919 -35.771   6.657 -0.20 +0.00    +0.006 A  
DOCKED: ATOM      5  C   UNL     1     -60.890 -34.689   6.937 -0.19 +0.00    +0.169 C  
DOCKED: ATOM      6  C   UNL     1     -57.532 -36.116   6.577 -0.28 -0.00    -0.001 A  
DOCKED: ATOM      7  C   UNL     1     -60.165 -37.080   6.280 -0.23 +0.00    +0.008 A  
DOCKED: ATOM      8  C   UNL     1     -57.764 -37.440   6.199 -0.32 +0.00    +0.010 A  
DOCKED: ATOM      9  C   UNL     1     -59.074 -37.919   6.051 -0.29 +0.00    +0.068 A  
DOCKED: ATOM     10  N   UNL     1     -59.468 -40.380   5.344 -2.61 -0.00    -0.191 NA 
DOCKED: ATOM     11  C   UNL     1     -59.291 -39.276   5.662 -0.38 +0.00    +0.101 C  
DOCKED: ENDROOT
DOCKED: BRANCH   2  12
DOCKED: ATOM     12  C   UNL     1     -58.121 -32.915   6.137 -0.06 +0.00    +0.038 C  
DOCKED: BRANCH  12  13
DOCKED: ATOM     13  C   UNL     1     -58.642 -31.491   6.321 -0.16 +0.00    +0.038 C  
DOCKED: BRANCH  13  14
DOCKED: ATOM     14  C   UNL     1     -58.883 -30.815   4.973 -0.10 +0.00    +0.251 C  
DOCKED: BRANCH  14  15
DOCKED: ATOM     15  N   UNL     1     -57.625 -30.662   4.251 -0.13 +0.00    +0.141 N  
DOCKED: ATOM     16  C   UNL     1     -57.848 -30.011   2.959 -0.15 +0.00    +0.285 C  
DOCKED: ATOM     17  C   UNL     1     -56.663 -29.897   5.046 -0.05 +0.00    +0.285 C  
DOCKED: ENDBRANCH  14  15
DOCKED: ENDBRANCH  13  14
DOCKED: ENDBRANCH  12  13
DOCKED: ENDBRANCH   2  12
DOCKED: BRANCH   2  18
DOCKED: ATOM     18  C   UNL     1     -58.003 -33.596   8.527 -0.06 +0.00    +0.006 A  
DOCKED: ATOM     19  C   UNL     1     -58.716 -33.779   9.712 -0.02 +0.00    +0.001 A  
DOCKED: ATOM     20  C   UNL     1     -58.097 -33.542  10.940 -0.00 +0.00    +0.029 A  
DOCKED: ATOM     21  C   UNL     1     -56.768 -33.124  10.982 -0.00 +0.00    +0.140 A  
DOCKED: ATOM     22  C   UNL     1     -56.055 -32.942   9.797 -0.01 +0.00    +0.029 A  
DOCKED: ATOM     23  F   UNL     1     -56.174 -32.899  12.161 -0.00 -0.00    -0.204 F  
DOCKED: ATOM     24  C   UNL     1     -56.674 -33.178   8.568 -0.04 +0.00    +0.001 A  
DOCKED: ENDBRANCH   2  18
DOCKED: TORSDOF 5
DOCKED: TER
DOCKED: ENDMDL
________________________________________________________________________________


    FINAL DOCKED STATE:
    ________________________


Run:   433 / 512
Time taken for this run:   0.002s

DOCKED: MODEL        433
DOCKED: USER    Run = 433
DOCKED: USER
DOCKED: USER    Estimated Free Energy of Binding    =  -5.15 kcal/mol  [=(1)+(2)+(3)-(4)]
DOCKED: USER
DOCKED: USER    (1) Final Intermolecular Energy     =  -6.64 kcal/mol
DOCKED: USER        vdW + Hbond + desolv Energy     =  -6.64 kcal/mol
DOCKED: USER        Electrostatic Energy            =  +0.00 kcal/mol
DOCKED: USER        Moving Ligand-Fixed Receptor    =  -6.64 kcal/mol
DOCKED: USER        Moving Ligand-Moving Receptor   =  +0.00 kcal/mol
DOCKED: USER    (2) Final Total Internal Energy     =  -1.33 kcal/mol
DOCKED: USER    (3) Torsional Free Energy           =  +1.49 kcal/mol
DOCKED: USER    (4) Unbound System's Energy         =  -1.33 kcal/mol
DOCKED: USER
DOCKED: USER
DOCKED: REMARK  5 active torsions:
DOCKED: REMARK  status: ('A' for Active; 'I' for Inactive)
DOCKED: REMARK    1  A    between atoms: C_2  and  C_19 
DOCKED: REMARK    2  A    between atoms: C_2  and  C_11 
DOCKED: REMARK    3  A    between atoms: C_19  and  C_20 
DOCKED: REMARK    4  A    between atoms: C_20  and  C_21 
DOCKED: REMARK    5  A    between atoms: C_21  and  N_22 
DOCKED: USER                              x       y       z     vdW  Elec       q    Type
DOCKED: USER                           _______ _______ _______ _____ _____    ______ ____
DOCKED: ROOT
DOCKED: ATOM      1  O   UNL     1     -57.001 -39.114   8.611 -0.10 -0.00    -0.346 OA 
DOCKED: ATOM      2  C   UNL     1     -57.275 -37.711   8.296 -0.20 +0.00    +0.130 C  
DOCKED: ATOM      3  C   UNL     1     -57.829 -37.757   6.901 -0.31 +0.00    +0.004 A  
DOCKED: ATOM      4  C   UNL     1     -57.963 -39.077   6.495 -0.38 +0.00    +0.006 A  
DOCKED: ATOM      5  C   UNL     1     -57.526 -39.983   7.581 +0.03 +0.00    +0.169 C  
DOCKED: ATOM      6  C   UNL     1     -58.195 -36.714   6.063 -0.33 -0.00    -0.001 A  
DOCKED: ATOM      7  C   UNL     1     -58.460 -39.399   5.244 -0.46 +0.00    +0.008 A  
DOCKED: ATOM      8  C   UNL     1     -58.694 -37.022   4.797 -0.12 +0.00    +0.010 A  
DOCKED: ATOM      9  C   UNL     1     -58.827 -38.358   4.390 -0.40 +0.00    +0.068 A  
DOCKED: ATOM     10  N   UNL     1     -59.762 -38.895   2.034 -2.45 -0.00    -0.191 NA 
DOCKED: ATOM     11  C   UNL     1     -59.342 -38.654   3.090 -0.50 +0.00    +0.101 C  
DOCKED: ENDROOT
DOCKED: BRANCH   2  12
DOCKED: ATOM     12  C   UNL     1     -58.275 -37.175   9.314 -0.11 +0.00    +0.038 C  
DOCKED: BRANCH  12  13
DOCKED: ATOM     13  C   UNL     1     -59.383 -38.188   9.593 -0.15 +0.00    +0.038 C  
DOCKED: BRANCH  13  14
DOCKED: ATOM     14  C   UNL     1     -59.053 -39.041  10.816 -0.10 +0.00    +0.251 C  
DOCKED: BRANCH  14  15
DOCKED: ATOM     15  N   UNL     1     -57.722 -38.719  11.315 -0.12 +0.00    +0.141 N  
DOCKED: ATOM     16  C   UNL     1     -57.807 -37.909  12.530 -0.03 +0.00    +0.285 C  
DOCKED: ATOM     17  C   UNL     1     -56.958 -39.941  11.572 -0.13 +0.00    +0.285 C  
DOCKED: ENDBRANCH  14  15
DOCKED: ENDBRANCH  13  14
DOCKED: ENDBRANCH  12  13
DOCKED: ENDBRANCH   2  12
DOCKED: BRANCH   2  18
DOCKED: ATOM     18  C   UNL     1     -55.976 -36.982   8.383 -0.20 +0.00    +0.006 A  
DOCKED: ATOM     19  C   UNL     1     -54.898 -37.557   9.055 -0.09 +0.00    +0.001 A  
DOCKED: ATOM     20  C   UNL     1     -53.684 -36.874   9.135 -0.14 +0.00    +0.029 A  
DOCKED: ATOM     21  C   UNL     1     -53.549 -35.619   8.543 -0.08 +0.00    +0.140 A  
DOCKED: ATOM     22  C   UNL     1     -54.627 -35.045   7.871 -0.11 +0.00    +0.029 A  
DOCKED: ATOM     23  F   UNL     1     -52.383 -34.965   8.619 -0.01 -0.00    -0.204 F  
DOCKED: ATOM     24  C   UNL     1     -55.843 -35.727   7.790 -0.15 +0.00    +0.001 A  
DOCKED: ENDBRANCH   2  18
DOCKED: TORSDOF 5
DOCKED: TER
DOCKED: ENDMDL
________________________________________________________________________________


    FINAL DOCKED STATE:
    ________________________


Run:   434 / 512
Time taken for this run:   0.002s

DOCKED: MODEL        434
DOCKED: USER    Run = 434
DOCKED: USER
DOCKED: USER    Estimated Free Energy of Binding    =  -4.44 kcal/mol  [=(1)+(2)+(3)-(4)]
DOCKED: USER
DOCKED: USER    (1) Final Intermolecular Energy     =  -5.93 kcal/mol
DOCKED: USER        vdW + Hbond + desolv Energy     =  -5.93 kcal/mol
DOCKED: USER        Electrostatic Energy            =  +0.00 kcal/mol
DOCKED: USER        Moving Ligand-Fixed Receptor    =  -5.93 kcal/mol
DOCKED: USER        Moving Ligand-Moving Receptor   =  +0.00 kcal/mol
DOCKED: USER    (2) Final Total Internal Energy     =  -1.44 kcal/mol
DOCKED: USER    (3) Torsional Free Energy           =  +1.49 kcal/mol
DOCKED: USER    (4) Unbound System's Energy         =  -1.44 kcal/mol
DOCKED: USER
DOCKED: USER
DOCKED: REMARK  5 active torsions:
DOCKED: REMARK  status: ('A' for Active; 'I' for Inactive)
DOCKED: REMARK    1  A    between atoms: C_2  and  C_19 
DOCKED: REMARK    2  A    between atoms: C_2  and  C_11 
DOCKED: REMARK    3  A    between atoms: C_19  and  C_20 
DOCKED: REMARK    4  A    between atoms: C_20  and  C_21 
DOCKED: REMARK    5  A    between atoms: C_21  and  N_22 
DOCKED: USER                              x       y       z     vdW  Elec       q    Type
DOCKED: USER                           _______ _______ _______ _____ _____    ______ ____
DOCKED: ROOT
DOCKED: ATOM      1  O   UNL     1     -57.273 -38.624   8.643 -0.09 -0.00    -0.346 OA 
DOCKED: ATOM      2  C   UNL     1     -58.298 -37.596   8.457 -0.14 +0.00    +0.130 C  
DOCKED: ATOM      3  C   UNL     1     -58.744 -37.786   7.036 -0.25 +0.00    +0.004 A  
DOCKED: ATOM      4  C   UNL     1     -58.111 -38.894   6.492 -0.38 +0.00    +0.006 A  
DOCKED: ATOM      5  C   UNL     1     -57.225 -39.513   7.503 -0.28 +0.00    +0.169 C  
DOCKED: ATOM      6  C   UNL     1     -59.646 -37.043   6.288 -0.27 -0.00    -0.001 A  
DOCKED: ATOM      7  C   UNL     1     -58.352 -39.295   5.189 -0.47 +0.00    +0.008 A  
DOCKED: ATOM      8  C   UNL     1     -59.897 -37.432   4.971 +0.22 +0.00    +0.010 A  
DOCKED: ATOM      9  C   UNL     1     -59.253 -38.552   4.425 -0.41 +0.00    +0.068 A  
DOCKED: ATOM     10  N   UNL     1     -59.745 -39.249   1.978 -2.30 -0.00    -0.191 NA 
DOCKED: ATOM     11  C   UNL     1     -59.524 -38.936   3.075 -0.46 +0.00    +0.101 C  
DOCKED: ENDROOT
DOCKED: BRANCH   2  12
DOCKED: ATOM     12  C   UNL     1     -59.414 -37.838   9.466 -0.13 +0.00    +0.038 C  
DOCKED: BRANCH  12  13
DOCKED: ATOM     13  C   UNL     1     -59.268 -39.201  10.141 -0.20 +0.00    +0.038 C  
DOCKED: BRANCH  13  14
DOCKED: ATOM     14  C   UNL     1     -59.029 -39.047  11.642 -0.09 +0.00    +0.251 C  
DOCKED: BRANCH  14  15
DOCKED: ATOM     15  N   UNL     1     -57.654 -39.401  11.976 -0.16 +0.00    +0.141 N  
DOCKED: ATOM     16  C   UNL     1     -57.160 -40.450  11.082 +0.00 +0.00    +0.285 C  
DOCKED: ATOM     17  C   UNL     1     -56.787 -38.224  11.905 -0.07 +0.00    +0.285 C  
DOCKED: ENDBRANCH  14  15
DOCKED: ENDBRANCH  13  14
DOCKED: ENDBRANCH  12  13
DOCKED: ENDBRANCH   2  12
DOCKED: BRANCH   2  18
DOCKED: ATOM     18  C   UNL     1     -57.640 -36.277   8.689 -0.11 +0.00    +0.006 A  
DOCKED: ATOM     19  C   UNL     1     -56.305 -36.092   8.332 -0.16 +0.00    +0.001 A  
DOCKED: ATOM     20  C   UNL     1     -55.690 -34.858   8.549 -0.09 +0.00    +0.029 A  
DOCKED: ATOM     21  C   UNL     1     -56.411 -33.812   9.122 -0.02 +0.00    +0.140 A  
DOCKED: ATOM     22  C   UNL     1     -57.747 -33.997   9.479 -0.03 +0.00    +0.029 A  
DOCKED: ATOM     23  F   UNL     1     -55.822 -32.627   9.329 +0.00 -0.00    -0.204 F  
DOCKED: ATOM     24  C   UNL     1     -58.362 -35.231   9.262 -0.05 +0.00    +0.001 A  
DOCKED: ENDBRANCH   2  18
DOCKED: TORSDOF 5
DOCKED: TER
DOCKED: ENDMDL
________________________________________________________________________________


    FINAL DOCKED STATE:
    ________________________


Run:   435 / 512
Time taken for this run:   0.002s

DOCKED: MODEL        435
DOCKED: USER    Run = 435
DOCKED: USER
DOCKED: USER    Estimated Free Energy of Binding    =  -4.51 kcal/mol  [=(1)+(2)+(3)-(4)]
DOCKED: USER
DOCKED: USER    (1) Final Intermolecular Energy     =  -6.00 kcal/mol
DOCKED: USER        vdW + Hbond + desolv Energy     =  -6.00 kcal/mol
DOCKED: USER        Electrostatic Energy            =  +0.00 kcal/mol
DOCKED: USER        Moving Ligand-Fixed Receptor    =  -6.00 kcal/mol
DOCKED: USER        Moving Ligand-Moving Receptor   =  +0.00 kcal/mol
DOCKED: USER    (2) Final Total Internal Energy     =  -1.08 kcal/mol
DOCKED: USER    (3) Torsional Free Energy           =  +1.49 kcal/mol
DOCKED: USER    (4) Unbound System's Energy         =  -1.08 kcal/mol
DOCKED: USER
DOCKED: USER
DOCKED: REMARK  5 active torsions:
DOCKED: REMARK  status: ('A' for Active; 'I' for Inactive)
DOCKED: REMARK    1  A    between atoms: C_2  and  C_19 
DOCKED: REMARK    2  A    between atoms: C_2  and  C_11 
DOCKED: REMARK    3  A    between atoms: C_19  and  C_20 
DOCKED: REMARK    4  A    between atoms: C_20  and  C_21 
DOCKED: REMARK    5  A    between atoms: C_21  and  N_22 
DOCKED: USER                              x       y       z     vdW  Elec       q    Type
DOCKED: USER                           _______ _______ _______ _____ _____    ______ ____
DOCKED: ROOT
DOCKED: ATOM      1  O   UNL     1     -55.781 -30.555   1.167 -0.08 -0.00    -0.346 OA 
DOCKED: ATOM      2  C   UNL     1     -54.473 -30.384   0.532 -0.16 +0.00    +0.130 C  
DOCKED: ATOM      3  C   UNL     1     -54.781 -29.628  -0.728 -0.25 +0.00    +0.004 A  
DOCKED: ATOM      4  C   UNL     1     -56.129 -29.299  -0.758 -0.24 +0.00    +0.006 A  
DOCKED: ATOM      5  C   UNL     1     -56.794 -29.795   0.468 -0.19 +0.00    +0.169 C  
DOCKED: ATOM      6  C   UNL     1     -53.934 -29.252  -1.760 -0.21 -0.00    -0.001 A  
DOCKED: ATOM      7  C   UNL     1     -56.675 -28.591  -1.815 -0.23 +0.00    +0.008 A  
DOCKED: ATOM      8  C   UNL     1     -54.471 -28.542  -2.836 -0.26 +0.00    +0.010 A  
DOCKED: ATOM      9  C   UNL     1     -55.834 -28.212  -2.862 -0.25 +0.00    +0.068 A  
DOCKED: ATOM     10  N   UNL     1     -56.796 -26.888  -4.870 -2.25 -0.00    -0.191 NA 
DOCKED: ATOM     11  C   UNL     1     -56.365 -27.482  -3.970 -0.36 +0.00    +0.101 C  
DOCKED: ENDROOT
DOCKED: BRANCH   2  12
DOCKED: ATOM     12  C   UNL     1     -53.572 -29.607   1.485 -0.15 +0.00    +0.038 C  
DOCKED: BRANCH  12  13
DOCKED: ATOM     13  C   UNL     1     -54.362 -28.561   2.270 -0.01 +0.00    +0.038 C  
DOCKED: BRANCH  13  14
DOCKED: ATOM     14  C   UNL     1     -54.155 -28.732   3.774 -0.11 +0.00    +0.251 C  
DOCKED: BRANCH  14  15
DOCKED: ATOM     15  N   UNL     1     -55.235 -28.087   4.511 -0.12 +0.00    +0.141 N  
DOCKED: ATOM     16  C   UNL     1     -56.235 -27.544   3.590 -0.15 +0.00    +0.285 C  
DOCKED: ATOM     17  C   UNL     1     -55.859 -29.029   5.440 -0.03 +0.00    +0.285 C  
DOCKED: ENDBRANCH  14  15
DOCKED: ENDBRANCH  13  14
DOCKED: ENDBRANCH  12  13
DOCKED: ENDBRANCH   2  12
DOCKED: BRANCH   2  18
DOCKED: ATOM     18  C   UNL     1     -53.932 -31.750   0.273 -0.13 +0.00    +0.006 A  
DOCKED: ATOM     19  C   UNL     1     -53.500 -32.541   1.337 -0.10 +0.00    +0.001 A  
DOCKED: ATOM     20  C   UNL     1     -52.993 -33.819   1.093 -0.14 +0.00    +0.029 A  
DOCKED: ATOM     21  C   UNL     1     -52.921 -34.303  -0.212 -0.16 +0.00    +0.140 A  
DOCKED: ATOM     22  C   UNL     1     -53.355 -33.511  -1.275 -0.18 +0.00    +0.029 A  
DOCKED: ATOM     23  F   UNL     1     -52.437 -35.530  -0.445 -0.06 -0.00    -0.204 F  
DOCKED: ATOM     24  C   UNL     1     -53.861 -32.233  -1.033 -0.19 +0.00    +0.001 A  
DOCKED: ENDBRANCH   2  18
DOCKED: TORSDOF 5
DOCKED: TER
DOCKED: ENDMDL
________________________________________________________________________________


    FINAL DOCKED STATE:
    ________________________


Run:   436 / 512
Time taken for this run:   0.002s

DOCKED: MODEL        436
DOCKED: USER    Run = 436
DOCKED: USER
DOCKED: USER    Estimated Free Energy of Binding    =  -4.55 kcal/mol  [=(1)+(2)+(3)-(4)]
DOCKED: USER
DOCKED: USER    (1) Final Intermolecular Energy     =  -6.05 kcal/mol
DOCKED: USER        vdW + Hbond + desolv Energy     =  -6.05 kcal/mol
DOCKED: USER        Electrostatic Energy            =  +0.00 kcal/mol
DOCKED: USER        Moving Ligand-Fixed Receptor    =  -6.05 kcal/mol
DOCKED: USER        Moving Ligand-Moving Receptor   =  +0.00 kcal/mol
DOCKED: USER    (2) Final Total Internal Energy     =  -1.17 kcal/mol
DOCKED: USER    (3) Torsional Free Energy           =  +1.49 kcal/mol
DOCKED: USER    (4) Unbound System's Energy         =  -1.17 kcal/mol
DOCKED: USER
DOCKED: USER
DOCKED: REMARK  5 active torsions:
DOCKED: REMARK  status: ('A' for Active; 'I' for Inactive)
DOCKED: REMARK    1  A    between atoms: C_2  and  C_19 
DOCKED: REMARK    2  A    between atoms: C_2  and  C_11 
DOCKED: REMARK    3  A    between atoms: C_19  and  C_20 
DOCKED: REMARK    4  A    between atoms: C_20  and  C_21 
DOCKED: REMARK    5  A    between atoms: C_21  and  N_22 
DOCKED: USER                              x       y       z     vdW  Elec       q    Type
DOCKED: USER                           _______ _______ _______ _____ _____    ______ ____
DOCKED: ROOT
DOCKED: ATOM      1  O   UNL     1     -61.120 -36.934   8.258 -0.00 -0.00    -0.346 OA 
DOCKED: ATOM      2  C   UNL     1     -59.694 -36.728   8.001 -0.11 +0.00    +0.130 C  
DOCKED: ATOM      3  C   UNL     1     -59.511 -37.203   6.588 -0.26 +0.00    +0.004 A  
DOCKED: ATOM      4  C   UNL     1     -60.743 -37.546   6.048 -0.26 +0.00    +0.006 A  
DOCKED: ATOM      5  C   UNL     1     -61.811 -37.313   7.045 -0.17 +0.00    +0.169 C  
DOCKED: ATOM      6  C   UNL     1     -58.350 -37.312   5.838 -0.36 -0.00    -0.001 A  
DOCKED: ATOM      7  C   UNL     1     -60.855 -38.011   4.749 -0.15 +0.00    +0.008 A  
DOCKED: ATOM      8  C   UNL     1     -58.446 -37.784   4.527 -0.20 +0.00    +0.010 A  
DOCKED: ATOM      9  C   UNL     1     -59.693 -38.131   3.986 -0.32 +0.00    +0.068 A  
DOCKED: ATOM     10  N   UNL     1     -59.837 -38.998   1.549 -2.89 -0.00    -0.191 NA 
DOCKED: ATOM     11  C   UNL     1     -59.772 -38.610   2.642 -0.27 +0.00    +0.101 C  
DOCKED: ENDROOT
DOCKED: BRANCH   2  12
DOCKED: ATOM     12  C   UNL     1     -59.381 -35.246   8.174 -0.12 +0.00    +0.038 C  
DOCKED: BRANCH  12  13
DOCKED: ATOM     13  C   UNL     1     -60.222 -34.626   9.288 -0.05 +0.00    +0.038 C  
DOCKED: BRANCH  13  14
DOCKED: ATOM     14  C   UNL     1     -59.339 -34.126  10.429 -0.00 +0.00    +0.251 C  
DOCKED: BRANCH  14  15
DOCKED: ATOM     15  N   UNL     1     -58.150 -33.469   9.900 -0.01 +0.00    +0.141 N  
DOCKED: ATOM     16  C   UNL     1     -58.302 -32.014   9.942 -0.00 +0.00    +0.285 C  
DOCKED: ATOM     17  C   UNL     1     -56.959 -33.877  10.648 -0.00 +0.00    +0.285 C  
DOCKED: ENDBRANCH  14  15
DOCKED: ENDBRANCH  13  14
DOCKED: ENDBRANCH  12  13
DOCKED: ENDBRANCH   2  12
DOCKED: BRANCH   2  18
DOCKED: ATOM     18  C   UNL     1     -58.948 -37.555   8.994 -0.11 +0.00    +0.006 A  
DOCKED: ATOM     19  C   UNL     1     -57.837 -37.024   9.649 -0.09 +0.00    +0.001 A  
DOCKED: ATOM     20  C   UNL     1     -57.140 -37.799  10.576 -0.11 +0.00    +0.029 A  
DOCKED: ATOM     21  C   UNL     1     -57.555 -39.102  10.848 -0.16 +0.00    +0.140 A  
DOCKED: ATOM     22  C   UNL     1     -58.666 -39.632  10.193 -0.10 +0.00    +0.029 A  
DOCKED: ATOM     23  F   UNL     1     -56.886 -39.845  11.740 -0.08 -0.00    -0.204 F  
DOCKED: ATOM     24  C   UNL     1     -59.363 -38.858   9.264 -0.19 +0.00    +0.001 A  
DOCKED: ENDBRANCH   2  18
DOCKED: TORSDOF 5
DOCKED: TER
DOCKED: ENDMDL
________________________________________________________________________________


    FINAL DOCKED STATE:
    ________________________


Run:   437 / 512
Time taken for this run:   0.002s

DOCKED: MODEL        437
DOCKED: USER    Run = 437
DOCKED: USER
DOCKED: USER    Estimated Free Energy of Binding    =  -4.51 kcal/mol  [=(1)+(2)+(3)-(4)]
DOCKED: USER
DOCKED: USER    (1) Final Intermolecular Energy     =  -6.00 kcal/mol
DOCKED: USER        vdW + Hbond + desolv Energy     =  -6.00 kcal/mol
DOCKED: USER        Electrostatic Energy            =  +0.00 kcal/mol
DOCKED: USER        Moving Ligand-Fixed Receptor    =  -6.00 kcal/mol
DOCKED: USER        Moving Ligand-Moving Receptor   =  +0.00 kcal/mol
DOCKED: USER    (2) Final Total Internal Energy     =  -1.06 kcal/mol
DOCKED: USER    (3) Torsional Free Energy           =  +1.49 kcal/mol
DOCKED: USER    (4) Unbound System's Energy         =  -1.06 kcal/mol
DOCKED: USER
DOCKED: USER
DOCKED: REMARK  5 active torsions:
DOCKED: REMARK  status: ('A' for Active; 'I' for Inactive)
DOCKED: REMARK    1  A    between atoms: C_2  and  C_19 
DOCKED: REMARK    2  A    between atoms: C_2  and  C_11 
DOCKED: REMARK    3  A    between atoms: C_19  and  C_20 
DOCKED: REMARK    4  A    between atoms: C_20  and  C_21 
DOCKED: REMARK    5  A    between atoms: C_21  and  N_22 
DOCKED: USER                              x       y       z     vdW  Elec       q    Type
DOCKED: USER                           _______ _______ _______ _____ _____    ______ ____
DOCKED: ROOT
DOCKED: ATOM      1  O   UNL     1     -55.887 -35.493   9.051 -0.03 -0.00    -0.346 OA 
DOCKED: ATOM      2  C   UNL     1     -56.758 -34.777   8.118 -0.10 +0.00    +0.130 C  
DOCKED: ATOM      3  C   UNL     1     -57.440 -35.872   7.350 -0.21 +0.00    +0.004 A  
DOCKED: ATOM      4  C   UNL     1     -57.075 -37.105   7.871 -0.22 +0.00    +0.006 A  
DOCKED: ATOM      5  C   UNL     1     -56.151 -36.915   9.012 -0.13 +0.00    +0.169 C  
DOCKED: ATOM      6  C   UNL     1     -58.322 -35.783   6.282 -0.26 -0.00    -0.001 A  
DOCKED: ATOM      7  C   UNL     1     -57.572 -38.285   7.345 -0.32 +0.00    +0.008 A  
DOCKED: ATOM      8  C   UNL     1     -58.828 -36.964   5.738 -0.32 +0.00    +0.010 A  
DOCKED: ATOM      9  C   UNL     1     -58.455 -38.209   6.267 -0.31 +0.00    +0.068 A  
DOCKED: ATOM     10  N   UNL     1     -59.417 -40.382   5.235 -2.55 -0.00    -0.191 NA 
DOCKED: ATOM     11  C   UNL     1     -58.985 -39.407   5.697 -0.31 +0.00    +0.101 C  
DOCKED: ENDROOT
DOCKED: BRANCH   2  12
DOCKED: ATOM     12  C   UNL     1     -57.730 -33.923   8.924 -0.05 +0.00    +0.038 C  
DOCKED: BRANCH  12  13
DOCKED: ATOM     13  C   UNL     1     -58.481 -32.939   8.030 -0.09 +0.00    +0.038 C  
DOCKED: BRANCH  13  14
DOCKED: ATOM     14  C   UNL     1     -59.891 -33.441   7.724 -0.10 +0.00    +0.251 C  
DOCKED: BRANCH  14  15
DOCKED: ATOM     15  N   UNL     1     -60.405 -32.803   6.517 -0.21 +0.00    +0.141 N  
DOCKED: ATOM     16  C   UNL     1     -61.866 -32.887   6.471 -0.12 +0.00    +0.285 C  
DOCKED: ATOM     17  C   UNL     1     -59.975 -31.406   6.449 -0.12 +0.00    +0.285 C  
DOCKED: ENDBRANCH  14  15
DOCKED: ENDBRANCH  13  14
DOCKED: ENDBRANCH  12  13
DOCKED: ENDBRANCH   2  12
DOCKED: BRANCH   2  18
DOCKED: ATOM     18  C   UNL     1     -55.878 -33.928   7.264 -0.13 +0.00    +0.006 A  
DOCKED: ATOM     19  C   UNL     1     -55.921 -34.056   5.876 -0.11 +0.00    +0.001 A  
DOCKED: ATOM     20  C   UNL     1     -55.097 -33.261   5.078 -0.14 +0.00    +0.029 A  
DOCKED: ATOM     21  C   UNL     1     -54.232 -32.341   5.668 -0.06 +0.00    +0.140 A  
DOCKED: ATOM     22  C   UNL     1     -54.189 -32.213   7.056 -0.04 +0.00    +0.029 A  
DOCKED: ATOM     23  F   UNL     1     -53.442 -31.577   4.901 -0.00 -0.00    -0.204 F  
DOCKED: ATOM     24  C   UNL     1     -55.013 -33.008   7.855 -0.05 +0.00    +0.001 A  
DOCKED: ENDBRANCH   2  18
DOCKED: TORSDOF 5
DOCKED: TER
DOCKED: ENDMDL
________________________________________________________________________________


    FINAL DOCKED STATE:
    ________________________


Run:   438 / 512
Time taken for this run:   0.002s

DOCKED: MODEL        438
DOCKED: USER    Run = 438
DOCKED: USER
DOCKED: USER    Estimated Free Energy of Binding    =  -3.41 kcal/mol  [=(1)+(2)+(3)-(4)]
DOCKED: USER
DOCKED: USER    (1) Final Intermolecular Energy     =  -4.91 kcal/mol
DOCKED: USER        vdW + Hbond + desolv Energy     =  -4.91 kcal/mol
DOCKED: USER        Electrostatic Energy            =  +0.00 kcal/mol
DOCKED: USER        Moving Ligand-Fixed Receptor    =  -4.91 kcal/mol
DOCKED: USER        Moving Ligand-Moving Receptor   =  +0.00 kcal/mol
DOCKED: USER    (2) Final Total Internal Energy     =  -1.35 kcal/mol
DOCKED: USER    (3) Torsional Free Energy           =  +1.49 kcal/mol
DOCKED: USER    (4) Unbound System's Energy         =  -1.35 kcal/mol
DOCKED: USER
DOCKED: USER
DOCKED: REMARK  5 active torsions:
DOCKED: REMARK  status: ('A' for Active; 'I' for Inactive)
DOCKED: REMARK    1  A    between atoms: C_2  and  C_19 
DOCKED: REMARK    2  A    between atoms: C_2  and  C_11 
DOCKED: REMARK    3  A    between atoms: C_19  and  C_20 
DOCKED: REMARK    4  A    between atoms: C_20  and  C_21 
DOCKED: REMARK    5  A    between atoms: C_21  and  N_22 
DOCKED: USER                              x       y       z     vdW  Elec       q    Type
DOCKED: USER                           _______ _______ _______ _____ _____    ______ ____
DOCKED: ROOT
DOCKED: ATOM      1  O   UNL     1     -51.580 -25.657  -0.647 -0.08 -0.00    -0.346 OA 
DOCKED: ATOM      2  C   UNL     1     -51.319 -26.943  -1.294 -0.10 +0.00    +0.130 C  
DOCKED: ATOM      3  C   UNL     1     -52.494 -27.129  -2.210 -0.15 +0.00    +0.004 A  
DOCKED: ATOM      4  C   UNL     1     -53.299 -26.000  -2.173 -0.24 +0.00    +0.006 A  
DOCKED: ATOM      5  C   UNL     1     -52.715 -24.997  -1.253 -0.18 +0.00    +0.169 C  
DOCKED: ATOM      6  C   UNL     1     -52.818 -28.208  -3.020 -0.12 -0.00    -0.001 A  
DOCKED: ATOM      7  C   UNL     1     -54.451 -25.910  -2.935 -0.24 +0.00    +0.008 A  
DOCKED: ATOM      8  C   UNL     1     -53.979 -28.134  -3.792 -0.23 +0.00    +0.010 A  
DOCKED: ATOM      9  C   UNL     1     -54.791 -26.991  -3.750 -0.34 +0.00    +0.068 A  
DOCKED: ATOM     10  N   UNL     1     -56.936 -26.885  -5.199 -2.55 -0.00    -0.191 NA 
DOCKED: ATOM     11  C   UNL     1     -55.974 -26.933  -4.548 -0.44 +0.00    +0.101 C  
DOCKED: ENDROOT
DOCKED: BRANCH   2  12
DOCKED: ATOM     12  C   UNL     1     -49.994 -26.848  -2.041 -0.04 +0.00    +0.038 C  
DOCKED: BRANCH  12  13
DOCKED: ATOM     13  C   UNL     1     -50.183 -26.261  -3.438 -0.05 +0.00    +0.038 C  
DOCKED: BRANCH  13  14
DOCKED: ATOM     14  C   UNL     1     -50.113 -24.736  -3.408 -0.03 +0.00    +0.251 C  
DOCKED: BRANCH  14  15
DOCKED: ATOM     15  N   UNL     1     -50.736 -24.176  -4.602 -0.05 +0.00    +0.141 N  
DOCKED: ATOM     16  C   UNL     1     -49.808 -23.282  -5.297 +0.29 +0.00    +0.285 C  
DOCKED: ATOM     17  C   UNL     1     -51.181 -25.243  -5.500 +0.06 +0.00    +0.285 C  
DOCKED: ENDBRANCH  14  15
DOCKED: ENDBRANCH  13  14
DOCKED: ENDBRANCH  12  13
DOCKED: ENDBRANCH   2  12
DOCKED: BRANCH   2  18
DOCKED: ATOM     18  C   UNL     1     -51.255 -27.971  -0.214 -0.10 +0.00    +0.006 A  
DOCKED: ATOM     19  C   UNL     1     -52.408 -28.310   0.494 -0.12 +0.00    +0.001 A  
DOCKED: ATOM     20  C   UNL     1     -52.347 -29.270   1.504 -0.11 +0.00    +0.029 A  
DOCKED: ATOM     21  C   UNL     1     -51.135 -29.890   1.805 -0.03 +0.00    +0.140 A  
DOCKED: ATOM     22  C   UNL     1     -49.983 -29.551   1.096 -0.02 +0.00    +0.029 A  
DOCKED: ATOM     23  F   UNL     1     -51.077 -30.814   2.773 +0.00 -0.00    -0.204 F  
DOCKED: ATOM     24  C   UNL     1     -50.043 -28.590   0.086 -0.04 +0.00    +0.001 A  
DOCKED: ENDBRANCH   2  18
DOCKED: TORSDOF 5
DOCKED: TER
DOCKED: ENDMDL
________________________________________________________________________________


    FINAL DOCKED STATE:
    ________________________


Run:   439 / 512
Time taken for this run:   0.002s

DOCKED: MODEL        439
DOCKED: USER    Run = 439
DOCKED: USER
DOCKED: USER    Estimated Free Energy of Binding    =  -3.76 kcal/mol  [=(1)+(2)+(3)-(4)]
DOCKED: USER
DOCKED: USER    (1) Final Intermolecular Energy     =  -5.25 kcal/mol
DOCKED: USER        vdW + Hbond + desolv Energy     =  -5.25 kcal/mol
DOCKED: USER        Electrostatic Energy            =  +0.00 kcal/mol
DOCKED: USER        Moving Ligand-Fixed Receptor    =  -5.25 kcal/mol
DOCKED: USER        Moving Ligand-Moving Receptor   =  +0.00 kcal/mol
DOCKED: USER    (2) Final Total Internal Energy     =  -1.13 kcal/mol
DOCKED: USER    (3) Torsional Free Energy           =  +1.49 kcal/mol
DOCKED: USER    (4) Unbound System's Energy         =  -1.13 kcal/mol
DOCKED: USER
DOCKED: USER
DOCKED: REMARK  5 active torsions:
DOCKED: REMARK  status: ('A' for Active; 'I' for Inactive)
DOCKED: REMARK    1  A    between atoms: C_2  and  C_19 
DOCKED: REMARK    2  A    between atoms: C_2  and  C_11 
DOCKED: REMARK    3  A    between atoms: C_19  and  C_20 
DOCKED: REMARK    4  A    between atoms: C_20  and  C_21 
DOCKED: REMARK    5  A    between atoms: C_21  and  N_22 
DOCKED: USER                              x       y       z     vdW  Elec       q    Type
DOCKED: USER                           _______ _______ _______ _____ _____    ______ ____
DOCKED: ROOT
DOCKED: ATOM      1  O   UNL     1     -51.285 -30.194  -2.762 +0.01 -0.00    -0.346 OA 
DOCKED: ATOM      2  C   UNL     1     -51.554 -29.061  -1.876 -0.04 +0.00    +0.130 C  
DOCKED: ATOM      3  C   UNL     1     -52.701 -28.353  -2.537 -0.12 +0.00    +0.004 A  
DOCKED: ATOM      4  C   UNL     1     -53.124 -29.078  -3.642 -0.15 +0.00    +0.006 A  
DOCKED: ATOM      5  C   UNL     1     -52.306 -30.304  -3.780 -0.09 +0.00    +0.169 C  
DOCKED: ATOM      6  C   UNL     1     -53.329 -27.168  -2.182 -0.20 -0.00    -0.001 A  
DOCKED: ATOM      7  C   UNL     1     -54.178 -28.646  -4.428 -0.18 +0.00    +0.008 A  
DOCKED: ATOM      8  C   UNL     1     -54.391 -26.716  -2.967 -0.32 +0.00    +0.010 A  
DOCKED: ATOM      9  C   UNL     1     -54.813 -27.451  -4.084 -0.32 +0.00    +0.068 A  
DOCKED: ATOM     10  N   UNL     1     -56.791 -26.587  -5.518 -2.55 -0.00    -0.191 NA 
DOCKED: ATOM     11  C   UNL     1     -55.903 -26.974  -4.875 -0.41 +0.00    +0.101 C  
DOCKED: ENDROOT
DOCKED: BRANCH   2  12
DOCKED: ATOM     12  C   UNL     1     -51.906 -29.600  -0.495 -0.07 +0.00    +0.038 C  
DOCKED: BRANCH  12  13
DOCKED: ATOM     13  C   UNL     1     -53.017 -30.645  -0.571 -0.10 +0.00    +0.038 C  
DOCKED: BRANCH  13  14
DOCKED: ATOM     14  C   UNL     1     -54.383 -30.015  -0.304 -0.14 +0.00    +0.251 C  
DOCKED: BRANCH  14  15
DOCKED: ATOM     15  N   UNL     1     -55.388 -31.051  -0.099 -0.19 +0.00    +0.141 N  
DOCKED: ATOM     16  C   UNL     1     -54.802 -32.214   0.570 -0.13 +0.00    +0.285 C  
DOCKED: ATOM     17  C   UNL     1     -56.513 -30.531   0.680 -0.18 +0.00    +0.285 C  
DOCKED: ENDBRANCH  14  15
DOCKED: ENDBRANCH  13  14
DOCKED: ENDBRANCH  12  13
DOCKED: ENDBRANCH   2  12
DOCKED: BRANCH   2  18
DOCKED: ATOM     18  C   UNL     1     -50.310 -28.237  -1.832 -0.03 +0.00    +0.006 A  
DOCKED: ATOM     19  C   UNL     1     -49.774 -27.721  -3.011 -0.01 +0.00    +0.001 A  
DOCKED: ATOM     20  C   UNL     1     -48.611 -26.952  -2.969 -0.01 +0.00    +0.029 A  
DOCKED: ATOM     21  C   UNL     1     -47.987 -26.698  -1.748 -0.00 +0.00    +0.140 A  
DOCKED: ATOM     22  C   UNL     1     -48.524 -27.214  -0.569 -0.01 +0.00    +0.029 A  
DOCKED: ATOM     23  F   UNL     1     -46.871 -25.958  -1.707 +0.00 -0.00    -0.204 F  
DOCKED: ATOM     24  C   UNL     1     -49.687 -27.985  -0.611 -0.03 +0.00    +0.001 A  
DOCKED: ENDBRANCH   2  18
DOCKED: TORSDOF 5
DOCKED: TER
DOCKED: ENDMDL
________________________________________________________________________________


    FINAL DOCKED STATE:
    ________________________


Run:   440 / 512
Time taken for this run:   0.002s

DOCKED: MODEL        440
DOCKED: USER    Run = 440
DOCKED: USER
DOCKED: USER    Estimated Free Energy of Binding    =  -6.31 kcal/mol  [=(1)+(2)+(3)-(4)]
DOCKED: USER
DOCKED: USER    (1) Final Intermolecular Energy     =  -7.80 kcal/mol
DOCKED: USER        vdW + Hbond + desolv Energy     =  -7.80 kcal/mol
DOCKED: USER        Electrostatic Energy            =  +0.00 kcal/mol
DOCKED: USER        Moving Ligand-Fixed Receptor    =  -7.80 kcal/mol
DOCKED: USER        Moving Ligand-Moving Receptor   =  +0.00 kcal/mol
DOCKED: USER    (2) Final Total Internal Energy     =  -0.97 kcal/mol
DOCKED: USER    (3) Torsional Free Energy           =  +1.49 kcal/mol
DOCKED: USER    (4) Unbound System's Energy         =  -0.97 kcal/mol
DOCKED: USER
DOCKED: USER
DOCKED: REMARK  5 active torsions:
DOCKED: REMARK  status: ('A' for Active; 'I' for Inactive)
DOCKED: REMARK    1  A    between atoms: C_2  and  C_19 
DOCKED: REMARK    2  A    between atoms: C_2  and  C_11 
DOCKED: REMARK    3  A    between atoms: C_19  and  C_20 
DOCKED: REMARK    4  A    between atoms: C_20  and  C_21 
DOCKED: REMARK    5  A    between atoms: C_21  and  N_22 
DOCKED: USER                              x       y       z     vdW  Elec       q    Type
DOCKED: USER                           _______ _______ _______ _____ _____    ______ ____
DOCKED: ROOT
DOCKED: ATOM      1  O   UNL     1     -56.489 -39.682   7.587 -0.24 -0.00    -0.346 OA 
DOCKED: ATOM      2  C   UNL     1     -57.287 -38.462   7.716 -0.28 +0.00    +0.130 C  
DOCKED: ATOM      3  C   UNL     1     -58.001 -38.359   6.399 -0.36 +0.00    +0.004 A  
DOCKED: ATOM      4  C   UNL     1     -57.722 -39.478   5.628 -0.36 +0.00    +0.006 A  
DOCKED: ATOM      5  C   UNL     1     -56.828 -40.392   6.373 -0.23 +0.00    +0.169 C  
DOCKED: ATOM      6  C   UNL     1     -58.840 -37.360   5.927 -0.34 -0.00    -0.001 A  
DOCKED: ATOM      7  C   UNL     1     -58.263 -39.635   4.363 -0.36 +0.00    +0.008 A  
DOCKED: ATOM      8  C   UNL     1     -59.390 -37.501   4.652 -0.05 +0.00    +0.010 A  
DOCKED: ATOM      9  C   UNL     1     -59.104 -38.633   3.875 -0.45 +0.00    +0.068 A  
DOCKED: ATOM     10  N   UNL     1     -60.146 -38.867   1.514 -3.13 -0.00    -0.191 NA 
DOCKED: ATOM     11  C   UNL     1     -59.678 -38.762   2.573 -0.29 +0.00    +0.101 C  
DOCKED: ENDROOT
DOCKED: BRANCH   2  12
DOCKED: ATOM     12  C   UNL     1     -58.239 -38.631   8.895 -0.24 +0.00    +0.038 C  
DOCKED: BRANCH  12  13
DOCKED: ATOM     13  C   UNL     1     -59.543 -39.301   8.467 -0.27 +0.00    +0.038 C  
DOCKED: BRANCH  13  14
DOCKED: ATOM     14  C   UNL     1     -60.694 -38.297   8.443 -0.07 +0.00    +0.251 C  
DOCKED: BRANCH  14  15
DOCKED: ATOM     15  N   UNL     1     -61.494 -38.414   9.657 -0.07 +0.00    +0.141 N  
DOCKED: ATOM     16  C   UNL     1     -62.661 -37.533   9.592 -0.02 +0.00    +0.285 C  
DOCKED: ATOM     17  C   UNL     1     -61.915 -39.800   9.865 -0.07 +0.00    +0.285 C  
DOCKED: ENDBRANCH  14  15
DOCKED: ENDBRANCH  13  14
DOCKED: ENDBRANCH  12  13
DOCKED: ENDBRANCH   2  12
DOCKED: BRANCH   2  18
DOCKED: ATOM     18  C   UNL     1     -56.334 -37.339   7.951 -0.24 +0.00    +0.006 A  
DOCKED: ATOM     19  C   UNL     1     -55.023 -37.608   8.344 -0.16 +0.00    +0.001 A  
DOCKED: ATOM     20  C   UNL     1     -54.132 -36.557   8.563 -0.15 +0.00    +0.029 A  
DOCKED: ATOM     21  C   UNL     1     -54.552 -35.239   8.388 -0.09 +0.00    +0.140 A  
DOCKED: ATOM     22  C   UNL     1     -55.863 -34.971   7.994 -0.12 +0.00    +0.029 A  
DOCKED: ATOM     23  F   UNL     1     -53.696 -34.230   8.597 -0.01 -0.00    -0.204 F  
DOCKED: ATOM     24  C   UNL     1     -56.755 -36.022   7.775 -0.19 +0.00    +0.001 A  
DOCKED: ENDBRANCH   2  18
DOCKED: TORSDOF 5
DOCKED: TER
DOCKED: ENDMDL
________________________________________________________________________________


    FINAL DOCKED STATE:
    ________________________


Run:   441 / 512
Time taken for this run:   0.002s

DOCKED: MODEL        441
DOCKED: USER    Run = 441
DOCKED: USER
DOCKED: USER    Estimated Free Energy of Binding    =  -4.15 kcal/mol  [=(1)+(2)+(3)-(4)]
DOCKED: USER
DOCKED: USER    (1) Final Intermolecular Energy     =  -5.64 kcal/mol
DOCKED: USER        vdW + Hbond + desolv Energy     =  -5.64 kcal/mol
DOCKED: USER        Electrostatic Energy            =  +0.00 kcal/mol
DOCKED: USER        Moving Ligand-Fixed Receptor    =  -5.64 kcal/mol
DOCKED: USER        Moving Ligand-Moving Receptor   =  +0.00 kcal/mol
DOCKED: USER    (2) Final Total Internal Energy     =  -1.31 kcal/mol
DOCKED: USER    (3) Torsional Free Energy           =  +1.49 kcal/mol
DOCKED: USER    (4) Unbound System's Energy         =  -1.31 kcal/mol
DOCKED: USER
DOCKED: USER
DOCKED: REMARK  5 active torsions:
DOCKED: REMARK  status: ('A' for Active; 'I' for Inactive)
DOCKED: REMARK    1  A    between atoms: C_2  and  C_19 
DOCKED: REMARK    2  A    between atoms: C_2  and  C_11 
DOCKED: REMARK    3  A    between atoms: C_19  and  C_20 
DOCKED: REMARK    4  A    between atoms: C_20  and  C_21 
DOCKED: REMARK    5  A    between atoms: C_21  and  N_22 
DOCKED: USER                              x       y       z     vdW  Elec       q    Type
DOCKED: USER                           _______ _______ _______ _____ _____    ______ ____
DOCKED: ROOT
DOCKED: ATOM      1  O   UNL     1     -57.240 -34.195   7.752 -0.04 -0.00    -0.346 OA 
DOCKED: ATOM      2  C   UNL     1     -58.637 -34.385   8.147 -0.09 +0.00    +0.130 C  
DOCKED: ATOM      3  C   UNL     1     -59.017 -35.688   7.506 -0.18 +0.00    +0.004 A  
DOCKED: ATOM      4  C   UNL     1     -57.907 -36.248   6.891 -0.27 +0.00    +0.006 A  
DOCKED: ATOM      5  C   UNL     1     -56.728 -35.375   7.090 -0.18 +0.00    +0.169 C  
DOCKED: ATOM      6  C   UNL     1     -60.246 -36.332   7.479 -0.18 -0.00    -0.001 A  
DOCKED: ATOM      7  C   UNL     1     -57.985 -37.461   6.228 -0.34 +0.00    +0.008 A  
DOCKED: ATOM      8  C   UNL     1     -60.342 -37.553   6.810 -0.22 +0.00    +0.010 A  
DOCKED: ATOM      9  C   UNL     1     -59.217 -38.115   6.189 -0.27 +0.00    +0.068 A  
DOCKED: ATOM     10  N   UNL     1     -59.429 -40.387   4.961 -2.36 -0.00    -0.191 NA 
DOCKED: ATOM     11  C   UNL     1     -59.334 -39.368   5.511 -0.38 +0.00    +0.101 C  
DOCKED: ENDROOT
DOCKED: BRANCH   2  12
DOCKED: ATOM     12  C   UNL     1     -58.705 -34.430   9.669 -0.03 +0.00    +0.038 C  
DOCKED: BRANCH  12  13
DOCKED: ATOM     13  C   UNL     1     -58.594 -35.862  10.189 -0.04 +0.00    +0.038 C  
DOCKED: BRANCH  13  14
DOCKED: ATOM     14  C   UNL     1     -57.139 -36.325  10.218 -0.03 +0.00    +0.251 C  
DOCKED: BRANCH  14  15
DOCKED: ATOM     15  N   UNL     1     -57.070 -37.766  10.432 -0.09 +0.00    +0.141 N  
DOCKED: ATOM     16  C   UNL     1     -57.349 -38.093  11.831 -0.06 +0.00    +0.285 C  
DOCKED: ATOM     17  C   UNL     1     -58.007 -38.464   9.550 -0.10 +0.00    +0.285 C  
DOCKED: ENDBRANCH  14  15
DOCKED: ENDBRANCH  13  14
DOCKED: ENDBRANCH  12  13
DOCKED: ENDBRANCH   2  12
DOCKED: BRANCH   2  18
DOCKED: ATOM     18  C   UNL     1     -59.405 -33.225   7.608 -0.14 +0.00    +0.006 A  
DOCKED: ATOM     19  C   UNL     1     -60.672 -32.934   8.110 -0.10 +0.00    +0.001 A  
DOCKED: ATOM     20  C   UNL     1     -61.390 -31.850   7.605 -0.10 +0.00    +0.029 A  
DOCKED: ATOM     21  C   UNL     1     -60.839 -31.057   6.599 -0.11 +0.00    +0.140 A  
DOCKED: ATOM     22  C   UNL     1     -59.571 -31.348   6.097 -0.17 +0.00    +0.029 A  
DOCKED: ATOM     23  F   UNL     1     -61.527 -30.015   6.115 -0.01 -0.00    -0.204 F  
DOCKED: ATOM     24  C   UNL     1     -58.853 -32.434   6.601 -0.18 +0.00    +0.001 A  
DOCKED: ENDBRANCH   2  18
DOCKED: TORSDOF 5
DOCKED: TER
DOCKED: ENDMDL
________________________________________________________________________________


    FINAL DOCKED STATE:
    ________________________


Run:   442 / 512
Time taken for this run:   0.002s

DOCKED: MODEL        442
DOCKED: USER    Run = 442
DOCKED: USER
DOCKED: USER    Estimated Free Energy of Binding    =  -4.21 kcal/mol  [=(1)+(2)+(3)-(4)]
DOCKED: USER
DOCKED: USER    (1) Final Intermolecular Energy     =  -5.70 kcal/mol
DOCKED: USER        vdW + Hbond + desolv Energy     =  -5.70 kcal/mol
DOCKED: USER        Electrostatic Energy            =  +0.00 kcal/mol
DOCKED: USER        Moving Ligand-Fixed Receptor    =  -5.70 kcal/mol
DOCKED: USER        Moving Ligand-Moving Receptor   =  +0.00 kcal/mol
DOCKED: USER    (2) Final Total Internal Energy     =  -1.32 kcal/mol
DOCKED: USER    (3) Torsional Free Energy           =  +1.49 kcal/mol
DOCKED: USER    (4) Unbound System's Energy         =  -1.32 kcal/mol
DOCKED: USER
DOCKED: USER
DOCKED: REMARK  5 active torsions:
DOCKED: REMARK  status: ('A' for Active; 'I' for Inactive)
DOCKED: REMARK    1  A    between atoms: C_2  and  C_19 
DOCKED: REMARK    2  A    between atoms: C_2  and  C_11 
DOCKED: REMARK    3  A    between atoms: C_19  and  C_20 
DOCKED: REMARK    4  A    between atoms: C_20  and  C_21 
DOCKED: REMARK    5  A    between atoms: C_21  and  N_22 
DOCKED: USER                              x       y       z     vdW  Elec       q    Type
DOCKED: USER                           _______ _______ _______ _____ _____    ______ ____
DOCKED: ROOT
DOCKED: ATOM      1  O   UNL     1     -55.345 -35.274   8.033 -0.07 -0.00    -0.346 OA 
DOCKED: ATOM      2  C   UNL     1     -56.495 -34.601   7.428 -0.15 +0.00    +0.130 C  
DOCKED: ATOM      3  C   UNL     1     -57.320 -35.726   6.875 -0.25 +0.00    +0.004 A  
DOCKED: ATOM      4  C   UNL     1     -56.751 -36.941   7.229 -0.22 +0.00    +0.006 A  
DOCKED: ATOM      5  C   UNL     1     -55.534 -36.708   8.039 -0.13 +0.00    +0.169 C  
DOCKED: ATOM      6  C   UNL     1     -58.489 -35.679   6.128 -0.22 -0.00    -0.001 A  
DOCKED: ATOM      7  C   UNL     1     -57.322 -38.143   6.848 -0.33 +0.00    +0.008 A  
DOCKED: ATOM      8  C   UNL     1     -59.074 -36.883   5.732 -0.28 +0.00    +0.010 A  
DOCKED: ATOM      9  C   UNL     1     -58.494 -38.108   6.091 -0.32 +0.00    +0.068 A  
DOCKED: ATOM     10  N   UNL     1     -59.610 -40.325   5.345 -2.57 -0.00    -0.191 NA 
DOCKED: ATOM     11  C   UNL     1     -59.109 -39.331   5.679 -0.35 +0.00    +0.101 C  
DOCKED: ENDROOT
DOCKED: BRANCH   2  12
DOCKED: ATOM     12  C   UNL     1     -57.218 -33.812   8.513 -0.07 +0.00    +0.038 C  
DOCKED: BRANCH  12  13
DOCKED: ATOM     13  C   UNL     1     -57.109 -34.502   9.871 -0.03 +0.00    +0.038 C  
DOCKED: BRANCH  13  14
DOCKED: ATOM     14  C   UNL     1     -58.184 -35.576  10.029 -0.01 +0.00    +0.251 C  
DOCKED: BRANCH  14  15
DOCKED: ATOM     15  N   UNL     1     -57.635 -36.747  10.703 -0.03 +0.00    +0.141 N  
DOCKED: ATOM     16  C   UNL     1     -56.555 -36.361  11.612 -0.01 +0.00    +0.285 C  
DOCKED: ATOM     17  C   UNL     1     -58.684 -37.459  11.435 -0.02 +0.00    +0.285 C  
DOCKED: ENDBRANCH  14  15
DOCKED: ENDBRANCH  13  14
DOCKED: ENDBRANCH  12  13
DOCKED: ENDBRANCH   2  12
DOCKED: BRANCH   2  18
DOCKED: ATOM     18  C   UNL     1     -55.962 -33.695   6.368 -0.16 +0.00    +0.006 A  
DOCKED: ATOM     19  C   UNL     1     -54.765 -34.005   5.724 -0.09 +0.00    +0.001 A  
DOCKED: ATOM     20  C   UNL     1     -54.268 -33.157   4.733 -0.13 +0.00    +0.029 A  
DOCKED: ATOM     21  C   UNL     1     -54.968 -32.002   4.388 -0.08 +0.00    +0.140 A  
DOCKED: ATOM     22  C   UNL     1     -56.165 -31.693   5.033 -0.07 +0.00    +0.029 A  
DOCKED: ATOM     23  F   UNL     1     -54.491 -31.189   3.436 -0.01 -0.00    -0.204 F  
DOCKED: ATOM     24  C   UNL     1     -56.663 -32.540   6.025 -0.10 +0.00    +0.001 A  
DOCKED: ENDBRANCH   2  18
DOCKED: TORSDOF 5
DOCKED: TER
DOCKED: ENDMDL
________________________________________________________________________________


    FINAL DOCKED STATE:
    ________________________


Run:   443 / 512
Time taken for this run:   0.002s

DOCKED: MODEL        443
DOCKED: USER    Run = 443
DOCKED: USER
DOCKED: USER    Estimated Free Energy of Binding    =  -4.19 kcal/mol  [=(1)+(2)+(3)-(4)]
DOCKED: USER
DOCKED: USER    (1) Final Intermolecular Energy     =  -5.68 kcal/mol
DOCKED: USER        vdW + Hbond + desolv Energy     =  -5.68 kcal/mol
DOCKED: USER        Electrostatic Energy            =  +0.00 kcal/mol
DOCKED: USER        Moving Ligand-Fixed Receptor    =  -5.68 kcal/mol
DOCKED: USER        Moving Ligand-Moving Receptor   =  +0.00 kcal/mol
DOCKED: USER    (2) Final Total Internal Energy     =  -1.25 kcal/mol
DOCKED: USER    (3) Torsional Free Energy           =  +1.49 kcal/mol
DOCKED: USER    (4) Unbound System's Energy         =  -1.25 kcal/mol
DOCKED: USER
DOCKED: USER
DOCKED: REMARK  5 active torsions:
DOCKED: REMARK  status: ('A' for Active; 'I' for Inactive)
DOCKED: REMARK    1  A    between atoms: C_2  and  C_19 
DOCKED: REMARK    2  A    between atoms: C_2  and  C_11 
DOCKED: REMARK    3  A    between atoms: C_19  and  C_20 
DOCKED: REMARK    4  A    between atoms: C_20  and  C_21 
DOCKED: REMARK    5  A    between atoms: C_21  and  N_22 
DOCKED: USER                              x       y       z     vdW  Elec       q    Type
DOCKED: USER                           _______ _______ _______ _____ _____    ______ ____
DOCKED: ROOT
DOCKED: ATOM      1  O   UNL     1     -49.951 -38.313  -1.930 -0.02 -0.00    -0.346 OA 
DOCKED: ATOM      2  C   UNL     1     -49.977 -37.182  -1.000 -0.09 +0.00    +0.130 C  
DOCKED: ATOM      3  C   UNL     1     -50.497 -37.778   0.276 -0.12 +0.00    +0.004 A  
DOCKED: ATOM      4  C   UNL     1     -50.649 -39.149   0.123 -0.17 +0.00    +0.006 A  
DOCKED: ATOM      5  C   UNL     1     -50.236 -39.552  -1.240 -0.09 +0.00    +0.169 C  
DOCKED: ATOM      6  C   UNL     1     -50.799 -37.158   1.480 -0.13 -0.00    -0.001 A  
DOCKED: ATOM      7  C   UNL     1     -51.111 -39.943   1.160 -0.28 +0.00    +0.008 A  
DOCKED: ATOM      8  C   UNL     1     -51.270 -37.944   2.533 -0.23 +0.00    +0.010 A  
DOCKED: ATOM      9  C   UNL     1     -51.424 -39.330   2.374 -0.31 +0.00    +0.068 A  
DOCKED: ATOM     10  N   UNL     1     -52.295 -40.760   4.350 -2.67 -0.00    -0.191 NA 
DOCKED: ATOM     11  C   UNL     1     -51.905 -40.118   3.464 -0.40 +0.00    +0.101 C  
DOCKED: ENDROOT
DOCKED: BRANCH   2  12
DOCKED: ATOM     12  C   UNL     1     -48.561 -36.635  -0.866 -0.02 +0.00    +0.038 C  
DOCKED: BRANCH  12  13
DOCKED: ATOM     13  C   UNL     1     -47.637 -37.642  -0.183 -0.02 +0.00    +0.038 C  
DOCKED: BRANCH  13  14
DOCKED: ATOM     14  C   UNL     1     -47.467 -37.314   1.299 -0.00 +0.00    +0.251 C  
DOCKED: BRANCH  14  15
DOCKED: ATOM     15  N   UNL     1     -46.899 -38.454   2.008 -0.02 +0.00    +0.141 N  
DOCKED: ATOM     16  C   UNL     1     -47.316 -38.448   3.412 -0.01 +0.00    +0.285 C  
DOCKED: ATOM     17  C   UNL     1     -47.293 -39.710   1.367 -0.04 +0.00    +0.285 C  
DOCKED: ENDBRANCH  14  15
DOCKED: ENDBRANCH  13  14
DOCKED: ENDBRANCH  12  13
DOCKED: ENDBRANCH   2  12
DOCKED: BRANCH   2  18
DOCKED: ATOM     18  C   UNL     1     -50.896 -36.160  -1.581 -0.11 +0.00    +0.006 A  
DOCKED: ATOM     19  C   UNL     1     -51.736 -35.425  -0.747 -0.13 +0.00    +0.001 A  
DOCKED: ATOM     20  C   UNL     1     -52.596 -34.469  -1.292 -0.18 +0.00    +0.029 A  
DOCKED: ATOM     21  C   UNL     1     -52.613 -34.251  -2.669 -0.19 +0.00    +0.140 A  
DOCKED: ATOM     22  C   UNL     1     -51.772 -34.988  -3.502 -0.19 +0.00    +0.029 A  
DOCKED: ATOM     23  F   UNL     1     -53.436 -33.333  -3.191 -0.12 -0.00    -0.204 F  
DOCKED: ATOM     24  C   UNL     1     -50.912 -35.944  -2.959 -0.15 +0.00    +0.001 A  
DOCKED: ENDBRANCH   2  18
DOCKED: TORSDOF 5
DOCKED: TER
DOCKED: ENDMDL
________________________________________________________________________________


    FINAL DOCKED STATE:
    ________________________


Run:   444 / 512
Time taken for this run:   0.002s

DOCKED: MODEL        444
DOCKED: USER    Run = 444
DOCKED: USER
DOCKED: USER    Estimated Free Energy of Binding    =  -4.25 kcal/mol  [=(1)+(2)+(3)-(4)]
DOCKED: USER
DOCKED: USER    (1) Final Intermolecular Energy     =  -5.75 kcal/mol
DOCKED: USER        vdW + Hbond + desolv Energy     =  -5.75 kcal/mol
DOCKED: USER        Electrostatic Energy            =  +0.00 kcal/mol
DOCKED: USER        Moving Ligand-Fixed Receptor    =  -5.75 kcal/mol
DOCKED: USER        Moving Ligand-Moving Receptor   =  +0.00 kcal/mol
DOCKED: USER    (2) Final Total Internal Energy     =  -1.06 kcal/mol
DOCKED: USER    (3) Torsional Free Energy           =  +1.49 kcal/mol
DOCKED: USER    (4) Unbound System's Energy         =  -1.06 kcal/mol
DOCKED: USER
DOCKED: USER
DOCKED: REMARK  5 active torsions:
DOCKED: REMARK  status: ('A' for Active; 'I' for Inactive)
DOCKED: REMARK    1  A    between atoms: C_2  and  C_19 
DOCKED: REMARK    2  A    between atoms: C_2  and  C_11 
DOCKED: REMARK    3  A    between atoms: C_19  and  C_20 
DOCKED: REMARK    4  A    between atoms: C_20  and  C_21 
DOCKED: REMARK    5  A    between atoms: C_21  and  N_22 
DOCKED: USER                              x       y       z     vdW  Elec       q    Type
DOCKED: USER                           _______ _______ _______ _____ _____    ______ ____
DOCKED: ROOT
DOCKED: ATOM      1  O   UNL     1     -57.792 -33.500   7.486 -0.04 -0.00    -0.346 OA 
DOCKED: ATOM      2  C   UNL     1     -59.246 -33.583   7.627 -0.14 +0.00    +0.130 C  
DOCKED: ATOM      3  C   UNL     1     -59.577 -34.964   7.140 -0.21 +0.00    +0.004 A  
DOCKED: ATOM      4  C   UNL     1     -58.406 -35.650   6.851 -0.25 +0.00    +0.006 A  
DOCKED: ATOM      5  C   UNL     1     -57.236 -34.788   7.134 -0.17 +0.00    +0.169 C  
DOCKED: ATOM      6  C   UNL     1     -60.814 -35.570   6.977 -0.22 -0.00    -0.001 A  
DOCKED: ATOM      7  C   UNL     1     -58.430 -36.954   6.387 -0.31 +0.00    +0.008 A  
DOCKED: ATOM      8  C   UNL     1     -60.856 -36.883   6.506 -0.23 +0.00    +0.010 A  
DOCKED: ATOM      9  C   UNL     1     -59.669 -37.572   6.213 -0.24 +0.00    +0.068 A  
DOCKED: ATOM     10  N   UNL     1     -59.781 -40.011   5.346 -2.56 -0.00    -0.191 NA 
DOCKED: ATOM     11  C   UNL     1     -59.731 -38.917   5.734 -0.35 +0.00    +0.101 C  
DOCKED: ENDROOT
DOCKED: BRANCH   2  12
DOCKED: ATOM     12  C   UNL     1     -59.602 -33.370   9.094 -0.04 +0.00    +0.038 C  
DOCKED: BRANCH  12  13
DOCKED: ATOM     13  C   UNL     1     -59.028 -32.057   9.621 -0.02 +0.00    +0.038 C  
DOCKED: BRANCH  13  14
DOCKED: ATOM     14  C   UNL     1     -58.784 -32.130  11.127 -0.00 +0.00    +0.251 C  
DOCKED: BRANCH  14  15
DOCKED: ATOM     15  N   UNL     1     -59.879 -31.495  11.850 -0.00 +0.00    +0.141 N  
DOCKED: ATOM     16  C   UNL     1     -60.617 -30.585  10.973 +0.00 +0.00    +0.285 C  
DOCKED: ATOM     17  C   UNL     1     -60.781 -32.504  12.409 +0.00 +0.00    +0.285 C  
DOCKED: ENDBRANCH  14  15
DOCKED: ENDBRANCH  13  14
DOCKED: ENDBRANCH  12  13
DOCKED: ENDBRANCH   2  12
DOCKED: BRANCH   2  18
DOCKED: ATOM     18  C   UNL     1     -59.830 -32.509   6.770 -0.20 +0.00    +0.006 A  
DOCKED: ATOM     19  C   UNL     1     -58.997 -31.723   5.976 -0.17 +0.00    +0.001 A  
DOCKED: ATOM     20  C   UNL     1     -59.544 -30.719   5.175 -0.14 +0.00    +0.029 A  
DOCKED: ATOM     21  C   UNL     1     -60.921 -30.504   5.170 -0.08 +0.00    +0.140 A  
DOCKED: ATOM     22  C   UNL     1     -61.753 -31.291   5.965 -0.14 +0.00    +0.029 A  
DOCKED: ATOM     23  F   UNL     1     -61.446 -29.541   4.401 -0.03 -0.00    -0.204 F  
DOCKED: ATOM     24  C   UNL     1     -61.207 -32.295   6.767 -0.20 +0.00    +0.001 A  
DOCKED: ENDBRANCH   2  18
DOCKED: TORSDOF 5
DOCKED: TER
DOCKED: ENDMDL
________________________________________________________________________________


    FINAL DOCKED STATE:
    ________________________


Run:   445 / 512
Time taken for this run:   0.002s

DOCKED: MODEL        445
DOCKED: USER    Run = 445
DOCKED: USER
DOCKED: USER    Estimated Free Energy of Binding    =  -4.20 kcal/mol  [=(1)+(2)+(3)-(4)]
DOCKED: USER
DOCKED: USER    (1) Final Intermolecular Energy     =  -5.69 kcal/mol
DOCKED: USER        vdW + Hbond + desolv Energy     =  -5.69 kcal/mol
DOCKED: USER        Electrostatic Energy            =  +0.00 kcal/mol
DOCKED: USER        Moving Ligand-Fixed Receptor    =  -5.69 kcal/mol
DOCKED: USER        Moving Ligand-Moving Receptor   =  +0.00 kcal/mol
DOCKED: USER    (2) Final Total Internal Energy     =  -1.13 kcal/mol
DOCKED: USER    (3) Torsional Free Energy           =  +1.49 kcal/mol
DOCKED: USER    (4) Unbound System's Energy         =  -1.13 kcal/mol
DOCKED: USER
DOCKED: USER
DOCKED: REMARK  5 active torsions:
DOCKED: REMARK  status: ('A' for Active; 'I' for Inactive)
DOCKED: REMARK    1  A    between atoms: C_2  and  C_19 
DOCKED: REMARK    2  A    between atoms: C_2  and  C_11 
DOCKED: REMARK    3  A    between atoms: C_19  and  C_20 
DOCKED: REMARK    4  A    between atoms: C_20  and  C_21 
DOCKED: REMARK    5  A    between atoms: C_21  and  N_22 
DOCKED: USER                              x       y       z     vdW  Elec       q    Type
DOCKED: USER                           _______ _______ _______ _____ _____    ______ ____
DOCKED: ROOT
DOCKED: ATOM      1  O   UNL     1     -61.785 -36.848   8.116 -0.01 -0.00    -0.346 OA 
DOCKED: ATOM      2  C   UNL     1     -60.339 -36.647   8.020 -0.11 +0.00    +0.130 C  
DOCKED: ATOM      3  C   UNL     1     -59.990 -37.181   6.661 -0.24 +0.00    +0.004 A  
DOCKED: ATOM      4  C   UNL     1     -61.149 -37.552   5.994 -0.26 +0.00    +0.006 A  
DOCKED: ATOM      5  C   UNL     1     -62.328 -37.282   6.847 -0.19 +0.00    +0.169 C  
DOCKED: ATOM      6  C   UNL     1     -58.748 -37.316   6.059 -0.34 -0.00    -0.001 A  
DOCKED: ATOM      7  C   UNL     1     -61.107 -38.072   4.711 -0.17 +0.00    +0.008 A  
DOCKED: ATOM      8  C   UNL     1     -58.688 -37.843   4.767 -0.40 +0.00    +0.010 A  
DOCKED: ATOM      9  C   UNL     1     -59.862 -38.218   4.097 -0.30 +0.00    +0.068 A  
DOCKED: ATOM     10  N   UNL     1     -59.717 -39.188   1.699 -2.44 -0.00    -0.191 NA 
DOCKED: ATOM     11  C   UNL     1     -59.782 -38.754   2.775 -0.28 +0.00    +0.101 C  
DOCKED: ENDROOT
DOCKED: BRANCH   2  12
DOCKED: ATOM     12  C   UNL     1     -60.048 -35.158   8.166 -0.13 +0.00    +0.038 C  
DOCKED: BRANCH  12  13
DOCKED: ATOM     13  C   UNL     1     -61.265 -34.402   8.694 -0.09 +0.00    +0.038 C  
DOCKED: BRANCH  13  14
DOCKED: ATOM     14  C   UNL     1     -60.860 -33.380   9.754 -0.01 +0.00    +0.251 C  
DOCKED: BRANCH  14  15
DOCKED: ATOM     15  N   UNL     1     -59.487 -33.615  10.186 -0.01 +0.00    +0.141 N  
DOCKED: ATOM     16  C   UNL     1     -58.650 -32.448   9.901 -0.00 +0.00    +0.285 C  
DOCKED: ATOM     17  C   UNL     1     -59.443 -33.934  11.614 -0.00 +0.00    +0.285 C  
DOCKED: ENDBRANCH  14  15
DOCKED: ENDBRANCH  13  14
DOCKED: ENDBRANCH  12  13
DOCKED: ENDBRANCH   2  12
DOCKED: BRANCH   2  18
DOCKED: ATOM     18  C   UNL     1     -59.716 -37.428   9.129 -0.09 +0.00    +0.006 A  
DOCKED: ATOM     19  C   UNL     1     -59.645 -36.884  10.411 -0.05 +0.00    +0.001 A  
DOCKED: ATOM     20  C   UNL     1     -59.062 -37.615  11.446 -0.05 +0.00    +0.029 A  
DOCKED: ATOM     21  C   UNL     1     -58.552 -38.889  11.199 -0.11 +0.00    +0.140 A  
DOCKED: ATOM     22  C   UNL     1     -58.623 -39.433   9.917 -0.18 +0.00    +0.029 A  
DOCKED: ATOM     23  F   UNL     1     -57.994 -39.592  12.193 -0.04 -0.00    -0.204 F  
DOCKED: ATOM     24  C   UNL     1     -59.206 -38.702   8.880 -0.19 +0.00    +0.001 A  
DOCKED: ENDBRANCH   2  18
DOCKED: TORSDOF 5
DOCKED: TER
DOCKED: ENDMDL
________________________________________________________________________________


    FINAL DOCKED STATE:
    ________________________


Run:   446 / 512
Time taken for this run:   0.002s

DOCKED: MODEL        446
DOCKED: USER    Run = 446
DOCKED: USER
DOCKED: USER    Estimated Free Energy of Binding    =  -5.25 kcal/mol  [=(1)+(2)+(3)-(4)]
DOCKED: USER
DOCKED: USER    (1) Final Intermolecular Energy     =  -6.74 kcal/mol
DOCKED: USER        vdW + Hbond + desolv Energy     =  -6.74 kcal/mol
DOCKED: USER        Electrostatic Energy            =  +0.00 kcal/mol
DOCKED: USER        Moving Ligand-Fixed Receptor    =  -6.74 kcal/mol
DOCKED: USER        Moving Ligand-Moving Receptor   =  +0.00 kcal/mol
DOCKED: USER    (2) Final Total Internal Energy     =  -1.16 kcal/mol
DOCKED: USER    (3) Torsional Free Energy           =  +1.49 kcal/mol
DOCKED: USER    (4) Unbound System's Energy         =  -1.16 kcal/mol
DOCKED: USER
DOCKED: USER
DOCKED: REMARK  5 active torsions:
DOCKED: REMARK  status: ('A' for Active; 'I' for Inactive)
DOCKED: REMARK    1  A    between atoms: C_2  and  C_19 
DOCKED: REMARK    2  A    between atoms: C_2  and  C_11 
DOCKED: REMARK    3  A    between atoms: C_19  and  C_20 
DOCKED: REMARK    4  A    between atoms: C_20  and  C_21 
DOCKED: REMARK    5  A    between atoms: C_21  and  N_22 
DOCKED: USER                              x       y       z     vdW  Elec       q    Type
DOCKED: USER                           _______ _______ _______ _____ _____    ______ ____
DOCKED: ROOT
DOCKED: ATOM      1  O   UNL     1     -61.843 -38.782   8.238 -0.09 -0.00    -0.346 OA 
DOCKED: ATOM      2  C   UNL     1     -60.740 -37.823   8.169 -0.12 +0.00    +0.130 C  
DOCKED: ATOM      3  C   UNL     1     -60.327 -37.854   6.726 -0.24 +0.00    +0.004 A  
DOCKED: ATOM      4  C   UNL     1     -61.188 -38.675   6.011 -0.29 +0.00    +0.006 A  
DOCKED: ATOM      5  C   UNL     1     -62.223 -39.225   6.915 -0.05 +0.00    +0.169 C  
DOCKED: ATOM      6  C   UNL     1     -59.279 -37.200   6.094 -0.31 -0.00    -0.001 A  
DOCKED: ATOM      7  C   UNL     1     -61.031 -38.872   4.650 -0.28 +0.00    +0.008 A  
DOCKED: ATOM      8  C   UNL     1     -59.105 -37.393   4.722 -0.19 +0.00    +0.010 A  
DOCKED: ATOM      9  C   UNL     1     -59.977 -38.224   4.004 -0.24 +0.00    +0.068 A  
DOCKED: ATOM     10  N   UNL     1     -59.629 -38.556   1.458 -2.88 -0.00    -0.191 NA 
DOCKED: ATOM     11  C   UNL     1     -59.785 -38.408   2.600 -0.27 +0.00    +0.101 C  
DOCKED: ENDROOT
DOCKED: BRANCH   2  12
DOCKED: ATOM     12  C   UNL     1     -61.259 -36.458   8.608 -0.11 +0.00    +0.038 C  
DOCKED: BRANCH  12  13
DOCKED: ATOM     13  C   UNL     1     -60.129 -35.433   8.689 -0.09 +0.00    +0.038 C  
DOCKED: BRANCH  13  14
DOCKED: ATOM     14  C   UNL     1     -60.539 -34.112   8.041 -0.08 +0.00    +0.251 C  
DOCKED: BRANCH  14  15
DOCKED: ATOM     15  N   UNL     1     -59.747 -33.868   6.841 -0.20 +0.00    +0.141 N  
DOCKED: ATOM     16  C   UNL     1     -59.978 -32.513   6.337 -0.13 +0.00    +0.285 C  
DOCKED: ATOM     17  C   UNL     1     -58.323 -34.072   7.113 -0.13 +0.00    +0.285 C  
DOCKED: ENDBRANCH  14  15
DOCKED: ENDBRANCH  13  14
DOCKED: ENDBRANCH  12  13
DOCKED: ENDBRANCH   2  12
DOCKED: BRANCH   2  18
DOCKED: ATOM     18  C   UNL     1     -59.675 -38.316   9.090 -0.15 +0.00    +0.006 A  
DOCKED: ATOM     19  C   UNL     1     -59.791 -38.110  10.464 -0.10 +0.00    +0.001 A  
DOCKED: ATOM     20  C   UNL     1     -58.794 -38.571  11.324 -0.12 +0.00    +0.029 A  
DOCKED: ATOM     21  C   UNL     1     -57.683 -39.237  10.810 -0.17 +0.00    +0.140 A  
DOCKED: ATOM     22  C   UNL     1     -57.567 -39.443   9.435 -0.19 +0.00    +0.029 A  
DOCKED: ATOM     23  F   UNL     1     -56.726 -39.681  11.636 -0.08 -0.00    -0.204 F  
DOCKED: ATOM     24  C   UNL     1     -58.563 -38.981   8.574 -0.25 +0.00    +0.001 A  
DOCKED: ENDBRANCH   2  18
DOCKED: TORSDOF 5
DOCKED: TER
DOCKED: ENDMDL
________________________________________________________________________________


    FINAL DOCKED STATE:
    ________________________


Run:   447 / 512
Time taken for this run:   0.002s

DOCKED: MODEL        447
DOCKED: USER    Run = 447
DOCKED: USER
DOCKED: USER    Estimated Free Energy of Binding    =  -3.90 kcal/mol  [=(1)+(2)+(3)-(4)]
DOCKED: USER
DOCKED: USER    (1) Final Intermolecular Energy     =  -5.39 kcal/mol
DOCKED: USER        vdW + Hbond + desolv Energy     =  -5.39 kcal/mol
DOCKED: USER        Electrostatic Energy            =  +0.00 kcal/mol
DOCKED: USER        Moving Ligand-Fixed Receptor    =  -5.39 kcal/mol
DOCKED: USER        Moving Ligand-Moving Receptor   =  +0.00 kcal/mol
DOCKED: USER    (2) Final Total Internal Energy     =  -1.07 kcal/mol
DOCKED: USER    (3) Torsional Free Energy           =  +1.49 kcal/mol
DOCKED: USER    (4) Unbound System's Energy         =  -1.07 kcal/mol
DOCKED: USER
DOCKED: USER
DOCKED: REMARK  5 active torsions:
DOCKED: REMARK  status: ('A' for Active; 'I' for Inactive)
DOCKED: REMARK    1  A    between atoms: C_2  and  C_19 
DOCKED: REMARK    2  A    between atoms: C_2  and  C_11 
DOCKED: REMARK    3  A    between atoms: C_19  and  C_20 
DOCKED: REMARK    4  A    between atoms: C_20  and  C_21 
DOCKED: REMARK    5  A    between atoms: C_21  and  N_22 
DOCKED: USER                              x       y       z     vdW  Elec       q    Type
DOCKED: USER                           _______ _______ _______ _____ _____    ______ ____
DOCKED: ROOT
DOCKED: ATOM      1  O   UNL     1     -50.874 -34.093   3.203 -0.01 -0.00    -0.346 OA 
DOCKED: ATOM      2  C   UNL     1     -51.900 -34.460   2.226 -0.08 +0.00    +0.130 C  
DOCKED: ATOM      3  C   UNL     1     -52.038 -35.946   2.391 -0.19 +0.00    +0.004 A  
DOCKED: ATOM      4  C   UNL     1     -51.244 -36.375   3.445 -0.16 +0.00    +0.006 A  
DOCKED: ATOM      5  C   UNL     1     -50.545 -35.219   4.050 -0.06 +0.00    +0.169 C  
DOCKED: ATOM      6  C   UNL     1     -52.814 -36.844   1.673 -0.32 -0.00    -0.001 A  
DOCKED: ATOM      7  C   UNL     1     -51.194 -37.708   3.813 -0.22 +0.00    +0.008 A  
DOCKED: ATOM      8  C   UNL     1     -52.771 -38.193   2.029 -0.28 +0.00    +0.010 A  
DOCKED: ATOM      9  C   UNL     1     -51.966 -38.623   3.094 -0.28 +0.00    +0.068 A  
DOCKED: ATOM     10  N   UNL     1     -51.913 -41.133   3.733 -2.22 -0.00    -0.191 NA 
DOCKED: ATOM     11  C   UNL     1     -51.936 -40.007   3.446 -0.40 +0.00    +0.101 C  
DOCKED: ENDROOT
DOCKED: BRANCH   2  12
DOCKED: ATOM     12  C   UNL     1     -53.179 -33.704   2.562 -0.14 +0.00    +0.038 C  
DOCKED: BRANCH  12  13
DOCKED: ATOM     13  C   UNL     1     -53.475 -32.621   1.525 -0.11 +0.00    +0.038 C  
DOCKED: BRANCH  13  14
DOCKED: ATOM     14  C   UNL     1     -54.742 -32.947   0.736 -0.16 +0.00    +0.251 C  
DOCKED: BRANCH  14  15
DOCKED: ATOM     15  N   UNL     1     -54.947 -31.965  -0.321 -0.18 +0.00    +0.141 N  
DOCKED: ATOM     16  C   UNL     1     -55.694 -30.812   0.183 -0.16 +0.00    +0.285 C  
DOCKED: ATOM     17  C   UNL     1     -53.665 -31.533  -0.881 -0.11 +0.00    +0.285 C  
DOCKED: ENDBRANCH  14  15
DOCKED: ENDBRANCH  13  14
DOCKED: ENDBRANCH  12  13
DOCKED: ENDBRANCH   2  12
DOCKED: BRANCH   2  18
DOCKED: ATOM     18  C   UNL     1     -51.381 -34.070   0.882 -0.05 +0.00    +0.006 A  
DOCKED: ATOM     19  C   UNL     1     -51.929 -34.637  -0.268 -0.14 +0.00    +0.001 A  
DOCKED: ATOM     20  C   UNL     1     -51.443 -34.271  -1.524 -0.11 +0.00    +0.029 A  
DOCKED: ATOM     21  C   UNL     1     -50.410 -33.340  -1.628 -0.01 +0.00    +0.140 A  
DOCKED: ATOM     22  C   UNL     1     -49.863 -32.774  -0.477 -0.00 +0.00    +0.029 A  
DOCKED: ATOM     23  F   UNL     1     -49.945 -32.989  -2.834 +0.00 -0.00    -0.204 F  
DOCKED: ATOM     24  C   UNL     1     -50.348 -33.139   0.779 -0.01 +0.00    +0.001 A  
DOCKED: ENDBRANCH   2  18
DOCKED: TORSDOF 5
DOCKED: TER
DOCKED: ENDMDL
________________________________________________________________________________


    FINAL DOCKED STATE:
    ________________________


Run:   448 / 512
Time taken for this run:   0.002s

DOCKED: MODEL        448
DOCKED: USER    Run = 448
DOCKED: USER
DOCKED: USER    Estimated Free Energy of Binding    =  -3.60 kcal/mol  [=(1)+(2)+(3)-(4)]
DOCKED: USER
DOCKED: USER    (1) Final Intermolecular Energy     =  -5.09 kcal/mol
DOCKED: USER        vdW + Hbond + desolv Energy     =  -5.09 kcal/mol
DOCKED: USER        Electrostatic Energy            =  +0.00 kcal/mol
DOCKED: USER        Moving Ligand-Fixed Receptor    =  -5.09 kcal/mol
DOCKED: USER        Moving Ligand-Moving Receptor   =  +0.00 kcal/mol
DOCKED: USER    (2) Final Total Internal Energy     =  -1.32 kcal/mol
DOCKED: USER    (3) Torsional Free Energy           =  +1.49 kcal/mol
DOCKED: USER    (4) Unbound System's Energy         =  -1.32 kcal/mol
DOCKED: USER
DOCKED: USER
DOCKED: REMARK  5 active torsions:
DOCKED: REMARK  status: ('A' for Active; 'I' for Inactive)
DOCKED: REMARK    1  A    between atoms: C_2  and  C_19 
DOCKED: REMARK    2  A    between atoms: C_2  and  C_11 
DOCKED: REMARK    3  A    between atoms: C_19  and  C_20 
DOCKED: REMARK    4  A    between atoms: C_20  and  C_21 
DOCKED: REMARK    5  A    between atoms: C_21  and  N_22 
DOCKED: USER                              x       y       z     vdW  Elec       q    Type
DOCKED: USER                           _______ _______ _______ _____ _____    ______ ____
DOCKED: ROOT
DOCKED: ATOM      1  O   UNL     1     -51.252 -25.453  -1.129 -0.05 -0.00    -0.346 OA 
DOCKED: ATOM      2  C   UNL     1     -50.867 -25.263  -2.528 -0.07 +0.00    +0.130 C  
DOCKED: ATOM      3  C   UNL     1     -52.095 -25.657  -3.297 -0.14 +0.00    +0.004 A  
DOCKED: ATOM      4  C   UNL     1     -53.127 -25.941  -2.414 -0.24 +0.00    +0.006 A  
DOCKED: ATOM      5  C   UNL     1     -52.665 -25.745  -1.021 -0.01 +0.00    +0.169 C  
DOCKED: ATOM      6  C   UNL     1     -52.286 -25.746  -4.668 -0.17 -0.00    -0.001 A  
DOCKED: ATOM      7  C   UNL     1     -54.378 -26.325  -2.867 -0.31 +0.00    +0.008 A  
DOCKED: ATOM      8  C   UNL     1     -53.541 -26.137  -5.140 -0.26 +0.00    +0.010 A  
DOCKED: ATOM      9  C   UNL     1     -54.581 -26.424  -4.244 -0.33 +0.00    +0.068 A  
DOCKED: ATOM     10  N   UNL     1     -56.898 -27.141  -5.154 -2.37 -0.00    -0.191 NA 
DOCKED: ATOM     11  C   UNL     1     -55.859 -26.820  -4.746 -0.43 +0.00    +0.101 C  
DOCKED: ENDROOT
DOCKED: BRANCH   2  12
DOCKED: ATOM     12  C   UNL     1     -50.484 -23.802  -2.729 -0.10 +0.00    +0.038 C  
DOCKED: BRANCH  12  13
DOCKED: ATOM     13  C   UNL     1     -50.121 -23.134  -1.404 -0.05 +0.00    +0.038 C  
DOCKED: BRANCH  13  14
DOCKED: ATOM     14  C   UNL     1     -51.344 -22.474  -0.769 -0.05 +0.00    +0.251 C  
DOCKED: BRANCH  14  15
DOCKED: ATOM     15  N   UNL     1     -52.456 -22.453  -1.711 -0.15 +0.00    +0.141 N  
DOCKED: ATOM     16  C   UNL     1     -53.734 -22.544  -1.002 -0.22 +0.00    +0.285 C  
DOCKED: ATOM     17  C   UNL     1     -52.416 -21.241  -2.530 -0.06 +0.00    +0.285 C  
DOCKED: ENDBRANCH  14  15
DOCKED: ENDBRANCH  13  14
DOCKED: ENDBRANCH  12  13
DOCKED: ENDBRANCH   2  12
DOCKED: BRANCH   2  18
DOCKED: ATOM     18  C   UNL     1     -49.705 -26.164  -2.786 -0.03 +0.00    +0.006 A  
DOCKED: ATOM     19  C   UNL     1     -49.077 -26.813  -1.724 -0.02 +0.00    +0.001 A  
DOCKED: ATOM     20  C   UNL     1     -47.991 -27.655  -1.967 -0.00 +0.00    +0.029 A  
DOCKED: ATOM     21  C   UNL     1     -47.535 -27.846  -3.270 -0.00 +0.00    +0.140 A  
DOCKED: ATOM     22  C   UNL     1     -48.164 -27.197  -4.332 -0.00 +0.00    +0.029 A  
DOCKED: ATOM     23  F   UNL     1     -46.494 -28.656  -3.503 +0.00 -0.00    -0.204 F  
DOCKED: ATOM     24  C   UNL     1     -49.250 -26.354  -4.091 -0.02 +0.00    +0.001 A  
DOCKED: ENDBRANCH   2  18
DOCKED: TORSDOF 5
DOCKED: TER
DOCKED: ENDMDL
________________________________________________________________________________


    FINAL DOCKED STATE:
    ________________________


Run:   449 / 512
Time taken for this run:   0.002s

DOCKED: MODEL        449
DOCKED: USER    Run = 449
DOCKED: USER
DOCKED: USER    Estimated Free Energy of Binding    =  -4.57 kcal/mol  [=(1)+(2)+(3)-(4)]
DOCKED: USER
DOCKED: USER    (1) Final Intermolecular Energy     =  -6.06 kcal/mol
DOCKED: USER        vdW + Hbond + desolv Energy     =  -6.06 kcal/mol
DOCKED: USER        Electrostatic Energy            =  +0.00 kcal/mol
DOCKED: USER        Moving Ligand-Fixed Receptor    =  -6.06 kcal/mol
DOCKED: USER        Moving Ligand-Moving Receptor   =  +0.00 kcal/mol
DOCKED: USER    (2) Final Total Internal Energy     =  -1.27 kcal/mol
DOCKED: USER    (3) Torsional Free Energy           =  +1.49 kcal/mol
DOCKED: USER    (4) Unbound System's Energy         =  -1.27 kcal/mol
DOCKED: USER
DOCKED: USER
DOCKED: REMARK  5 active torsions:
DOCKED: REMARK  status: ('A' for Active; 'I' for Inactive)
DOCKED: REMARK    1  A    between atoms: C_2  and  C_19 
DOCKED: REMARK    2  A    between atoms: C_2  and  C_11 
DOCKED: REMARK    3  A    between atoms: C_19  and  C_20 
DOCKED: REMARK    4  A    between atoms: C_20  and  C_21 
DOCKED: REMARK    5  A    between atoms: C_21  and  N_22 
DOCKED: USER                              x       y       z     vdW  Elec       q    Type
DOCKED: USER                           _______ _______ _______ _____ _____    ______ ____
DOCKED: ROOT
DOCKED: ATOM      1  O   UNL     1     -57.055 -38.625   8.793 -0.09 -0.00    -0.346 OA 
DOCKED: ATOM      2  C   UNL     1     -57.127 -37.277   8.228 -0.19 +0.00    +0.130 C  
DOCKED: ATOM      3  C   UNL     1     -57.689 -37.493   6.852 -0.30 +0.00    +0.004 A  
DOCKED: ATOM      4  C   UNL     1     -58.013 -38.832   6.686 -0.38 +0.00    +0.006 A  
DOCKED: ATOM      5  C   UNL     1     -57.706 -39.582   7.924 -0.24 +0.00    +0.169 C  
DOCKED: ATOM      6  C   UNL     1     -57.906 -36.576   5.834 -0.28 -0.00    -0.001 A  
DOCKED: ATOM      7  C   UNL     1     -58.558 -39.299   5.502 -0.44 +0.00    +0.008 A  
DOCKED: ATOM      8  C   UNL     1     -58.451 -37.032   4.633 -0.01 +0.00    +0.010 A  
DOCKED: ATOM      9  C   UNL     1     -58.776 -38.387   4.468 -0.40 +0.00    +0.068 A  
DOCKED: ATOM     10  N   UNL     1     -59.790 -39.200   2.227 -2.14 -0.00    -0.191 NA 
DOCKED: ATOM     11  C   UNL     1     -59.335 -38.836   3.232 -0.51 +0.00    +0.101 C  
DOCKED: ENDROOT
DOCKED: BRANCH   2  12
DOCKED: ATOM     12  C   UNL     1     -58.035 -36.431   9.113 -0.09 +0.00    +0.038 C  
DOCKED: BRANCH  12  13
DOCKED: ATOM     13  C   UNL     1     -58.298 -37.112  10.454 -0.07 +0.00    +0.038 C  
DOCKED: BRANCH  13  14
DOCKED: ATOM     14  C   UNL     1     -57.896 -36.209  11.618 -0.01 +0.00    +0.251 C  
DOCKED: BRANCH  14  15
DOCKED: ATOM     15  N   UNL     1     -57.281 -36.994  12.682 -0.02 +0.00    +0.141 N  
DOCKED: ATOM     16  C   UNL     1     -57.328 -38.422  12.362 -0.06 +0.00    +0.285 C  
DOCKED: ATOM     17  C   UNL     1     -55.898 -36.569  12.903 -0.01 +0.00    +0.285 C  
DOCKED: ENDBRANCH  14  15
DOCKED: ENDBRANCH  13  14
DOCKED: ENDBRANCH  12  13
DOCKED: ENDBRANCH   2  12
DOCKED: BRANCH   2  18
DOCKED: ATOM     18  C   UNL     1     -55.736 -36.736   8.210 -0.19 +0.00    +0.006 A  
DOCKED: ATOM     19  C   UNL     1     -55.523 -35.368   8.048 -0.14 +0.00    +0.001 A  
DOCKED: ATOM     20  C   UNL     1     -54.222 -34.864   8.031 -0.10 +0.00    +0.029 A  
DOCKED: ATOM     21  C   UNL     1     -53.137 -35.728   8.176 -0.09 +0.00    +0.140 A  
DOCKED: ATOM     22  C   UNL     1     -53.352 -37.097   8.339 -0.17 +0.00    +0.029 A  
DOCKED: ATOM     23  F   UNL     1     -51.889 -35.244   8.162 -0.01 -0.00    -0.204 F  
DOCKED: ATOM     24  C   UNL     1     -54.653 -37.602   8.355 -0.14 +0.00    +0.001 A  
DOCKED: ENDBRANCH   2  18
DOCKED: TORSDOF 5
DOCKED: TER
DOCKED: ENDMDL
________________________________________________________________________________


    FINAL DOCKED STATE:
    ________________________


Run:   450 / 512
Time taken for this run:   0.002s

DOCKED: MODEL        450
DOCKED: USER    Run = 450
DOCKED: USER
DOCKED: USER    Estimated Free Energy of Binding    =  -3.69 kcal/mol  [=(1)+(2)+(3)-(4)]
DOCKED: USER
DOCKED: USER    (1) Final Intermolecular Energy     =  -5.18 kcal/mol
DOCKED: USER        vdW + Hbond + desolv Energy     =  -5.18 kcal/mol
DOCKED: USER        Electrostatic Energy            =  +0.00 kcal/mol
DOCKED: USER        Moving Ligand-Fixed Receptor    =  -5.18 kcal/mol
DOCKED: USER        Moving Ligand-Moving Receptor   =  +0.00 kcal/mol
DOCKED: USER    (2) Final Total Internal Energy     =  -1.31 kcal/mol
DOCKED: USER    (3) Torsional Free Energy           =  +1.49 kcal/mol
DOCKED: USER    (4) Unbound System's Energy         =  -1.31 kcal/mol
DOCKED: USER
DOCKED: USER
DOCKED: REMARK  5 active torsions:
DOCKED: REMARK  status: ('A' for Active; 'I' for Inactive)
DOCKED: REMARK    1  A    between atoms: C_2  and  C_19 
DOCKED: REMARK    2  A    between atoms: C_2  and  C_11 
DOCKED: REMARK    3  A    between atoms: C_19  and  C_20 
DOCKED: REMARK    4  A    between atoms: C_20  and  C_21 
DOCKED: REMARK    5  A    between atoms: C_21  and  N_22 
DOCKED: USER                              x       y       z     vdW  Elec       q    Type
DOCKED: USER                           _______ _______ _______ _____ _____    ______ ____
DOCKED: ROOT
DOCKED: ATOM      1  O   UNL     1     -58.873 -34.374   9.021 -0.00 -0.00    -0.346 OA 
DOCKED: ATOM      2  C   UNL     1     -57.899 -34.401   7.929 -0.11 +0.00    +0.130 C  
DOCKED: ATOM      3  C   UNL     1     -58.186 -35.694   7.222 -0.22 +0.00    +0.004 A  
DOCKED: ATOM      4  C   UNL     1     -59.297 -36.301   7.791 -0.15 +0.00    +0.006 A  
DOCKED: ATOM      5  C   UNL     1     -59.823 -35.458   8.888 -0.05 +0.00    +0.169 C  
DOCKED: ATOM      6  C   UNL     1     -57.523 -36.282   6.154 -0.23 -0.00    -0.001 A  
DOCKED: ATOM      7  C   UNL     1     -59.779 -37.509   7.319 -0.19 +0.00    +0.008 A  
DOCKED: ATOM      8  C   UNL     1     -57.995 -37.503   5.669 -0.31 +0.00    +0.010 A  
DOCKED: ATOM      9  C   UNL     1     -59.118 -38.113   6.248 -0.27 +0.00    +0.068 A  
DOCKED: ATOM     10  N   UNL     1     -59.970 -40.377   5.320 -2.44 -0.00    -0.191 NA 
DOCKED: ATOM     11  C   UNL     1     -59.587 -39.362   5.737 -0.32 +0.00    +0.101 C  
DOCKED: ENDROOT
DOCKED: BRANCH   2  12
DOCKED: ATOM     12  C   UNL     1     -58.129 -33.179   7.047 -0.16 +0.00    +0.038 C  
DOCKED: BRANCH  12  13
DOCKED: ATOM     13  C   UNL     1     -59.302 -32.342   7.551 -0.12 +0.00    +0.038 C  
DOCKED: BRANCH  13  14
DOCKED: ATOM     14  C   UNL     1     -60.588 -32.692   6.804 -0.16 +0.00    +0.251 C  
DOCKED: BRANCH  14  15
DOCKED: ATOM     15  N   UNL     1     -61.748 -32.473   7.661 -0.09 +0.00    +0.141 N  
DOCKED: ATOM     16  C   UNL     1     -62.397 -33.744   7.986 -0.07 +0.00    +0.285 C  
DOCKED: ATOM     17  C   UNL     1     -61.359 -31.773   8.886 -0.01 +0.00    +0.285 C  
DOCKED: ENDBRANCH  14  15
DOCKED: ENDBRANCH  13  14
DOCKED: ENDBRANCH  12  13
DOCKED: ENDBRANCH   2  12
DOCKED: BRANCH   2  18
DOCKED: ATOM     18  C   UNL     1     -56.543 -34.367   8.553 -0.07 +0.00    +0.006 A  
DOCKED: ATOM     19  C   UNL     1     -56.090 -35.459   9.292 -0.07 +0.00    +0.001 A  
DOCKED: ATOM     20  C   UNL     1     -54.822 -35.426   9.875 -0.05 +0.00    +0.029 A  
DOCKED: ATOM     21  C   UNL     1     -54.011 -34.303   9.718 -0.02 +0.00    +0.140 A  
DOCKED: ATOM     22  C   UNL     1     -54.466 -33.212   8.978 -0.02 +0.00    +0.029 A  
DOCKED: ATOM     23  F   UNL     1     -52.794 -34.273  10.276 +0.00 -0.00    -0.204 F  
DOCKED: ATOM     24  C   UNL     1     -55.734 -33.244   8.394 -0.05 +0.00    +0.001 A  
DOCKED: ENDBRANCH   2  18
DOCKED: TORSDOF 5
DOCKED: TER
DOCKED: ENDMDL
________________________________________________________________________________


    FINAL DOCKED STATE:
    ________________________


Run:   451 / 512
Time taken for this run:   0.002s

DOCKED: MODEL        451
DOCKED: USER    Run = 451
DOCKED: USER
DOCKED: USER    Estimated Free Energy of Binding    =  -5.33 kcal/mol  [=(1)+(2)+(3)-(4)]
DOCKED: USER
DOCKED: USER    (1) Final Intermolecular Energy     =  -6.82 kcal/mol
DOCKED: USER        vdW + Hbond + desolv Energy     =  -6.82 kcal/mol
DOCKED: USER        Electrostatic Energy            =  +0.00 kcal/mol
DOCKED: USER        Moving Ligand-Fixed Receptor    =  -6.82 kcal/mol
DOCKED: USER        Moving Ligand-Moving Receptor   =  +0.00 kcal/mol
DOCKED: USER    (2) Final Total Internal Energy     =  -0.83 kcal/mol
DOCKED: USER    (3) Torsional Free Energy           =  +1.49 kcal/mol
DOCKED: USER    (4) Unbound System's Energy         =  -0.83 kcal/mol
DOCKED: USER
DOCKED: USER
DOCKED: REMARK  5 active torsions:
DOCKED: REMARK  status: ('A' for Active; 'I' for Inactive)
DOCKED: REMARK    1  A    between atoms: C_2  and  C_19 
DOCKED: REMARK    2  A    between atoms: C_2  and  C_11 
DOCKED: REMARK    3  A    between atoms: C_19  and  C_20 
DOCKED: REMARK    4  A    between atoms: C_20  and  C_21 
DOCKED: REMARK    5  A    between atoms: C_21  and  N_22 
DOCKED: USER                              x       y       z     vdW  Elec       q    Type
DOCKED: USER                           _______ _______ _______ _____ _____    ______ ____
DOCKED: ROOT
DOCKED: ATOM      1  O   UNL     1     -56.675 -39.134   8.148 -0.11 -0.00    -0.346 OA 
DOCKED: ATOM      2  C   UNL     1     -57.126 -37.759   7.931 -0.23 +0.00    +0.130 C  
DOCKED: ATOM      3  C   UNL     1     -57.755 -37.798   6.569 -0.33 +0.00    +0.004 A  
DOCKED: ATOM      4  C   UNL     1     -57.763 -39.102   6.095 -0.42 +0.00    +0.006 A  
DOCKED: ATOM      5  C   UNL     1     -57.160 -40.006   7.101 -0.21 +0.00    +0.169 C  
DOCKED: ATOM      6  C   UNL     1     -58.289 -36.764   5.814 -0.33 -0.00    -0.001 A  
DOCKED: ATOM      7  C   UNL     1     -58.297 -39.416   4.857 -0.46 +0.00    +0.008 A  
DOCKED: ATOM      8  C   UNL     1     -58.827 -37.063   4.561 +0.15 +0.00    +0.010 A  
DOCKED: ATOM      9  C   UNL     1     -58.831 -38.383   4.085 -0.40 +0.00    +0.068 A  
DOCKED: ATOM     10  N   UNL     1     -59.842 -38.906   1.758 -2.78 -0.00    -0.191 NA 
DOCKED: ATOM     11  C   UNL     1     -59.388 -38.671   2.801 -0.44 +0.00    +0.101 C  
DOCKED: ENDROOT
DOCKED: BRANCH   2  12
DOCKED: ATOM     12  C   UNL     1     -58.116 -37.397   9.032 -0.14 +0.00    +0.038 C  
DOCKED: BRANCH  12  13
DOCKED: ATOM     13  C   UNL     1     -59.502 -37.105   8.461 -0.13 +0.00    +0.038 C  
DOCKED: BRANCH  13  14
DOCKED: ATOM     14  C   UNL     1     -59.834 -35.617   8.556 -0.04 +0.00    +0.251 C  
DOCKED: BRANCH  14  15
DOCKED: ATOM     15  N   UNL     1     -60.873 -35.392   9.554 -0.03 +0.00    +0.141 N  
DOCKED: ATOM     16  C   UNL     1     -60.554 -34.225  10.376 -0.00 +0.00    +0.285 C  
DOCKED: ATOM     17  C   UNL     1     -62.177 -35.219   8.911 -0.02 +0.00    +0.285 C  
DOCKED: ENDBRANCH  14  15
DOCKED: ENDBRANCH  13  14
DOCKED: ENDBRANCH  12  13
DOCKED: ENDBRANCH   2  12
DOCKED: BRANCH   2  18
DOCKED: ATOM     18  C   UNL     1     -55.915 -36.889   7.988 -0.20 +0.00    +0.006 A  
DOCKED: ATOM     19  C   UNL     1     -55.997 -35.555   7.588 -0.16 +0.00    +0.001 A  
DOCKED: ATOM     20  C   UNL     1     -54.863 -34.742   7.641 -0.12 +0.00    +0.029 A  
DOCKED: ATOM     21  C   UNL     1     -53.652 -35.263   8.094 -0.08 +0.00    +0.140 A  
DOCKED: ATOM     22  C   UNL     1     -53.572 -36.597   8.493 -0.15 +0.00    +0.029 A  
DOCKED: ATOM     23  F   UNL     1     -52.565 -34.482   8.146 -0.01 -0.00    -0.204 F  
DOCKED: ATOM     24  C   UNL     1     -54.704 -37.411   8.440 -0.18 +0.00    +0.001 A  
DOCKED: ENDBRANCH   2  18
DOCKED: TORSDOF 5
DOCKED: TER
DOCKED: ENDMDL
________________________________________________________________________________


    FINAL DOCKED STATE:
    ________________________


Run:   452 / 512
Time taken for this run:   0.002s

DOCKED: MODEL        452
DOCKED: USER    Run = 452
DOCKED: USER
DOCKED: USER    Estimated Free Energy of Binding    =  -3.97 kcal/mol  [=(1)+(2)+(3)-(4)]
DOCKED: USER
DOCKED: USER    (1) Final Intermolecular Energy     =  -5.46 kcal/mol
DOCKED: USER        vdW + Hbond + desolv Energy     =  -5.46 kcal/mol
DOCKED: USER        Electrostatic Energy            =  +0.00 kcal/mol
DOCKED: USER        Moving Ligand-Fixed Receptor    =  -5.46 kcal/mol
DOCKED: USER        Moving Ligand-Moving Receptor   =  +0.00 kcal/mol
DOCKED: USER    (2) Final Total Internal Energy     =  -1.45 kcal/mol
DOCKED: USER    (3) Torsional Free Energy           =  +1.49 kcal/mol
DOCKED: USER    (4) Unbound System's Energy         =  -1.45 kcal/mol
DOCKED: USER
DOCKED: USER
DOCKED: REMARK  5 active torsions:
DOCKED: REMARK  status: ('A' for Active; 'I' for Inactive)
DOCKED: REMARK    1  A    between atoms: C_2  and  C_19 
DOCKED: REMARK    2  A    between atoms: C_2  and  C_11 
DOCKED: REMARK    3  A    between atoms: C_19  and  C_20 
DOCKED: REMARK    4  A    between atoms: C_20  and  C_21 
DOCKED: REMARK    5  A    between atoms: C_21  and  N_22 
DOCKED: USER                              x       y       z     vdW  Elec       q    Type
DOCKED: USER                           _______ _______ _______ _____ _____    ______ ____
DOCKED: ROOT
DOCKED: ATOM      1  O   UNL     1     -48.960 -37.037  -1.083 +0.01 -0.00    -0.346 OA 
DOCKED: ATOM      2  C   UNL     1     -49.996 -36.174  -0.514 -0.06 +0.00    +0.130 C  
DOCKED: ATOM      3  C   UNL     1     -50.652 -37.037   0.525 -0.11 +0.00    +0.004 A  
DOCKED: ATOM      4  C   UNL     1     -49.980 -38.247   0.620 -0.10 +0.00    +0.006 A  
DOCKED: ATOM      5  C   UNL     1     -48.841 -38.264  -0.326 -0.03 +0.00    +0.169 C  
DOCKED: ATOM      6  C   UNL     1     -51.749 -36.767   1.330 -0.20 -0.00    -0.001 A  
DOCKED: ATOM      7  C   UNL     1     -50.380 -39.225   1.514 -0.19 +0.00    +0.008 A  
DOCKED: ATOM      8  C   UNL     1     -52.168 -37.746   2.234 -0.30 +0.00    +0.010 A  
DOCKED: ATOM      9  C   UNL     1     -51.486 -38.969   2.325 -0.29 +0.00    +0.068 A  
DOCKED: ATOM     10  N   UNL     1     -52.286 -40.761   4.016 -2.61 -0.00    -0.191 NA 
DOCKED: ATOM     11  C   UNL     1     -51.927 -39.958   3.257 -0.42 +0.00    +0.101 C  
DOCKED: ENDROOT
DOCKED: BRANCH   2  12
DOCKED: ATOM     12  C   UNL     1     -49.326 -34.940   0.077 -0.02 +0.00    +0.038 C  
DOCKED: BRANCH  12  13
DOCKED: ATOM     13  C   UNL     1     -48.970 -35.149   1.547 -0.02 +0.00    +0.038 C  
DOCKED: BRANCH  13  14
DOCKED: ATOM     14  C   UNL     1     -47.567 -35.733   1.696 -0.00 +0.00    +0.251 C  
DOCKED: BRANCH  14  15
DOCKED: ATOM     15  N   UNL     1     -47.457 -36.479   2.944 -0.01 +0.00    +0.141 N  
DOCKED: ATOM     16  C   UNL     1     -48.666 -36.312   3.753 -0.01 +0.00    +0.285 C  
DOCKED: ATOM     17  C   UNL     1     -47.218 -37.898   2.677 -0.00 +0.00    +0.285 C  
DOCKED: ENDBRANCH  14  15
DOCKED: ENDBRANCH  13  14
DOCKED: ENDBRANCH  12  13
DOCKED: ENDBRANCH   2  12
DOCKED: BRANCH   2  18
DOCKED: ATOM     18  C   UNL     1     -50.917 -35.805  -1.629 -0.12 +0.00    +0.006 A  
DOCKED: ATOM     19  C   UNL     1     -51.828 -34.762  -1.464 -0.16 +0.00    +0.001 A  
DOCKED: ATOM     20  C   UNL     1     -52.689 -34.419  -2.507 -0.20 +0.00    +0.029 A  
DOCKED: ATOM     21  C   UNL     1     -52.637 -35.117  -3.713 -0.19 +0.00    +0.140 A  
DOCKED: ATOM     22  C   UNL     1     -51.725 -36.159  -3.877 -0.15 +0.00    +0.029 A  
DOCKED: ATOM     23  F   UNL     1     -53.462 -34.785  -4.715 -0.14 -0.00    -0.204 F  
DOCKED: ATOM     24  C   UNL     1     -50.864 -36.505  -2.834 -0.13 +0.00    +0.001 A  
DOCKED: ENDBRANCH   2  18
DOCKED: TORSDOF 5
DOCKED: TER
DOCKED: ENDMDL
________________________________________________________________________________


    FINAL DOCKED STATE:
    ________________________


Run:   453 / 512
Time taken for this run:   0.002s

DOCKED: MODEL        453
DOCKED: USER    Run = 453
DOCKED: USER
DOCKED: USER    Estimated Free Energy of Binding    =  -4.15 kcal/mol  [=(1)+(2)+(3)-(4)]
DOCKED: USER
DOCKED: USER    (1) Final Intermolecular Energy     =  -5.64 kcal/mol
DOCKED: USER        vdW + Hbond + desolv Energy     =  -5.64 kcal/mol
DOCKED: USER        Electrostatic Energy            =  +0.00 kcal/mol
DOCKED: USER        Moving Ligand-Fixed Receptor    =  -5.64 kcal/mol
DOCKED: USER        Moving Ligand-Moving Receptor   =  +0.00 kcal/mol
DOCKED: USER    (2) Final Total Internal Energy     =  -1.34 kcal/mol
DOCKED: USER    (3) Torsional Free Energy           =  +1.49 kcal/mol
DOCKED: USER    (4) Unbound System's Energy         =  -1.34 kcal/mol
DOCKED: USER
DOCKED: USER
DOCKED: REMARK  5 active torsions:
DOCKED: REMARK  status: ('A' for Active; 'I' for Inactive)
DOCKED: REMARK    1  A    between atoms: C_2  and  C_19 
DOCKED: REMARK    2  A    between atoms: C_2  and  C_11 
DOCKED: REMARK    3  A    between atoms: C_19  and  C_20 
DOCKED: REMARK    4  A    between atoms: C_20  and  C_21 
DOCKED: REMARK    5  A    between atoms: C_21  and  N_22 
DOCKED: USER                              x       y       z     vdW  Elec       q    Type
DOCKED: USER                           _______ _______ _______ _____ _____    ______ ____
DOCKED: ROOT
DOCKED: ATOM      1  O   UNL     1     -56.158 -34.507   7.864 -0.05 -0.00    -0.346 OA 
DOCKED: ATOM      2  C   UNL     1     -57.575 -34.183   7.699 -0.12 +0.00    +0.130 C  
DOCKED: ATOM      3  C   UNL     1     -58.173 -35.446   7.152 -0.22 +0.00    +0.004 A  
DOCKED: ATOM      4  C   UNL     1     -57.205 -36.441   7.111 -0.25 +0.00    +0.006 A  
DOCKED: ATOM      5  C   UNL     1     -55.923 -35.916   7.632 -0.11 +0.00    +0.169 C  
DOCKED: ATOM      6  C   UNL     1     -59.471 -35.699   6.734 -0.23 -0.00    -0.001 A  
DOCKED: ATOM      7  C   UNL     1     -57.499 -37.713   6.650 -0.31 +0.00    +0.008 A  
DOCKED: ATOM      8  C   UNL     1     -59.782 -36.976   6.262 -0.25 +0.00    +0.010 A  
DOCKED: ATOM      9  C   UNL     1     -58.800 -37.978   6.221 -0.29 +0.00    +0.068 A  
DOCKED: ATOM     10  N   UNL     1     -59.411 -40.338   5.345 -2.59 -0.00    -0.191 NA 
DOCKED: ATOM     11  C   UNL     1     -59.137 -39.279   5.737 -0.36 +0.00    +0.101 C  
DOCKED: ENDROOT
DOCKED: BRANCH   2  12
DOCKED: ATOM     12  C   UNL     1     -58.143 -33.799   9.061 -0.04 +0.00    +0.038 C  
DOCKED: BRANCH  12  13
DOCKED: ATOM     13  C   UNL     1     -57.056 -33.256   9.985 -0.02 +0.00    +0.038 C  
DOCKED: BRANCH  13  14
DOCKED: ATOM     14  C   UNL     1     -56.942 -31.737   9.866 -0.00 +0.00    +0.251 C  
DOCKED: BRANCH  14  15
DOCKED: ATOM     15  N   UNL     1     -55.541 -31.335   9.826 -0.00 +0.00    +0.141 N  
DOCKED: ATOM     16  C   UNL     1     -55.278 -30.499   8.654 -0.00 +0.00    +0.285 C  
DOCKED: ATOM     17  C   UNL     1     -55.174 -30.621  11.051 +0.00 +0.00    +0.285 C  
DOCKED: ENDBRANCH  14  15
DOCKED: ENDBRANCH  13  14
DOCKED: ENDBRANCH  12  13
DOCKED: ENDBRANCH   2  12
DOCKED: BRANCH   2  18
DOCKED: ATOM     18  C   UNL     1     -57.653 -33.040   6.742 -0.15 +0.00    +0.006 A  
DOCKED: ATOM     19  C   UNL     1     -58.885 -32.449   6.462 -0.18 +0.00    +0.001 A  
DOCKED: ATOM     20  C   UNL     1     -58.956 -31.381   5.566 -0.14 +0.00    +0.029 A  
DOCKED: ATOM     21  C   UNL     1     -57.797 -30.906   4.954 -0.09 +0.00    +0.140 A  
DOCKED: ATOM     22  C   UNL     1     -56.566 -31.497   5.236 -0.08 +0.00    +0.029 A  
DOCKED: ATOM     23  F   UNL     1     -57.866 -29.880   4.096 -0.03 -0.00    -0.204 F  
DOCKED: ATOM     24  C   UNL     1     -56.494 -32.566   6.131 -0.12 +0.00    +0.001 A  
DOCKED: ENDBRANCH   2  18
DOCKED: TORSDOF 5
DOCKED: TER
DOCKED: ENDMDL
________________________________________________________________________________


    FINAL DOCKED STATE:
    ________________________


Run:   454 / 512
Time taken for this run:   0.002s

DOCKED: MODEL        454
DOCKED: USER    Run = 454
DOCKED: USER
DOCKED: USER    Estimated Free Energy of Binding    =  -4.50 kcal/mol  [=(1)+(2)+(3)-(4)]
DOCKED: USER
DOCKED: USER    (1) Final Intermolecular Energy     =  -5.99 kcal/mol
DOCKED: USER        vdW + Hbond + desolv Energy     =  -5.99 kcal/mol
DOCKED: USER        Electrostatic Energy            =  +0.00 kcal/mol
DOCKED: USER        Moving Ligand-Fixed Receptor    =  -5.99 kcal/mol
DOCKED: USER        Moving Ligand-Moving Receptor   =  +0.00 kcal/mol
DOCKED: USER    (2) Final Total Internal Energy     =  -1.39 kcal/mol
DOCKED: USER    (3) Torsional Free Energy           =  +1.49 kcal/mol
DOCKED: USER    (4) Unbound System's Energy         =  -1.39 kcal/mol
DOCKED: USER
DOCKED: USER
DOCKED: REMARK  5 active torsions:
DOCKED: REMARK  status: ('A' for Active; 'I' for Inactive)
DOCKED: REMARK    1  A    between atoms: C_2  and  C_19 
DOCKED: REMARK    2  A    between atoms: C_2  and  C_11 
DOCKED: REMARK    3  A    between atoms: C_19  and  C_20 
DOCKED: REMARK    4  A    between atoms: C_20  and  C_21 
DOCKED: REMARK    5  A    between atoms: C_21  and  N_22 
DOCKED: USER                              x       y       z     vdW  Elec       q    Type
DOCKED: USER                           _______ _______ _______ _____ _____    ______ ____
DOCKED: ROOT
DOCKED: ATOM      1  O   UNL     1     -57.244 -33.613   6.640 -0.08 -0.00    -0.346 OA 
DOCKED: ATOM      2  C   UNL     1     -58.541 -33.722   7.309 -0.15 +0.00    +0.130 C  
DOCKED: ATOM      3  C   UNL     1     -59.006 -35.109   6.970 -0.22 +0.00    +0.004 A  
DOCKED: ATOM      4  C   UNL     1     -58.014 -35.774   6.263 -0.26 +0.00    +0.006 A  
DOCKED: ATOM      5  C   UNL     1     -56.837 -34.891   6.098 -0.08 +0.00    +0.169 C  
DOCKED: ATOM      6  C   UNL     1     -60.206 -35.735   7.273 -0.20 -0.00    -0.001 A  
DOCKED: ATOM      7  C   UNL     1     -58.187 -37.078   5.833 -0.34 +0.00    +0.008 A  
DOCKED: ATOM      8  C   UNL     1     -60.397 -37.049   6.843 -0.22 +0.00    +0.010 A  
DOCKED: ATOM      9  C   UNL     1     -59.392 -37.717   6.127 -0.26 +0.00    +0.068 A  
DOCKED: ATOM     10  N   UNL     1     -59.778 -40.158   5.347 -2.56 -0.00    -0.191 NA 
DOCKED: ATOM     11  C   UNL     1     -59.605 -39.063   5.696 -0.36 +0.00    +0.101 C  
DOCKED: ENDROOT
DOCKED: BRANCH   2  12
DOCKED: ATOM     12  C   UNL     1     -58.331 -33.515   8.804 -0.05 +0.00    +0.038 C  
DOCKED: BRANCH  12  13
DOCKED: ATOM     13  C   UNL     1     -56.911 -33.041   9.107 -0.03 +0.00    +0.038 C  
DOCKED: BRANCH  13  14
DOCKED: ATOM     14  C   UNL     1     -56.145 -34.085   9.917 -0.01 +0.00    +0.251 C  
DOCKED: BRANCH  14  15
DOCKED: ATOM     15  N   UNL     1     -56.231 -35.390   9.273 -0.05 +0.00    +0.141 N  
DOCKED: ATOM     16  C   UNL     1     -54.902 -35.860   8.878 -0.08 +0.00    +0.285 C  
DOCKED: ATOM     17  C   UNL     1     -56.870 -36.363  10.161 -0.03 +0.00    +0.285 C  
DOCKED: ENDBRANCH  14  15
DOCKED: ENDBRANCH  13  14
DOCKED: ENDBRANCH  12  13
DOCKED: ENDBRANCH   2  12
DOCKED: BRANCH   2  18
DOCKED: ATOM     18  C   UNL     1     -59.418 -32.658   6.736 -0.19 +0.00    +0.006 A  
DOCKED: ATOM     19  C   UNL     1     -60.779 -32.642   7.036 -0.20 +0.00    +0.001 A  
DOCKED: ATOM     20  C   UNL     1     -61.598 -31.648   6.499 -0.17 +0.00    +0.029 A  
DOCKED: ATOM     21  C   UNL     1     -61.055 -30.671   5.666 -0.12 +0.00    +0.140 A  
DOCKED: ATOM     22  C   UNL     1     -59.692 -30.688   5.367 -0.16 +0.00    +0.029 A  
DOCKED: ATOM     23  F   UNL     1     -61.840 -29.716   5.152 -0.02 -0.00    -0.204 F  
DOCKED: ATOM     24  C   UNL     1     -58.873 -31.683   5.903 -0.16 +0.00    +0.001 A  
DOCKED: ENDBRANCH   2  18
DOCKED: TORSDOF 5
DOCKED: TER
DOCKED: ENDMDL
________________________________________________________________________________


    FINAL DOCKED STATE:
    ________________________


Run:   455 / 512
Time taken for this run:   0.002s

DOCKED: MODEL        455
DOCKED: USER    Run = 455
DOCKED: USER
DOCKED: USER    Estimated Free Energy of Binding    =  -3.60 kcal/mol  [=(1)+(2)+(3)-(4)]
DOCKED: USER
DOCKED: USER    (1) Final Intermolecular Energy     =  -5.09 kcal/mol
DOCKED: USER        vdW + Hbond + desolv Energy     =  -5.09 kcal/mol
DOCKED: USER        Electrostatic Energy            =  +0.00 kcal/mol
DOCKED: USER        Moving Ligand-Fixed Receptor    =  -5.09 kcal/mol
DOCKED: USER        Moving Ligand-Moving Receptor   =  +0.00 kcal/mol
DOCKED: USER    (2) Final Total Internal Energy     =  -1.32 kcal/mol
DOCKED: USER    (3) Torsional Free Energy           =  +1.49 kcal/mol
DOCKED: USER    (4) Unbound System's Energy         =  -1.32 kcal/mol
DOCKED: USER
DOCKED: USER
DOCKED: REMARK  5 active torsions:
DOCKED: REMARK  status: ('A' for Active; 'I' for Inactive)
DOCKED: REMARK    1  A    between atoms: C_2  and  C_19 
DOCKED: REMARK    2  A    between atoms: C_2  and  C_11 
DOCKED: REMARK    3  A    between atoms: C_19  and  C_20 
DOCKED: REMARK    4  A    between atoms: C_20  and  C_21 
DOCKED: REMARK    5  A    between atoms: C_21  and  N_22 
DOCKED: USER                              x       y       z     vdW  Elec       q    Type
DOCKED: USER                           _______ _______ _______ _____ _____    ______ ____
DOCKED: ROOT
DOCKED: ATOM      1  O   UNL     1     -52.066 -28.767  -0.484 -0.04 -0.00    -0.346 OA 
DOCKED: ATOM      2  C   UNL     1     -51.389 -28.258  -1.678 -0.05 +0.00    +0.130 C  
DOCKED: ATOM      3  C   UNL     1     -52.514 -27.910  -2.608 -0.11 +0.00    +0.004 A  
DOCKED: ATOM      4  C   UNL     1     -53.729 -28.099  -1.964 -0.19 +0.00    +0.006 A  
DOCKED: ATOM      5  C   UNL     1     -53.495 -28.565  -0.579 -0.03 +0.00    +0.169 C  
DOCKED: ATOM      6  C   UNL     1     -52.467 -27.452  -3.917 -0.11 -0.00    -0.001 A  
DOCKED: ATOM      7  C   UNL     1     -54.930 -27.843  -2.602 -0.32 +0.00    +0.008 A  
DOCKED: ATOM      8  C   UNL     1     -53.671 -27.194  -4.575 -0.25 +0.00    +0.010 A  
DOCKED: ATOM      9  C   UNL     1     -54.896 -27.388  -3.921 -0.33 +0.00    +0.068 A  
DOCKED: ATOM     10  N   UNL     1     -57.111 -26.894  -5.170 -2.55 -0.00    -0.191 NA 
DOCKED: ATOM     11  C   UNL     1     -56.118 -27.116  -4.610 -0.39 +0.00    +0.101 C  
DOCKED: ENDROOT
DOCKED: BRANCH   2  12
DOCKED: ATOM     12  C   UNL     1     -50.553 -27.047  -1.279 -0.07 +0.00    +0.038 C  
DOCKED: BRANCH  12  13
DOCKED: ATOM     13  C   UNL     1     -51.381 -26.034  -0.491 -0.15 +0.00    +0.038 C  
DOCKED: BRANCH  13  14
DOCKED: ATOM     14  C   UNL     1     -50.808 -24.625  -0.635 -0.08 +0.00    +0.251 C  
DOCKED: BRANCH  14  15
DOCKED: ATOM     15  N   UNL     1     -51.585 -23.857  -1.600 -0.10 +0.00    +0.141 N  
DOCKED: ATOM     16  C   UNL     1     -51.150 -24.152  -2.966 -0.06 +0.00    +0.285 C  
DOCKED: ATOM     17  C   UNL     1     -53.014 -24.138  -1.451 -0.20 +0.00    +0.285 C  
DOCKED: ENDBRANCH  14  15
DOCKED: ENDBRANCH  13  14
DOCKED: ENDBRANCH  12  13
DOCKED: ENDBRANCH   2  12
DOCKED: BRANCH   2  18
DOCKED: ATOM     18  C   UNL     1     -50.526 -29.361  -2.194 -0.01 +0.00    +0.006 A  
DOCKED: ATOM     19  C   UNL     1     -49.147 -29.319  -1.993 -0.01 +0.00    +0.001 A  
DOCKED: ATOM     20  C   UNL     1     -48.342 -30.351  -2.477 +0.00 +0.00    +0.029 A  
DOCKED: ATOM     21  C   UNL     1     -48.916 -31.422  -3.160 -0.00 +0.00    +0.140 A  
DOCKED: ATOM     22  C   UNL     1     -50.296 -31.463  -3.361 -0.01 +0.00    +0.029 A  
DOCKED: ATOM     23  F   UNL     1     -48.143 -32.413  -3.622 +0.00 -0.00    -0.204 F  
DOCKED: ATOM     24  C   UNL     1     -51.102 -30.431  -2.877 -0.02 +0.00    +0.001 A  
DOCKED: ENDBRANCH   2  18
DOCKED: TORSDOF 5
DOCKED: TER
DOCKED: ENDMDL
________________________________________________________________________________


    FINAL DOCKED STATE:
    ________________________


Run:   456 / 512
Time taken for this run:   0.002s

DOCKED: MODEL        456
DOCKED: USER    Run = 456
DOCKED: USER
DOCKED: USER    Estimated Free Energy of Binding    =  -4.82 kcal/mol  [=(1)+(2)+(3)-(4)]
DOCKED: USER
DOCKED: USER    (1) Final Intermolecular Energy     =  -6.31 kcal/mol
DOCKED: USER        vdW + Hbond + desolv Energy     =  -6.31 kcal/mol
DOCKED: USER        Electrostatic Energy            =  +0.00 kcal/mol
DOCKED: USER        Moving Ligand-Fixed Receptor    =  -6.31 kcal/mol
DOCKED: USER        Moving Ligand-Moving Receptor   =  +0.00 kcal/mol
DOCKED: USER    (2) Final Total Internal Energy     =  -1.07 kcal/mol
DOCKED: USER    (3) Torsional Free Energy           =  +1.49 kcal/mol
DOCKED: USER    (4) Unbound System's Energy         =  -1.07 kcal/mol
DOCKED: USER
DOCKED: USER
DOCKED: REMARK  5 active torsions:
DOCKED: REMARK  status: ('A' for Active; 'I' for Inactive)
DOCKED: REMARK    1  A    between atoms: C_2  and  C_19 
DOCKED: REMARK    2  A    between atoms: C_2  and  C_11 
DOCKED: REMARK    3  A    between atoms: C_19  and  C_20 
DOCKED: REMARK    4  A    between atoms: C_20  and  C_21 
DOCKED: REMARK    5  A    between atoms: C_21  and  N_22 
DOCKED: USER                              x       y       z     vdW  Elec       q    Type
DOCKED: USER                           _______ _______ _______ _____ _____    ______ ____
DOCKED: ROOT
DOCKED: ATOM      1  O   UNL     1     -55.399 -36.025   8.730 -0.06 -0.00    -0.346 OA 
DOCKED: ATOM      2  C   UNL     1     -56.251 -35.189   7.884 -0.14 +0.00    +0.130 C  
DOCKED: ATOM      3  C   UNL     1     -57.084 -36.179   7.122 -0.23 +0.00    +0.004 A  
DOCKED: ATOM      4  C   UNL     1     -56.812 -37.463   7.573 -0.27 +0.00    +0.006 A  
DOCKED: ATOM      5  C   UNL     1     -55.804 -37.412   8.656 -0.17 +0.00    +0.169 C  
DOCKED: ATOM      6  C   UNL     1     -58.017 -35.960   6.119 -0.28 -0.00    -0.001 A  
DOCKED: ATOM      7  C   UNL     1     -57.454 -38.566   7.037 -0.35 +0.00    +0.008 A  
DOCKED: ATOM      8  C   UNL     1     -58.670 -37.063   5.566 -0.34 +0.00    +0.010 A  
DOCKED: ATOM      9  C   UNL     1     -58.390 -38.359   6.023 -0.33 +0.00    +0.068 A  
DOCKED: ATOM     10  N   UNL     1     -59.624 -40.384   4.978 -2.37 -0.00    -0.191 NA 
DOCKED: ATOM     11  C   UNL     1     -59.070 -39.476   5.446 -0.38 +0.00    +0.101 C  
DOCKED: ENDROOT
DOCKED: BRANCH   2  12
DOCKED: ATOM     12  C   UNL     1     -57.083 -34.281   8.783 -0.06 +0.00    +0.038 C  
DOCKED: BRANCH  12  13
DOCKED: ATOM     13  C   UNL     1     -57.976 -33.353   7.963 -0.09 +0.00    +0.038 C  
DOCKED: BRANCH  13  14
DOCKED: ATOM     14  C   UNL     1     -59.453 -33.661   8.200 -0.06 +0.00    +0.251 C  
DOCKED: BRANCH  14  15
DOCKED: ATOM     15  N   UNL     1     -60.149 -33.817   6.928 -0.20 +0.00    +0.141 N  
DOCKED: ATOM     16  C   UNL     1     -61.169 -34.864   7.023 -0.14 +0.00    +0.285 C  
DOCKED: ATOM     17  C   UNL     1     -60.758 -32.552   6.515 -0.15 +0.00    +0.285 C  
DOCKED: ENDBRANCH  14  15
DOCKED: ENDBRANCH  13  14
DOCKED: ENDBRANCH  12  13
DOCKED: ENDBRANCH   2  12
DOCKED: BRANCH   2  18
DOCKED: ATOM     18  C   UNL     1     -55.346 -34.393   7.004 -0.14 +0.00    +0.006 A  
DOCKED: ATOM     19  C   UNL     1     -54.003 -34.238   7.345 -0.11 +0.00    +0.001 A  
DOCKED: ATOM     20  C   UNL     1     -53.158 -33.493   6.522 -0.08 +0.00    +0.029 A  
DOCKED: ATOM     21  C   UNL     1     -53.656 -32.904   5.361 -0.08 +0.00    +0.140 A  
DOCKED: ATOM     22  C   UNL     1     -54.999 -33.060   5.020 -0.14 +0.00    +0.029 A  
DOCKED: ATOM     23  F   UNL     1     -52.843 -32.191   4.570 -0.00 -0.00    -0.204 F  
DOCKED: ATOM     24  C   UNL     1     -55.846 -33.805   5.843 -0.14 +0.00    +0.001 A  
DOCKED: ENDBRANCH   2  18
DOCKED: TORSDOF 5
DOCKED: TER
DOCKED: ENDMDL
________________________________________________________________________________


    FINAL DOCKED STATE:
    ________________________


Run:   457 / 512
Time taken for this run:   0.002s

DOCKED: MODEL        457
DOCKED: USER    Run = 457
DOCKED: USER
DOCKED: USER    Estimated Free Energy of Binding    =  -3.75 kcal/mol  [=(1)+(2)+(3)-(4)]
DOCKED: USER
DOCKED: USER    (1) Final Intermolecular Energy     =  -5.24 kcal/mol
DOCKED: USER        vdW + Hbond + desolv Energy     =  -5.24 kcal/mol
DOCKED: USER        Electrostatic Energy            =  +0.00 kcal/mol
DOCKED: USER        Moving Ligand-Fixed Receptor    =  -5.24 kcal/mol
DOCKED: USER        Moving Ligand-Moving Receptor   =  +0.00 kcal/mol
DOCKED: USER    (2) Final Total Internal Energy     =  -1.23 kcal/mol
DOCKED: USER    (3) Torsional Free Energy           =  +1.49 kcal/mol
DOCKED: USER    (4) Unbound System's Energy         =  -1.23 kcal/mol
DOCKED: USER
DOCKED: USER
DOCKED: REMARK  5 active torsions:
DOCKED: REMARK  status: ('A' for Active; 'I' for Inactive)
DOCKED: REMARK    1  A    between atoms: C_2  and  C_19 
DOCKED: REMARK    2  A    between atoms: C_2  and  C_11 
DOCKED: REMARK    3  A    between atoms: C_19  and  C_20 
DOCKED: REMARK    4  A    between atoms: C_20  and  C_21 
DOCKED: REMARK    5  A    between atoms: C_21  and  N_22 
DOCKED: USER                              x       y       z     vdW  Elec       q    Type
DOCKED: USER                           _______ _______ _______ _____ _____    ______ ____
DOCKED: ROOT
DOCKED: ATOM      1  O   UNL     1     -51.039 -35.039   0.145 +0.01 -0.00    -0.346 OA 
DOCKED: ATOM      2  C   UNL     1     -49.974 -36.010  -0.111 -0.05 +0.00    +0.130 C  
DOCKED: ATOM      3  C   UNL     1     -50.314 -37.161   0.791 -0.09 +0.00    +0.004 A  
DOCKED: ATOM      4  C   UNL     1     -51.524 -36.918   1.423 -0.18 +0.00    +0.006 A  
DOCKED: ATOM      5  C   UNL     1     -52.069 -35.615   0.981 -0.15 +0.00    +0.169 C  
DOCKED: ATOM      6  C   UNL     1     -49.612 -38.335   1.023 -0.09 -0.00    -0.001 A  
DOCKED: ATOM      7  C   UNL     1     -52.071 -37.831   2.308 -0.30 +0.00    +0.008 A  
DOCKED: ATOM      8  C   UNL     1     -50.148 -39.264   1.917 -0.18 +0.00    +0.010 A  
DOCKED: ATOM      9  C   UNL     1     -51.372 -39.013   2.555 -0.28 +0.00    +0.068 A  
DOCKED: ATOM     10  N   UNL     1     -52.341 -40.761   4.204 -2.62 -0.00    -0.191 NA 
DOCKED: ATOM     11  C   UNL     1     -51.906 -39.977   3.465 -0.40 +0.00    +0.101 C  
DOCKED: ENDROOT
DOCKED: BRANCH   2  12
DOCKED: ATOM     12  C   UNL     1     -50.006 -36.383  -1.588 -0.09 +0.00    +0.038 C  
DOCKED: BRANCH  12  13
DOCKED: ATOM     13  C   UNL     1     -50.529 -35.230  -2.443 -0.10 +0.00    +0.038 C  
DOCKED: BRANCH  13  14
DOCKED: ATOM     14  C   UNL     1     -51.891 -35.568  -3.047 -0.12 +0.00    +0.251 C  
DOCKED: BRANCH  14  15
DOCKED: ATOM     15  N   UNL     1     -52.821 -34.463  -2.851 -0.23 +0.00    +0.141 N  
DOCKED: ATOM     16  C   UNL     1     -52.149 -33.330  -2.213 -0.11 +0.00    +0.285 C  
DOCKED: ATOM     17  C   UNL     1     -53.410 -34.051  -4.126 -0.21 +0.00    +0.285 C  
DOCKED: ENDBRANCH  14  15
DOCKED: ENDBRANCH  13  14
DOCKED: ENDBRANCH  12  13
DOCKED: ENDBRANCH   2  12
DOCKED: BRANCH   2  18
DOCKED: ATOM     18  C   UNL     1     -48.686 -35.349   0.249 -0.01 +0.00    +0.006 A  
DOCKED: ATOM     19  C   UNL     1     -47.854 -34.850  -0.753 -0.00 +0.00    +0.001 A  
DOCKED: ATOM     20  C   UNL     1     -46.649 -34.233  -0.414 +0.00 +0.00    +0.029 A  
DOCKED: ATOM     21  C   UNL     1     -46.278 -34.114   0.924 -0.00 +0.00    +0.140 A  
DOCKED: ATOM     22  C   UNL     1     -47.111 -34.613   1.926 -0.00 +0.00    +0.029 A  
DOCKED: ATOM     23  F   UNL     1     -45.123 -33.520   1.249 +0.00 -0.00    -0.204 F  
DOCKED: ATOM     24  C   UNL     1     -48.316 -35.231   1.589 -0.01 +0.00    +0.001 A  
DOCKED: ENDBRANCH   2  18
DOCKED: TORSDOF 5
DOCKED: TER
DOCKED: ENDMDL
________________________________________________________________________________


    FINAL DOCKED STATE:
    ________________________


Run:   458 / 512
Time taken for this run:   0.002s

DOCKED: MODEL        458
DOCKED: USER    Run = 458
DOCKED: USER
DOCKED: USER    Estimated Free Energy of Binding    =  -5.44 kcal/mol  [=(1)+(2)+(3)-(4)]
DOCKED: USER
DOCKED: USER    (1) Final Intermolecular Energy     =  -6.93 kcal/mol
DOCKED: USER        vdW + Hbond + desolv Energy     =  -6.93 kcal/mol
DOCKED: USER        Electrostatic Energy            =  +0.00 kcal/mol
DOCKED: USER        Moving Ligand-Fixed Receptor    =  -6.93 kcal/mol
DOCKED: USER        Moving Ligand-Moving Receptor   =  +0.00 kcal/mol
DOCKED: USER    (2) Final Total Internal Energy     =  -1.18 kcal/mol
DOCKED: USER    (3) Torsional Free Energy           =  +1.49 kcal/mol
DOCKED: USER    (4) Unbound System's Energy         =  -1.18 kcal/mol
DOCKED: USER
DOCKED: USER
DOCKED: REMARK  5 active torsions:
DOCKED: REMARK  status: ('A' for Active; 'I' for Inactive)
DOCKED: REMARK    1  A    between atoms: C_2  and  C_19 
DOCKED: REMARK    2  A    between atoms: C_2  and  C_11 
DOCKED: REMARK    3  A    between atoms: C_19  and  C_20 
DOCKED: REMARK    4  A    between atoms: C_20  and  C_21 
DOCKED: REMARK    5  A    between atoms: C_21  and  N_22 
DOCKED: USER                              x       y       z     vdW  Elec       q    Type
DOCKED: USER                           _______ _______ _______ _____ _____    ______ ____
DOCKED: ROOT
DOCKED: ATOM      1  O   UNL     1     -57.953 -36.029   8.012 -0.03 -0.00    -0.346 OA 
DOCKED: ATOM      2  C   UNL     1     -57.406 -37.386   8.019 -0.20 +0.00    +0.130 C  
DOCKED: ATOM      3  C   UNL     1     -57.863 -37.964   6.710 -0.33 +0.00    +0.004 A  
DOCKED: ATOM      4  C   UNL     1     -58.518 -36.989   5.972 -0.34 +0.00    +0.006 A  
DOCKED: ATOM      5  C   UNL     1     -58.529 -35.713   6.723 -0.22 +0.00    +0.169 C  
DOCKED: ATOM      6  C   UNL     1     -57.701 -39.247   6.209 -0.42 -0.00    -0.001 A  
DOCKED: ATOM      7  C   UNL     1     -59.035 -37.261   4.717 -0.07 +0.00    +0.008 A  
DOCKED: ATOM      8  C   UNL     1     -58.221 -39.539   4.947 -0.43 +0.00    +0.010 A  
DOCKED: ATOM      9  C   UNL     1     -58.884 -38.550   4.204 -0.42 +0.00    +0.068 A  
DOCKED: ATOM     10  N   UNL     1     -59.833 -39.123   1.862 -2.53 -0.00    -0.191 NA 
DOCKED: ATOM     11  C   UNL     1     -59.408 -38.866   2.913 -0.47 +0.00    +0.101 C  
DOCKED: ENDROOT
DOCKED: BRANCH   2  12
DOCKED: ATOM     12  C   UNL     1     -55.889 -37.295   8.129 -0.24 +0.00    +0.038 C  
DOCKED: BRANCH  12  13
DOCKED: ATOM     13  C   UNL     1     -55.449 -35.921   8.631 -0.15 +0.00    +0.038 C  
DOCKED: BRANCH  13  14
DOCKED: ATOM     14  C   UNL     1     -54.534 -35.233   7.620 -0.03 +0.00    +0.251 C  
DOCKED: BRANCH  14  15
DOCKED: ATOM     15  N   UNL     1     -54.742 -33.790   7.645 -0.07 +0.00    +0.141 N  
DOCKED: ATOM     16  C   UNL     1     -53.551 -33.088   7.165 -0.04 +0.00    +0.285 C  
DOCKED: ATOM     17  C   UNL     1     -55.908 -33.424   6.839 -0.10 +0.00    +0.285 C  
DOCKED: ENDBRANCH  14  15
DOCKED: ENDBRANCH  13  14
DOCKED: ENDBRANCH  12  13
DOCKED: ENDBRANCH   2  12
DOCKED: BRANCH   2  18
DOCKED: ATOM     18  C   UNL     1     -57.991 -38.086   9.200 -0.16 +0.00    +0.006 A  
DOCKED: ATOM     19  C   UNL     1     -57.243 -39.044   9.882 -0.12 +0.00    +0.001 A  
DOCKED: ATOM     20  C   UNL     1     -57.791 -39.699  10.986 -0.22 +0.00    +0.029 A  
DOCKED: ATOM     21  C   UNL     1     -59.085 -39.394  11.406 -0.10 +0.00    +0.140 A  
DOCKED: ATOM     22  C   UNL     1     -59.832 -38.435  10.722 -0.11 +0.00    +0.029 A  
DOCKED: ATOM     23  F   UNL     1     -59.610 -40.021  12.466 -0.03 -0.00    -0.204 F  
DOCKED: ATOM     24  C   UNL     1     -59.285 -37.781   9.618 -0.10 +0.00    +0.001 A  
DOCKED: ENDBRANCH   2  18
DOCKED: TORSDOF 5
DOCKED: TER
DOCKED: ENDMDL
________________________________________________________________________________


    FINAL DOCKED STATE:
    ________________________


Run:   459 / 512
Time taken for this run:   0.002s

DOCKED: MODEL        459
DOCKED: USER    Run = 459
DOCKED: USER
DOCKED: USER    Estimated Free Energy of Binding    =  -3.84 kcal/mol  [=(1)+(2)+(3)-(4)]
DOCKED: USER
DOCKED: USER    (1) Final Intermolecular Energy     =  -5.34 kcal/mol
DOCKED: USER        vdW + Hbond + desolv Energy     =  -5.34 kcal/mol
DOCKED: USER        Electrostatic Energy            =  +0.00 kcal/mol
DOCKED: USER        Moving Ligand-Fixed Receptor    =  -5.34 kcal/mol
DOCKED: USER        Moving Ligand-Moving Receptor   =  +0.00 kcal/mol
DOCKED: USER    (2) Final Total Internal Energy     =  -1.26 kcal/mol
DOCKED: USER    (3) Torsional Free Energy           =  +1.49 kcal/mol
DOCKED: USER    (4) Unbound System's Energy         =  -1.26 kcal/mol
DOCKED: USER
DOCKED: USER
DOCKED: REMARK  5 active torsions:
DOCKED: REMARK  status: ('A' for Active; 'I' for Inactive)
DOCKED: REMARK    1  A    between atoms: C_2  and  C_19 
DOCKED: REMARK    2  A    between atoms: C_2  and  C_11 
DOCKED: REMARK    3  A    between atoms: C_19  and  C_20 
DOCKED: REMARK    4  A    between atoms: C_20  and  C_21 
DOCKED: REMARK    5  A    between atoms: C_21  and  N_22 
DOCKED: USER                              x       y       z     vdW  Elec       q    Type
DOCKED: USER                           _______ _______ _______ _____ _____    ______ ____
DOCKED: ROOT
DOCKED: ATOM      1  O   UNL     1     -51.168 -26.583  -0.955 -0.04 -0.00    -0.346 OA 
DOCKED: ATOM      2  C   UNL     1     -51.637 -27.966  -0.857 -0.10 +0.00    +0.130 C  
DOCKED: ATOM      3  C   UNL     1     -52.899 -27.976  -1.669 -0.15 +0.00    +0.004 A  
DOCKED: ATOM      4  C   UNL     1     -53.078 -26.738  -2.269 -0.20 +0.00    +0.006 A  
DOCKED: ATOM      5  C   UNL     1     -51.957 -25.840  -1.912 -0.14 +0.00    +0.169 C  
DOCKED: ATOM      6  C   UNL     1     -53.810 -29.003  -1.870 -0.20 -0.00    -0.001 A  
DOCKED: ATOM      7  C   UNL     1     -54.169 -26.482  -3.083 -0.32 +0.00    +0.008 A  
DOCKED: ATOM      8  C   UNL     1     -54.918 -28.759  -2.684 -0.26 +0.00    +0.010 A  
DOCKED: ATOM      9  C   UNL     1     -55.096 -27.505  -3.287 -0.34 +0.00    +0.068 A  
DOCKED: ATOM     10  N   UNL     1     -57.160 -27.089  -4.796 -2.43 -0.00    -0.191 NA 
DOCKED: ATOM     11  C   UNL     1     -56.235 -27.275  -4.119 -0.42 +0.00    +0.101 C  
DOCKED: ENDROOT
DOCKED: BRANCH   2  12
DOCKED: ATOM     12  C   UNL     1     -50.559 -28.882  -1.424 -0.03 +0.00    +0.038 C  
DOCKED: BRANCH  12  13
DOCKED: ATOM     13  C   UNL     1     -50.669 -28.998  -2.943 -0.02 +0.00    +0.038 C  
DOCKED: BRANCH  13  14
DOCKED: ATOM     14  C   UNL     1     -49.487 -28.319  -3.633 +0.00 +0.00    +0.251 C  
DOCKED: BRANCH  14  15
DOCKED: ATOM     15  N   UNL     1     -49.945 -27.555  -4.787 -0.01 +0.00    +0.141 N  
DOCKED: ATOM     16  C   UNL     1     -51.311 -27.935  -5.150 -0.00 +0.00    +0.285 C  
DOCKED: ATOM     17  C   UNL     1     -49.874 -26.118  -4.515 -0.01 +0.00    +0.285 C  
DOCKED: ENDBRANCH  14  15
DOCKED: ENDBRANCH  13  14
DOCKED: ENDBRANCH  12  13
DOCKED: ENDBRANCH   2  12
DOCKED: BRANCH   2  18
DOCKED: ATOM     18  C   UNL     1     -51.874 -28.245   0.590 -0.12 +0.00    +0.006 A  
DOCKED: ATOM     19  C   UNL     1     -50.902 -27.909   1.532 -0.09 +0.00    +0.001 A  
DOCKED: ATOM     20  C   UNL     1     -51.125 -28.171   2.885 -0.07 +0.00    +0.029 A  
DOCKED: ATOM     21  C   UNL     1     -52.318 -28.767   3.293 -0.08 +0.00    +0.140 A  
DOCKED: ATOM     22  C   UNL     1     -53.289 -29.102   2.349 -0.13 +0.00    +0.029 A  
DOCKED: ATOM     23  F   UNL     1     -52.532 -29.016   4.591 -0.02 -0.00    -0.204 F  
DOCKED: ATOM     24  C   UNL     1     -53.067 -28.841   0.996 -0.14 +0.00    +0.001 A  
DOCKED: ENDBRANCH   2  18
DOCKED: TORSDOF 5
DOCKED: TER
DOCKED: ENDMDL
________________________________________________________________________________


    FINAL DOCKED STATE:
    ________________________


Run:   460 / 512
Time taken for this run:   0.002s

DOCKED: MODEL        460
DOCKED: USER    Run = 460
DOCKED: USER
DOCKED: USER    Estimated Free Energy of Binding    =  -4.54 kcal/mol  [=(1)+(2)+(3)-(4)]
DOCKED: USER
DOCKED: USER    (1) Final Intermolecular Energy     =  -6.03 kcal/mol
DOCKED: USER        vdW + Hbond + desolv Energy     =  -6.03 kcal/mol
DOCKED: USER        Electrostatic Energy            =  +0.00 kcal/mol
DOCKED: USER        Moving Ligand-Fixed Receptor    =  -6.03 kcal/mol
DOCKED: USER        Moving Ligand-Moving Receptor   =  +0.00 kcal/mol
DOCKED: USER    (2) Final Total Internal Energy     =  -1.37 kcal/mol
DOCKED: USER    (3) Torsional Free Energy           =  +1.49 kcal/mol
DOCKED: USER    (4) Unbound System's Energy         =  -1.37 kcal/mol
DOCKED: USER
DOCKED: USER
DOCKED: REMARK  5 active torsions:
DOCKED: REMARK  status: ('A' for Active; 'I' for Inactive)
DOCKED: REMARK    1  A    between atoms: C_2  and  C_19 
DOCKED: REMARK    2  A    between atoms: C_2  and  C_11 
DOCKED: REMARK    3  A    between atoms: C_19  and  C_20 
DOCKED: REMARK    4  A    between atoms: C_20  and  C_21 
DOCKED: REMARK    5  A    between atoms: C_21  and  N_22 
DOCKED: USER                              x       y       z     vdW  Elec       q    Type
DOCKED: USER                           _______ _______ _______ _____ _____    ______ ____
DOCKED: ROOT
DOCKED: ATOM      1  O   UNL     1     -57.241 -33.527   6.955 -0.06 -0.00    -0.346 OA 
DOCKED: ATOM      2  C   UNL     1     -58.645 -33.568   7.367 -0.15 +0.00    +0.130 C  
DOCKED: ATOM      3  C   UNL     1     -59.095 -34.946   6.976 -0.22 +0.00    +0.004 A  
DOCKED: ATOM      4  C   UNL     1     -58.016 -35.667   6.485 -0.27 +0.00    +0.006 A  
DOCKED: ATOM      5  C   UNL     1     -56.793 -34.835   6.529 -0.19 +0.00    +0.169 C  
DOCKED: ATOM      6  C   UNL     1     -60.355 -35.518   7.058 -0.22 -0.00    -0.001 A  
DOCKED: ATOM      7  C   UNL     1     -58.159 -36.977   6.058 -0.33 +0.00    +0.008 A  
DOCKED: ATOM      8  C   UNL     1     -60.517 -36.836   6.628 -0.22 +0.00    +0.010 A  
DOCKED: ATOM      9  C   UNL     1     -59.424 -37.562   6.131 -0.26 +0.00    +0.068 A  
DOCKED: ATOM     10  N   UNL     1     -59.757 -40.008   5.345 -2.55 -0.00    -0.191 NA 
DOCKED: ATOM     11  C   UNL     1     -59.607 -38.911   5.697 -0.36 +0.00    +0.101 C  
DOCKED: ENDROOT
DOCKED: BRANCH   2  12
DOCKED: ATOM     12  C   UNL     1     -58.714 -33.326   8.870 -0.05 +0.00    +0.038 C  
DOCKED: BRANCH  12  13
DOCKED: ATOM     13  C   UNL     1     -58.601 -34.633   9.651 -0.04 +0.00    +0.038 C  
DOCKED: BRANCH  13  14
DOCKED: ATOM     14  C   UNL     1     -57.139 -35.031   9.848 -0.02 +0.00    +0.251 C  
DOCKED: BRANCH  14  15
DOCKED: ATOM     15  N   UNL     1     -56.993 -36.480   9.772 -0.05 +0.00    +0.141 N  
DOCKED: ATOM     16  C   UNL     1     -56.167 -36.974  10.875 -0.04 +0.00    +0.285 C  
DOCKED: ATOM     17  C   UNL     1     -58.304 -37.132   9.789 -0.03 +0.00    +0.285 C  
DOCKED: ENDBRANCH  14  15
DOCKED: ENDBRANCH  13  14
DOCKED: ENDBRANCH  12  13
DOCKED: ENDBRANCH   2  12
DOCKED: BRANCH   2  18
DOCKED: ATOM     18  C   UNL     1     -59.352 -32.490   6.615 -0.19 +0.00    +0.006 A  
DOCKED: ATOM     19  C   UNL     1     -60.717 -32.286   6.808 -0.20 +0.00    +0.001 A  
DOCKED: ATOM     20  C   UNL     1     -61.377 -31.278   6.104 -0.17 +0.00    +0.029 A  
DOCKED: ATOM     21  C   UNL     1     -60.671 -30.476   5.209 -0.10 +0.00    +0.140 A  
DOCKED: ATOM     22  C   UNL     1     -59.305 -30.680   5.017 -0.15 +0.00    +0.029 A  
DOCKED: ATOM     23  F   UNL     1     -61.304 -29.507   4.535 -0.02 -0.00    -0.204 F  
DOCKED: ATOM     24  C   UNL     1     -58.644 -31.688   5.720 -0.15 +0.00    +0.001 A  
DOCKED: ENDBRANCH   2  18
DOCKED: TORSDOF 5
DOCKED: TER
DOCKED: ENDMDL
________________________________________________________________________________


    FINAL DOCKED STATE:
    ________________________


Run:   461 / 512
Time taken for this run:   0.002s

DOCKED: MODEL        461
DOCKED: USER    Run = 461
DOCKED: USER
DOCKED: USER    Estimated Free Energy of Binding    =  -3.81 kcal/mol  [=(1)+(2)+(3)-(4)]
DOCKED: USER
DOCKED: USER    (1) Final Intermolecular Energy     =  -5.30 kcal/mol
DOCKED: USER        vdW + Hbond + desolv Energy     =  -5.30 kcal/mol
DOCKED: USER        Electrostatic Energy            =  +0.00 kcal/mol
DOCKED: USER        Moving Ligand-Fixed Receptor    =  -5.30 kcal/mol
DOCKED: USER        Moving Ligand-Moving Receptor   =  +0.00 kcal/mol
DOCKED: USER    (2) Final Total Internal Energy     =  -1.50 kcal/mol
DOCKED: USER    (3) Torsional Free Energy           =  +1.49 kcal/mol
DOCKED: USER    (4) Unbound System's Energy         =  -1.50 kcal/mol
DOCKED: USER
DOCKED: USER
DOCKED: REMARK  5 active torsions:
DOCKED: REMARK  status: ('A' for Active; 'I' for Inactive)
DOCKED: REMARK    1  A    between atoms: C_2  and  C_19 
DOCKED: REMARK    2  A    between atoms: C_2  and  C_11 
DOCKED: REMARK    3  A    between atoms: C_19  and  C_20 
DOCKED: REMARK    4  A    between atoms: C_20  and  C_21 
DOCKED: REMARK    5  A    between atoms: C_21  and  N_22 
DOCKED: USER                              x       y       z     vdW  Elec       q    Type
DOCKED: USER                           _______ _______ _______ _____ _____    ______ ____
DOCKED: ROOT
DOCKED: ATOM      1  O   UNL     1     -53.235 -34.494   0.567 -0.04 -0.00    -0.346 OA 
DOCKED: ATOM      2  C   UNL     1     -51.970 -35.031   0.063 -0.14 +0.00    +0.130 C  
DOCKED: ATOM      3  C   UNL     1     -51.810 -36.327   0.802 -0.17 +0.00    +0.004 A  
DOCKED: ATOM      4  C   UNL     1     -52.936 -36.565   1.577 -0.32 +0.00    +0.006 A  
DOCKED: ATOM      5  C   UNL     1     -53.911 -35.466   1.398 -0.28 +0.00    +0.169 C  
DOCKED: ATOM      6  C   UNL     1     -50.756 -37.230   0.782 -0.12 -0.00    -0.001 A  
DOCKED: ATOM      7  C   UNL     1     -53.047 -37.704   2.357 -0.20 +0.00    +0.008 A  
DOCKED: ATOM      8  C   UNL     1     -50.851 -38.381   1.566 -0.18 +0.00    +0.010 A  
DOCKED: ATOM      9  C   UNL     1     -51.991 -38.616   2.349 -0.31 +0.00    +0.068 A  
DOCKED: ATOM     10  N   UNL     1     -52.136 -40.765   3.790 -2.34 -0.00    -0.191 NA 
DOCKED: ATOM     11  C   UNL     1     -52.071 -39.801   3.144 -0.39 +0.00    +0.101 C  
DOCKED: ENDROOT
DOCKED: BRANCH   2  12
DOCKED: ATOM     12  C   UNL     1     -52.092 -35.218  -1.445 -0.09 +0.00    +0.038 C  
DOCKED: BRANCH  12  13
DOCKED: ATOM     13  C   UNL     1     -52.031 -33.880  -2.179 -0.16 +0.00    +0.038 C  
DOCKED: BRANCH  13  14
DOCKED: ATOM     14  C   UNL     1     -53.366 -33.143  -2.089 -0.17 +0.00    +0.251 C  
DOCKED: BRANCH  14  15
DOCKED: ATOM     15  N   UNL     1     -53.253 -31.997  -1.195 -0.11 +0.00    +0.141 N  
DOCKED: ATOM     16  C   UNL     1     -52.529 -30.904  -1.845 -0.05 +0.00    +0.285 C  
DOCKED: ATOM     17  C   UNL     1     -54.578 -31.544  -0.768 -0.14 +0.00    +0.285 C  
DOCKED: ENDBRANCH  14  15
DOCKED: ENDBRANCH  13  14
DOCKED: ENDBRANCH  12  13
DOCKED: ENDBRANCH   2  12
DOCKED: BRANCH   2  18
DOCKED: ATOM     18  C   UNL     1     -50.910 -34.035   0.398 -0.04 +0.00    +0.006 A  
DOCKED: ATOM     19  C   UNL     1     -51.244 -32.863   1.074 -0.02 +0.00    +0.001 A  
DOCKED: ATOM     20  C   UNL     1     -50.251 -31.933   1.386 -0.01 +0.00    +0.029 A  
DOCKED: ATOM     21  C   UNL     1     -48.928 -32.177   1.023 +0.00 +0.00    +0.140 A  
DOCKED: ATOM     22  C   UNL     1     -48.594 -33.350   0.347 -0.00 +0.00    +0.029 A  
DOCKED: ATOM     23  F   UNL     1     -47.975 -31.285   1.324 +0.00 -0.00    -0.204 F  
DOCKED: ATOM     24  C   UNL     1     -49.586 -34.281   0.033 -0.01 +0.00    +0.001 A  
DOCKED: ENDBRANCH   2  18
DOCKED: TORSDOF 5
DOCKED: TER
DOCKED: ENDMDL
________________________________________________________________________________


    FINAL DOCKED STATE:
    ________________________


Run:   462 / 512
Time taken for this run:   0.002s

DOCKED: MODEL        462
DOCKED: USER    Run = 462
DOCKED: USER
DOCKED: USER    Estimated Free Energy of Binding    =  -4.01 kcal/mol  [=(1)+(2)+(3)-(4)]
DOCKED: USER
DOCKED: USER    (1) Final Intermolecular Energy     =  -5.50 kcal/mol
DOCKED: USER        vdW + Hbond + desolv Energy     =  -5.50 kcal/mol
DOCKED: USER        Electrostatic Energy            =  +0.00 kcal/mol
DOCKED: USER        Moving Ligand-Fixed Receptor    =  -5.50 kcal/mol
DOCKED: USER        Moving Ligand-Moving Receptor   =  +0.00 kcal/mol
DOCKED: USER    (2) Final Total Internal Energy     =  -1.22 kcal/mol
DOCKED: USER    (3) Torsional Free Energy           =  +1.49 kcal/mol
DOCKED: USER    (4) Unbound System's Energy         =  -1.22 kcal/mol
DOCKED: USER
DOCKED: USER
DOCKED: REMARK  5 active torsions:
DOCKED: REMARK  status: ('A' for Active; 'I' for Inactive)
DOCKED: REMARK    1  A    between atoms: C_2  and  C_19 
DOCKED: REMARK    2  A    between atoms: C_2  and  C_11 
DOCKED: REMARK    3  A    between atoms: C_19  and  C_20 
DOCKED: REMARK    4  A    between atoms: C_20  and  C_21 
DOCKED: REMARK    5  A    between atoms: C_21  and  N_22 
DOCKED: USER                              x       y       z     vdW  Elec       q    Type
DOCKED: USER                           _______ _______ _______ _____ _____    ______ ____
DOCKED: ROOT
DOCKED: ATOM      1  O   UNL     1     -60.369 -38.177   9.780 -0.02 -0.00    -0.346 OA 
DOCKED: ATOM      2  C   UNL     1     -59.028 -37.639   9.549 -0.09 +0.00    +0.130 C  
DOCKED: ATOM      3  C   UNL     1     -58.770 -37.925   8.098 -0.18 +0.00    +0.004 A  
DOCKED: ATOM      4  C   UNL     1     -59.905 -38.478   7.522 -0.21 +0.00    +0.006 A  
DOCKED: ATOM      5  C   UNL     1     -60.981 -38.583   8.533 -0.13 +0.00    +0.169 C  
DOCKED: ATOM      6  C   UNL     1     -57.626 -37.703   7.345 -0.28 -0.00    -0.001 A  
DOCKED: ATOM      7  C   UNL     1     -59.935 -38.830   6.184 -0.31 +0.00    +0.008 A  
DOCKED: ATOM      8  C   UNL     1     -57.639 -38.057   5.995 -0.31 +0.00    +0.010 A  
DOCKED: ATOM      9  C   UNL     1     -58.789 -38.618   5.417 -0.37 +0.00    +0.068 A  
DOCKED: ATOM     10  N   UNL     1     -58.781 -39.259   2.907 -1.57 -0.00    -0.191 NA 
DOCKED: ATOM     11  C   UNL     1     -58.784 -38.972   4.033 -0.50 +0.00    +0.101 C  
DOCKED: ENDROOT
DOCKED: BRANCH   2  12
DOCKED: ATOM     12  C   UNL     1     -59.045 -36.148   9.866 -0.05 +0.00    +0.038 C  
DOCKED: BRANCH  12  13
DOCKED: ATOM     13  C   UNL     1     -59.448 -35.324   8.644 -0.09 +0.00    +0.038 C  
DOCKED: BRANCH  13  14
DOCKED: ATOM     14  C   UNL     1     -60.960 -35.361   8.430 -0.05 +0.00    +0.251 C  
DOCKED: BRANCH  14  15
DOCKED: ATOM     15  N   UNL     1     -61.343 -34.451   7.357 -0.16 +0.00    +0.141 N  
DOCKED: ATOM     16  C   UNL     1     -61.865 -33.199   7.905 -0.07 +0.00    +0.285 C  
DOCKED: ATOM     17  C   UNL     1     -60.204 -34.184   6.477 -0.10 +0.00    +0.285 C  
DOCKED: ENDBRANCH  14  15
DOCKED: ENDBRANCH  13  14
DOCKED: ENDBRANCH  12  13
DOCKED: ENDBRANCH   2  12
DOCKED: BRANCH   2  18
DOCKED: ATOM     18  C   UNL     1     -58.100 -38.372  10.460 -0.15 +0.00    +0.006 A  
DOCKED: ATOM     19  C   UNL     1     -58.489 -39.590  11.016 -0.17 +0.00    +0.001 A  
DOCKED: ATOM     20  C   UNL     1     -57.621 -40.274  11.868 -0.23 +0.00    +0.029 A  
DOCKED: ATOM     21  C   UNL     1     -56.367 -39.740  12.162 -0.16 +0.00    +0.140 A  
DOCKED: ATOM     22  C   UNL     1     -55.980 -38.522  11.606 -0.13 +0.00    +0.029 A  
DOCKED: ATOM     23  F   UNL     1     -55.534 -40.398  12.979 -0.05 -0.00    -0.204 F  
DOCKED: ATOM     24  C   UNL     1     -56.847 -37.836  10.754 -0.12 +0.00    +0.001 A  
DOCKED: ENDBRANCH   2  18
DOCKED: TORSDOF 5
DOCKED: TER
DOCKED: ENDMDL
________________________________________________________________________________


    FINAL DOCKED STATE:
    ________________________


Run:   463 / 512
Time taken for this run:   0.002s

DOCKED: MODEL        463
DOCKED: USER    Run = 463
DOCKED: USER
DOCKED: USER    Estimated Free Energy of Binding    =  -5.46 kcal/mol  [=(1)+(2)+(3)-(4)]
DOCKED: USER
DOCKED: USER    (1) Final Intermolecular Energy     =  -6.95 kcal/mol
DOCKED: USER        vdW + Hbond + desolv Energy     =  -6.95 kcal/mol
DOCKED: USER        Electrostatic Energy            =  +0.00 kcal/mol
DOCKED: USER        Moving Ligand-Fixed Receptor    =  -6.95 kcal/mol
DOCKED: USER        Moving Ligand-Moving Receptor   =  +0.00 kcal/mol
DOCKED: USER    (2) Final Total Internal Energy     =  -1.10 kcal/mol
DOCKED: USER    (3) Torsional Free Energy           =  +1.49 kcal/mol
DOCKED: USER    (4) Unbound System's Energy         =  -1.10 kcal/mol
DOCKED: USER
DOCKED: USER
DOCKED: REMARK  5 active torsions:
DOCKED: REMARK  status: ('A' for Active; 'I' for Inactive)
DOCKED: REMARK    1  A    between atoms: C_2  and  C_19 
DOCKED: REMARK    2  A    between atoms: C_2  and  C_11 
DOCKED: REMARK    3  A    between atoms: C_19  and  C_20 
DOCKED: REMARK    4  A    between atoms: C_20  and  C_21 
DOCKED: REMARK    5  A    between atoms: C_21  and  N_22 
DOCKED: USER                              x       y       z     vdW  Elec       q    Type
DOCKED: USER                           _______ _______ _______ _____ _____    ______ ____
DOCKED: ROOT
DOCKED: ATOM      1  O   UNL     1     -61.608 -37.830   8.211 -0.01 -0.00    -0.346 OA 
DOCKED: ATOM      2  C   UNL     1     -60.222 -37.380   8.078 -0.11 +0.00    +0.130 C  
DOCKED: ATOM      3  C   UNL     1     -59.909 -37.601   6.626 -0.24 +0.00    +0.004 A  
DOCKED: ATOM      4  C   UNL     1     -61.049 -38.034   5.964 -0.29 +0.00    +0.006 A  
DOCKED: ATOM      5  C   UNL     1     -62.181 -38.116   6.914 -0.16 +0.00    +0.169 C  
DOCKED: ATOM      6  C   UNL     1     -58.715 -37.422   5.944 -0.35 -0.00    -0.001 A  
DOCKED: ATOM      7  C   UNL     1     -61.035 -38.305   4.607 -0.21 +0.00    +0.008 A  
DOCKED: ATOM      8  C   UNL     1     -58.682 -37.696   4.576 -0.37 +0.00    +0.010 A  
DOCKED: ATOM      9  C   UNL     1     -59.837 -38.135   3.911 -0.28 +0.00    +0.068 A  
DOCKED: ATOM     10  N   UNL     1     -59.744 -38.629   1.369 -3.05 -0.00    -0.191 NA 
DOCKED: ATOM     11  C   UNL     1     -59.785 -38.408   2.509 -0.27 +0.00    +0.101 C  
DOCKED: ENDROOT
DOCKED: BRANCH   2  12
DOCKED: ATOM     12  C   UNL     1     -60.149 -35.913   8.485 -0.10 +0.00    +0.038 C  
DOCKED: BRANCH  12  13
DOCKED: ATOM     13  C   UNL     1     -61.448 -35.453   9.144 -0.07 +0.00    +0.038 C  
DOCKED: BRANCH  13  14
DOCKED: ATOM     14  C   UNL     1     -62.451 -34.964   8.101 -0.08 +0.00    +0.251 C  
DOCKED: BRANCH  14  15
DOCKED: ATOM     15  N   UNL     1     -62.114 -33.614   7.667 -0.12 +0.00    +0.141 N  
DOCKED: ATOM     16  C   UNL     1     -61.544 -32.843   8.773 -0.02 +0.00    +0.285 C  
DOCKED: ATOM     17  C   UNL     1     -61.180 -33.652   6.541 -0.14 +0.00    +0.285 C  
DOCKED: ENDBRANCH  14  15
DOCKED: ENDBRANCH  13  14
DOCKED: ENDBRANCH  12  13
DOCKED: ENDBRANCH   2  12
DOCKED: BRANCH   2  18
DOCKED: ATOM     18  C   UNL     1     -59.398 -38.232   8.986 -0.15 +0.00    +0.006 A  
DOCKED: ATOM     19  C   UNL     1     -58.621 -39.262   8.460 -0.27 +0.00    +0.001 A  
DOCKED: ATOM     20  C   UNL     1     -57.852 -40.058   9.310 -0.18 +0.00    +0.029 A  
DOCKED: ATOM     21  C   UNL     1     -57.861 -39.822  10.684 -0.13 +0.00    +0.140 A  
DOCKED: ATOM     22  C   UNL     1     -58.639 -38.791  11.210 -0.14 +0.00    +0.029 A  
DOCKED: ATOM     23  F   UNL     1     -57.121 -40.585  11.499 -0.11 -0.00    -0.204 F  
DOCKED: ATOM     24  C   UNL     1     -59.409 -37.995  10.360 -0.10 +0.00    +0.001 A  
DOCKED: ENDBRANCH   2  18
DOCKED: TORSDOF 5
DOCKED: TER
DOCKED: ENDMDL
________________________________________________________________________________


    FINAL DOCKED STATE:
    ________________________


Run:   464 / 512
Time taken for this run:   0.002s

DOCKED: MODEL        464
DOCKED: USER    Run = 464
DOCKED: USER
DOCKED: USER    Estimated Free Energy of Binding    =  -3.73 kcal/mol  [=(1)+(2)+(3)-(4)]
DOCKED: USER
DOCKED: USER    (1) Final Intermolecular Energy     =  -5.23 kcal/mol
DOCKED: USER        vdW + Hbond + desolv Energy     =  -5.23 kcal/mol
DOCKED: USER        Electrostatic Energy            =  +0.00 kcal/mol
DOCKED: USER        Moving Ligand-Fixed Receptor    =  -5.23 kcal/mol
DOCKED: USER        Moving Ligand-Moving Receptor   =  +0.00 kcal/mol
DOCKED: USER    (2) Final Total Internal Energy     =  -1.32 kcal/mol
DOCKED: USER    (3) Torsional Free Energy           =  +1.49 kcal/mol
DOCKED: USER    (4) Unbound System's Energy         =  -1.32 kcal/mol
DOCKED: USER
DOCKED: USER
DOCKED: REMARK  5 active torsions:
DOCKED: REMARK  status: ('A' for Active; 'I' for Inactive)
DOCKED: REMARK    1  A    between atoms: C_2  and  C_19 
DOCKED: REMARK    2  A    between atoms: C_2  and  C_11 
DOCKED: REMARK    3  A    between atoms: C_19  and  C_20 
DOCKED: REMARK    4  A    between atoms: C_20  and  C_21 
DOCKED: REMARK    5  A    between atoms: C_21  and  N_22 
DOCKED: USER                              x       y       z     vdW  Elec       q    Type
DOCKED: USER                           _______ _______ _______ _____ _____    ______ ____
DOCKED: ROOT
DOCKED: ATOM      1  O   UNL     1     -60.290 -33.971   8.343 -0.02 -0.00    -0.346 OA 
DOCKED: ATOM      2  C   UNL     1     -59.221 -33.850   7.350 -0.17 +0.00    +0.130 C  
DOCKED: ATOM      3  C   UNL     1     -59.092 -35.237   6.789 -0.23 +0.00    +0.004 A  
DOCKED: ATOM      4  C   UNL     1     -60.074 -36.054   7.333 -0.19 +0.00    +0.006 A  
DOCKED: ATOM      5  C   UNL     1     -60.916 -35.273   8.267 -0.09 +0.00    +0.169 C  
DOCKED: ATOM      6  C   UNL     1     -58.186 -35.733   5.864 -0.03 -0.00    -0.001 A  
DOCKED: ATOM      7  C   UNL     1     -60.180 -37.387   6.976 -0.21 +0.00    +0.008 A  
DOCKED: ATOM      8  C   UNL     1     -58.277 -37.077   5.498 -0.33 +0.00    +0.010 A  
DOCKED: ATOM      9  C   UNL     1     -59.270 -37.899   6.051 -0.28 +0.00    +0.068 A  
DOCKED: ATOM     10  N   UNL     1     -59.415 -40.388   5.345 -2.61 -0.00    -0.191 NA 
DOCKED: ATOM     11  C   UNL     1     -59.350 -39.272   5.662 -0.38 +0.00    +0.101 C  
DOCKED: ENDROOT
DOCKED: BRANCH   2  12
DOCKED: ATOM     12  C   UNL     1     -59.647 -32.825   6.305 -0.19 +0.00    +0.038 C  
DOCKED: BRANCH  12  13
DOCKED: ATOM     13  C   UNL     1     -60.905 -32.076   6.741 -0.21 +0.00    +0.038 C  
DOCKED: BRANCH  13  14
DOCKED: ATOM     14  C   UNL     1     -60.565 -30.951   7.716 -0.04 +0.00    +0.251 C  
DOCKED: BRANCH  14  15
DOCKED: ATOM     15  N   UNL     1     -61.711 -30.652   8.566 -0.02 +0.00    +0.141 N  
DOCKED: ATOM     16  C   UNL     1     -62.524 -29.585   7.980 -0.00 +0.00    +0.285 C  
DOCKED: ATOM     17  C   UNL     1     -62.523 -31.852   8.776 -0.01 +0.00    +0.285 C  
DOCKED: ENDBRANCH  14  15
DOCKED: ENDBRANCH  13  14
DOCKED: ENDBRANCH  12  13
DOCKED: ENDBRANCH   2  12
DOCKED: BRANCH   2  18
DOCKED: ATOM     18  C   UNL     1     -57.999 -33.401   8.078 -0.08 +0.00    +0.006 A  
DOCKED: ATOM     19  C   UNL     1     -57.598 -34.060   9.239 -0.04 +0.00    +0.001 A  
DOCKED: ATOM     20  C   UNL     1     -56.454 -33.638   9.919 -0.02 +0.00    +0.029 A  
DOCKED: ATOM     21  C   UNL     1     -55.714 -32.560   9.437 -0.01 +0.00    +0.140 A  
DOCKED: ATOM     22  C   UNL     1     -56.116 -31.901   8.275 -0.02 +0.00    +0.029 A  
DOCKED: ATOM     23  F   UNL     1     -54.616 -32.157  10.089 +0.00 -0.00    -0.204 F  
DOCKED: ATOM     24  C   UNL     1     -57.260 -32.322   7.595 -0.07 +0.00    +0.001 A  
DOCKED: ENDBRANCH   2  18
DOCKED: TORSDOF 5
DOCKED: TER
DOCKED: ENDMDL
________________________________________________________________________________


    FINAL DOCKED STATE:
    ________________________


Run:   465 / 512
Time taken for this run:   0.002s

DOCKED: MODEL        465
DOCKED: USER    Run = 465
DOCKED: USER
DOCKED: USER    Estimated Free Energy of Binding    =  -5.46 kcal/mol  [=(1)+(2)+(3)-(4)]
DOCKED: USER
DOCKED: USER    (1) Final Intermolecular Energy     =  -6.95 kcal/mol
DOCKED: USER        vdW + Hbond + desolv Energy     =  -6.95 kcal/mol
DOCKED: USER        Electrostatic Energy            =  +0.00 kcal/mol
DOCKED: USER        Moving Ligand-Fixed Receptor    =  -6.95 kcal/mol
DOCKED: USER        Moving Ligand-Moving Receptor   =  +0.00 kcal/mol
DOCKED: USER    (2) Final Total Internal Energy     =  -0.99 kcal/mol
DOCKED: USER    (3) Torsional Free Energy           =  +1.49 kcal/mol
DOCKED: USER    (4) Unbound System's Energy         =  -0.99 kcal/mol
DOCKED: USER
DOCKED: USER
DOCKED: REMARK  5 active torsions:
DOCKED: REMARK  status: ('A' for Active; 'I' for Inactive)
DOCKED: REMARK    1  A    between atoms: C_2  and  C_19 
DOCKED: REMARK    2  A    between atoms: C_2  and  C_11 
DOCKED: REMARK    3  A    between atoms: C_19  and  C_20 
DOCKED: REMARK    4  A    between atoms: C_20  and  C_21 
DOCKED: REMARK    5  A    between atoms: C_21  and  N_22 
DOCKED: USER                              x       y       z     vdW  Elec       q    Type
DOCKED: USER                           _______ _______ _______ _____ _____    ______ ____
DOCKED: ROOT
DOCKED: ATOM      1  O   UNL     1     -61.017 -37.594   8.488 -0.00 -0.00    -0.346 OA 
DOCKED: ATOM      2  C   UNL     1     -59.728 -36.992   8.146 -0.10 +0.00    +0.130 C  
DOCKED: ATOM      3  C   UNL     1     -59.547 -37.331   6.695 -0.24 +0.00    +0.004 A  
DOCKED: ATOM      4  C   UNL     1     -60.682 -37.973   6.219 -0.27 +0.00    +0.006 A  
DOCKED: ATOM      5  C   UNL     1     -61.683 -38.091   7.303 -0.16 +0.00    +0.169 C  
DOCKED: ATOM      6  C   UNL     1     -58.468 -37.080   5.859 -0.35 -0.00    -0.001 A  
DOCKED: ATOM      7  C   UNL     1     -60.776 -38.388   4.902 -0.33 +0.00    +0.008 A  
DOCKED: ATOM      8  C   UNL     1     -58.547 -37.496   4.529 -0.23 +0.00    +0.010 A  
DOCKED: ATOM      9  C   UNL     1     -59.695 -38.147   4.053 -0.33 +0.00    +0.068 A  
DOCKED: ATOM     10  N   UNL     1     -59.810 -38.902   1.577 -2.96 -0.00    -0.191 NA 
DOCKED: ATOM     11  C   UNL     1     -59.759 -38.564   2.688 -0.27 +0.00    +0.101 C  
DOCKED: ENDROOT
DOCKED: BRANCH   2  12
DOCKED: ATOM     12  C   UNL     1     -59.813 -35.492   8.400 -0.11 +0.00    +0.038 C  
DOCKED: BRANCH  12  13
DOCKED: ATOM     13  C   UNL     1     -59.839 -34.706   7.090 -0.24 +0.00    +0.038 C  
DOCKED: BRANCH  13  14
DOCKED: ATOM     14  C   UNL     1     -61.148 -33.934   6.938 -0.16 +0.00    +0.251 C  
DOCKED: BRANCH  14  15
DOCKED: ATOM     15  N   UNL     1     -60.883 -32.504   6.825 -0.17 +0.00    +0.141 N  
DOCKED: ATOM     16  C   UNL     1     -61.074 -31.840   8.115 -0.03 +0.00    +0.285 C  
DOCKED: ATOM     17  C   UNL     1     -59.525 -32.269   6.330 -0.14 +0.00    +0.285 C  
DOCKED: ENDBRANCH  14  15
DOCKED: ENDBRANCH  13  14
DOCKED: ENDBRANCH  12  13
DOCKED: ENDBRANCH   2  12
DOCKED: BRANCH   2  18
DOCKED: ATOM     18  C   UNL     1     -58.703 -37.629   9.024 -0.12 +0.00    +0.006 A  
DOCKED: ATOM     19  C   UNL     1     -58.890 -38.934   9.480 -0.21 +0.00    +0.001 A  
DOCKED: ATOM     20  C   UNL     1     -57.930 -39.528  10.301 -0.23 +0.00    +0.029 A  
DOCKED: ATOM     21  C   UNL     1     -56.787 -38.818  10.664 -0.07 +0.00    +0.140 A  
DOCKED: ATOM     22  C   UNL     1     -56.601 -37.513  10.208 -0.11 +0.00    +0.029 A  
DOCKED: ATOM     23  F   UNL     1     -55.866 -39.389  11.451 -0.01 -0.00    -0.204 F  
DOCKED: ATOM     24  C   UNL     1     -57.560 -36.918   9.387 -0.10 +0.00    +0.001 A  
DOCKED: ENDBRANCH   2  18
DOCKED: TORSDOF 5
DOCKED: TER
DOCKED: ENDMDL
________________________________________________________________________________


    FINAL DOCKED STATE:
    ________________________


Run:   466 / 512
Time taken for this run:   0.002s

DOCKED: MODEL        466
DOCKED: USER    Run = 466
DOCKED: USER
DOCKED: USER    Estimated Free Energy of Binding    =  -5.37 kcal/mol  [=(1)+(2)+(3)-(4)]
DOCKED: USER
DOCKED: USER    (1) Final Intermolecular Energy     =  -6.86 kcal/mol
DOCKED: USER        vdW + Hbond + desolv Energy     =  -6.86 kcal/mol
DOCKED: USER        Electrostatic Energy            =  +0.00 kcal/mol
DOCKED: USER        Moving Ligand-Fixed Receptor    =  -6.86 kcal/mol
DOCKED: USER        Moving Ligand-Moving Receptor   =  +0.00 kcal/mol
DOCKED: USER    (2) Final Total Internal Energy     =  -0.94 kcal/mol
DOCKED: USER    (3) Torsional Free Energy           =  +1.49 kcal/mol
DOCKED: USER    (4) Unbound System's Energy         =  -0.94 kcal/mol
DOCKED: USER
DOCKED: USER
DOCKED: REMARK  5 active torsions:
DOCKED: REMARK  status: ('A' for Active; 'I' for Inactive)
DOCKED: REMARK    1  A    between atoms: C_2  and  C_19 
DOCKED: REMARK    2  A    between atoms: C_2  and  C_11 
DOCKED: REMARK    3  A    between atoms: C_19  and  C_20 
DOCKED: REMARK    4  A    between atoms: C_20  and  C_21 
DOCKED: REMARK    5  A    between atoms: C_21  and  N_22 
DOCKED: USER                              x       y       z     vdW  Elec       q    Type
DOCKED: USER                           _______ _______ _______ _____ _____    ______ ____
DOCKED: ROOT
DOCKED: ATOM      1  O   UNL     1     -60.905 -36.855   8.224 -0.01 -0.00    -0.346 OA 
DOCKED: ATOM      2  C   UNL     1     -59.461 -36.964   8.012 -0.11 +0.00    +0.130 C  
DOCKED: ATOM      3  C   UNL     1     -59.342 -37.492   6.612 -0.26 +0.00    +0.004 A  
DOCKED: ATOM      4  C   UNL     1     -60.601 -37.574   6.035 -0.26 +0.00    +0.006 A  
DOCKED: ATOM      5  C   UNL     1     -61.625 -37.100   6.994 -0.17 +0.00    +0.169 C  
DOCKED: ATOM      6  C   UNL     1     -58.209 -37.860   5.901 -0.37 -0.00    -0.001 A  
DOCKED: ATOM      7  C   UNL     1     -60.772 -38.027   4.738 -0.17 +0.00    +0.008 A  
DOCKED: ATOM      8  C   UNL     1     -58.364 -38.323   4.594 -0.29 +0.00    +0.010 A  
DOCKED: ATOM      9  C   UNL     1     -59.640 -38.406   4.015 -0.38 +0.00    +0.068 A  
DOCKED: ATOM     10  N   UNL     1     -59.893 -39.266   1.584 -2.67 -0.00    -0.191 NA 
DOCKED: ATOM     11  C   UNL     1     -59.780 -38.881   2.675 -0.29 +0.00    +0.101 C  
DOCKED: ENDROOT
DOCKED: BRANCH   2  12
DOCKED: ATOM     12  C   UNL     1     -58.843 -35.580   8.179 -0.12 +0.00    +0.038 C  
DOCKED: BRANCH  12  13
DOCKED: ATOM     13  C   UNL     1     -59.914 -34.491   8.194 -0.12 +0.00    +0.038 C  
DOCKED: BRANCH  13  14
DOCKED: ATOM     14  C   UNL     1     -60.377 -34.156   6.777 -0.16 +0.00    +0.251 C  
DOCKED: BRANCH  14  15
DOCKED: ATOM     15  N   UNL     1     -59.803 -32.888   6.343 -0.20 +0.00    +0.141 N  
DOCKED: ATOM     16  C   UNL     1     -60.562 -31.763   6.891 -0.11 +0.00    +0.285 C  
DOCKED: ATOM     17  C   UNL     1     -58.398 -32.794   6.742 -0.12 +0.00    +0.285 C  
DOCKED: ENDBRANCH  14  15
DOCKED: ENDBRANCH  13  14
DOCKED: ENDBRANCH  12  13
DOCKED: ENDBRANCH   2  12
DOCKED: BRANCH   2  18
DOCKED: ATOM     18  C   UNL     1     -58.939 -37.913   9.038 -0.13 +0.00    +0.006 A  
DOCKED: ATOM     19  C   UNL     1     -59.022 -37.591  10.392 -0.08 +0.00    +0.001 A  
DOCKED: ATOM     20  C   UNL     1     -58.534 -38.479  11.351 -0.12 +0.00    +0.029 A  
DOCKED: ATOM     21  C   UNL     1     -57.963 -39.688  10.954 -0.16 +0.00    +0.140 A  
DOCKED: ATOM     22  C   UNL     1     -57.881 -40.010   9.600 -0.18 +0.00    +0.029 A  
DOCKED: ATOM     23  F   UNL     1     -57.496 -40.542  11.875 -0.10 -0.00    -0.204 F  
DOCKED: ATOM     24  C   UNL     1     -58.369 -39.122   8.640 -0.26 +0.00    +0.001 A  
DOCKED: ENDBRANCH   2  18
DOCKED: TORSDOF 5
DOCKED: TER
DOCKED: ENDMDL
________________________________________________________________________________


    FINAL DOCKED STATE:
    ________________________


Run:   467 / 512
Time taken for this run:   0.002s

DOCKED: MODEL        467
DOCKED: USER    Run = 467
DOCKED: USER
DOCKED: USER    Estimated Free Energy of Binding    =  -5.59 kcal/mol  [=(1)+(2)+(3)-(4)]
DOCKED: USER
DOCKED: USER    (1) Final Intermolecular Energy     =  -7.08 kcal/mol
DOCKED: USER        vdW + Hbond + desolv Energy     =  -7.08 kcal/mol
DOCKED: USER        Electrostatic Energy            =  +0.00 kcal/mol
DOCKED: USER        Moving Ligand-Fixed Receptor    =  -7.08 kcal/mol
DOCKED: USER        Moving Ligand-Moving Receptor   =  +0.00 kcal/mol
DOCKED: USER    (2) Final Total Internal Energy     =  -0.88 kcal/mol
DOCKED: USER    (3) Torsional Free Energy           =  +1.49 kcal/mol
DOCKED: USER    (4) Unbound System's Energy         =  -0.88 kcal/mol
DOCKED: USER
DOCKED: USER
DOCKED: REMARK  5 active torsions:
DOCKED: REMARK  status: ('A' for Active; 'I' for Inactive)
DOCKED: REMARK    1  A    between atoms: C_2  and  C_19 
DOCKED: REMARK    2  A    between atoms: C_2  and  C_11 
DOCKED: REMARK    3  A    between atoms: C_19  and  C_20 
DOCKED: REMARK    4  A    between atoms: C_20  and  C_21 
DOCKED: REMARK    5  A    between atoms: C_21  and  N_22 
DOCKED: USER                              x       y       z     vdW  Elec       q    Type
DOCKED: USER                           _______ _______ _______ _____ _____    ______ ____
DOCKED: ROOT
DOCKED: ATOM      1  O   UNL     1     -57.635 -37.194   8.250 -0.05 -0.00    -0.346 OA 
DOCKED: ATOM      2  C   UNL     1     -58.753 -38.135   8.335 -0.16 +0.00    +0.130 C  
DOCKED: ATOM      3  C   UNL     1     -59.156 -38.345   6.904 -0.26 +0.00    +0.004 A  
DOCKED: ATOM      4  C   UNL     1     -58.277 -37.671   6.067 -0.36 +0.00    +0.006 A  
DOCKED: ATOM      5  C   UNL     1     -57.239 -36.990   6.873 -0.23 +0.00    +0.169 C  
DOCKED: ATOM      6  C   UNL     1     -60.209 -39.082   6.383 -0.22 -0.00    -0.001 A  
DOCKED: ATOM      7  C   UNL     1     -58.421 -37.707   4.691 -0.24 +0.00    +0.008 A  
DOCKED: ATOM      8  C   UNL     1     -60.371 -39.124   4.997 -0.39 +0.00    +0.010 A  
DOCKED: ATOM      9  C   UNL     1     -59.481 -38.441   4.156 -0.40 +0.00    +0.068 A  
DOCKED: ATOM     10  N   UNL     1     -59.806 -38.544   1.587 -3.16 -0.00    -0.191 NA 
DOCKED: ATOM     11  C   UNL     1     -59.661 -38.497   2.739 -0.32 +0.00    +0.101 C  
DOCKED: ENDROOT
DOCKED: BRANCH   2  12
DOCKED: ATOM     12  C   UNL     1     -58.260 -39.411   9.006 -0.31 +0.00    +0.038 C  
DOCKED: BRANCH  12  13
DOCKED: ATOM     13  C   UNL     1     -57.258 -39.105  10.117 -0.16 +0.00    +0.038 C  
DOCKED: BRANCH  13  14
DOCKED: ATOM     14  C   UNL     1     -57.651 -39.802  11.418 -0.17 +0.00    +0.251 C  
DOCKED: BRANCH  14  15
DOCKED: ATOM     15  N   UNL     1     -56.936 -39.213  12.545 -0.12 +0.00    +0.141 N  
DOCKED: ATOM     16  C   UNL     1     -56.891 -40.146  13.672 -0.11 +0.00    +0.285 C  
DOCKED: ATOM     17  C   UNL     1     -55.580 -38.829  12.151 -0.10 +0.00    +0.285 C  
DOCKED: ENDBRANCH  14  15
DOCKED: ENDBRANCH  13  14
DOCKED: ENDBRANCH  12  13
DOCKED: ENDBRANCH   2  12
DOCKED: BRANCH   2  18
DOCKED: ATOM     18  C   UNL     1     -59.817 -37.476   9.148 -0.09 +0.00    +0.006 A  
DOCKED: ATOM     19  C   UNL     1     -61.115 -37.380   8.649 -0.11 +0.00    +0.001 A  
DOCKED: ATOM     20  C   UNL     1     -62.109 -36.763   9.411 -0.07 +0.00    +0.029 A  
DOCKED: ATOM     21  C   UNL     1     -61.803 -36.244  10.668 -0.01 +0.00    +0.140 A  
DOCKED: ATOM     22  C   UNL     1     -60.504 -36.341  11.166 -0.02 +0.00    +0.029 A  
DOCKED: ATOM     23  F   UNL     1     -62.758 -35.654  11.399 +0.01 -0.00    -0.204 F  
DOCKED: ATOM     24  C   UNL     1     -59.509 -36.957  10.405 -0.05 +0.00    +0.001 A  
DOCKED: ENDBRANCH   2  18
DOCKED: TORSDOF 5
DOCKED: TER
DOCKED: ENDMDL
________________________________________________________________________________


    FINAL DOCKED STATE:
    ________________________


Run:   468 / 512
Time taken for this run:   0.002s

DOCKED: MODEL        468
DOCKED: USER    Run = 468
DOCKED: USER
DOCKED: USER    Estimated Free Energy of Binding    =  -3.77 kcal/mol  [=(1)+(2)+(3)-(4)]
DOCKED: USER
DOCKED: USER    (1) Final Intermolecular Energy     =  -5.26 kcal/mol
DOCKED: USER        vdW + Hbond + desolv Energy     =  -5.26 kcal/mol
DOCKED: USER        Electrostatic Energy            =  +0.00 kcal/mol
DOCKED: USER        Moving Ligand-Fixed Receptor    =  -5.26 kcal/mol
DOCKED: USER        Moving Ligand-Moving Receptor   =  +0.00 kcal/mol
DOCKED: USER    (2) Final Total Internal Energy     =  -1.24 kcal/mol
DOCKED: USER    (3) Torsional Free Energy           =  +1.49 kcal/mol
DOCKED: USER    (4) Unbound System's Energy         =  -1.24 kcal/mol
DOCKED: USER
DOCKED: USER
DOCKED: REMARK  5 active torsions:
DOCKED: REMARK  status: ('A' for Active; 'I' for Inactive)
DOCKED: REMARK    1  A    between atoms: C_2  and  C_19 
DOCKED: REMARK    2  A    between atoms: C_2  and  C_11 
DOCKED: REMARK    3  A    between atoms: C_19  and  C_20 
DOCKED: REMARK    4  A    between atoms: C_20  and  C_21 
DOCKED: REMARK    5  A    between atoms: C_21  and  N_22 
DOCKED: USER                              x       y       z     vdW  Elec       q    Type
DOCKED: USER                           _______ _______ _______ _____ _____    ______ ____
DOCKED: ROOT
DOCKED: ATOM      1  O   UNL     1     -53.209 -29.979   0.224 -0.03 -0.00    -0.346 OA 
DOCKED: ATOM      2  C   UNL     1     -54.610 -30.053  -0.192 -0.20 +0.00    +0.130 C  
DOCKED: ATOM      3  C   UNL     1     -54.709 -29.048  -1.304 -0.25 +0.00    +0.004 A  
DOCKED: ATOM      4  C   UNL     1     -53.452 -28.526  -1.574 -0.17 +0.00    +0.006 A  
DOCKED: ATOM      5  C   UNL     1     -52.448 -29.148  -0.683 -0.09 +0.00    +0.169 C  
DOCKED: ATOM      6  C   UNL     1     -55.821 -28.638  -2.025 -0.32 -0.00    -0.001 A  
DOCKED: ATOM      7  C   UNL     1     -53.264 -27.578  -2.565 -0.18 +0.00    +0.008 A  
DOCKED: ATOM      8  C   UNL     1     -55.648 -27.680  -3.026 -0.41 +0.00    +0.010 A  
DOCKED: ATOM      9  C   UNL     1     -54.376 -27.153  -3.294 -0.27 +0.00    +0.068 A  
DOCKED: ATOM     10  N   UNL     1     -54.089 -25.379  -5.161 -0.87 -0.00    -0.191 NA 
DOCKED: ATOM     11  C   UNL     1     -54.218 -26.174  -4.323 -0.28 +0.00    +0.101 C  
DOCKED: ENDROOT
DOCKED: BRANCH   2  12
DOCKED: ATOM     12  C   UNL     1     -54.902 -31.477  -0.652 -0.22 +0.00    +0.038 C  
DOCKED: BRANCH  12  13
DOCKED: ATOM     13  C   UNL     1     -54.528 -31.676  -2.119 -0.14 +0.00    +0.038 C  
DOCKED: BRANCH  13  14
DOCKED: ATOM     14  C   UNL     1     -53.418 -32.716  -2.266 -0.18 +0.00    +0.251 C  
DOCKED: BRANCH  14  15
DOCKED: ATOM     15  N   UNL     1     -52.779 -32.594  -3.571 -0.15 +0.00    +0.141 N  
DOCKED: ATOM     16  C   UNL     1     -52.468 -31.195  -3.866 -0.09 +0.00    +0.285 C  
DOCKED: ATOM     17  C   UNL     1     -51.564 -33.408  -3.628 -0.06 +0.00    +0.285 C  
DOCKED: ENDBRANCH  14  15
DOCKED: ENDBRANCH  13  14
DOCKED: ENDBRANCH  12  13
DOCKED: ENDBRANCH   2  12
DOCKED: BRANCH   2  18
DOCKED: ATOM     18  C   UNL     1     -55.438 -29.690   0.995 -0.24 +0.00    +0.006 A  
DOCKED: ATOM     19  C   UNL     1     -54.836 -29.119   2.116 -0.19 +0.00    +0.001 A  
DOCKED: ATOM     20  C   UNL     1     -55.611 -28.781   3.226 -0.19 +0.00    +0.029 A  
DOCKED: ATOM     21  C   UNL     1     -56.986 -29.013   3.213 -0.15 +0.00    +0.140 A  
DOCKED: ATOM     22  C   UNL     1     -57.587 -29.583   2.091 -0.27 +0.00    +0.029 A  
DOCKED: ATOM     23  F   UNL     1     -57.730 -28.686   4.278 -0.01 -0.00    -0.204 F  
DOCKED: ATOM     24  C   UNL     1     -56.813 -29.923   0.981 -0.29 +0.00    +0.001 A  
DOCKED: ENDBRANCH   2  18
DOCKED: TORSDOF 5
DOCKED: TER
DOCKED: ENDMDL
________________________________________________________________________________


    FINAL DOCKED STATE:
    ________________________


Run:   469 / 512
Time taken for this run:   0.002s

DOCKED: MODEL        469
DOCKED: USER    Run = 469
DOCKED: USER
DOCKED: USER    Estimated Free Energy of Binding    =  -4.04 kcal/mol  [=(1)+(2)+(3)-(4)]
DOCKED: USER
DOCKED: USER    (1) Final Intermolecular Energy     =  -5.53 kcal/mol
DOCKED: USER        vdW + Hbond + desolv Energy     =  -5.53 kcal/mol
DOCKED: USER        Electrostatic Energy            =  +0.00 kcal/mol
DOCKED: USER        Moving Ligand-Fixed Receptor    =  -5.53 kcal/mol
DOCKED: USER        Moving Ligand-Moving Receptor   =  +0.00 kcal/mol
DOCKED: USER    (2) Final Total Internal Energy     =  -1.36 kcal/mol
DOCKED: USER    (3) Torsional Free Energy           =  +1.49 kcal/mol
DOCKED: USER    (4) Unbound System's Energy         =  -1.36 kcal/mol
DOCKED: USER
DOCKED: USER
DOCKED: REMARK  5 active torsions:
DOCKED: REMARK  status: ('A' for Active; 'I' for Inactive)
DOCKED: REMARK    1  A    between atoms: C_2  and  C_19 
DOCKED: REMARK    2  A    between atoms: C_2  and  C_11 
DOCKED: REMARK    3  A    between atoms: C_19  and  C_20 
DOCKED: REMARK    4  A    between atoms: C_20  and  C_21 
DOCKED: REMARK    5  A    between atoms: C_21  and  N_22 
DOCKED: USER                              x       y       z     vdW  Elec       q    Type
DOCKED: USER                           _______ _______ _______ _____ _____    ______ ____
DOCKED: ROOT
DOCKED: ATOM      1  O   UNL     1     -50.095 -39.211  -2.163 -0.02 -0.00    -0.346 OA 
DOCKED: ATOM      2  C   UNL     1     -49.894 -38.017  -1.341 -0.09 +0.00    +0.130 C  
DOCKED: ATOM      3  C   UNL     1     -50.403 -38.421   0.012 -0.13 +0.00    +0.004 A  
DOCKED: ATOM      4  C   UNL     1     -50.760 -39.762  -0.005 -0.20 +0.00    +0.006 A  
DOCKED: ATOM      5  C   UNL     1     -50.505 -40.333  -1.346 -0.08 +0.00    +0.169 C  
DOCKED: ATOM      6  C   UNL     1     -50.529 -37.666   1.169 -0.12 -0.00    -0.001 A  
DOCKED: ATOM      7  C   UNL     1     -51.257 -40.390   1.125 -0.31 +0.00    +0.008 A  
DOCKED: ATOM      8  C   UNL     1     -51.032 -38.283   2.315 -0.22 +0.00    +0.010 A  
DOCKED: ATOM      9  C   UNL     1     -51.394 -39.638   2.293 -0.32 +0.00    +0.068 A  
DOCKED: ATOM     10  N   UNL     1     -52.320 -40.755   4.439 -2.65 -0.00    -0.191 NA 
DOCKED: ATOM     11  C   UNL     1     -51.905 -40.254   3.476 -0.38 +0.00    +0.101 C  
DOCKED: ENDROOT
DOCKED: BRANCH   2  12
DOCKED: ATOM     12  C   UNL     1     -48.408 -37.677  -1.339 -0.03 +0.00    +0.038 C  
DOCKED: BRANCH  12  13
DOCKED: ATOM     13  C   UNL     1     -47.581 -38.791  -1.976 -0.02 +0.00    +0.038 C  
DOCKED: BRANCH  13  14
DOCKED: ATOM     14  C   UNL     1     -47.175 -38.427  -3.403 -0.00 +0.00    +0.251 C  
DOCKED: BRANCH  14  15
DOCKED: ATOM     15  N   UNL     1     -48.358 -38.256  -4.239 -0.02 +0.00    +0.141 N  
DOCKED: ATOM     16  C   UNL     1     -48.124 -37.235  -5.261 -0.00 +0.00    +0.285 C  
DOCKED: ATOM     17  C   UNL     1     -48.735 -39.524  -4.865 -0.03 +0.00    +0.285 C  
DOCKED: ENDBRANCH  14  15
DOCKED: ENDBRANCH  13  14
DOCKED: ENDBRANCH  12  13
DOCKED: ENDBRANCH   2  12
DOCKED: BRANCH   2  18
DOCKED: ATOM     18  C   UNL     1     -50.696 -36.921  -1.961 -0.09 +0.00    +0.006 A  
DOCKED: ATOM     19  C   UNL     1     -51.145 -35.858  -1.178 -0.12 +0.00    +0.001 A  
DOCKED: ATOM     20  C   UNL     1     -51.895 -34.835  -1.759 -0.16 +0.00    +0.029 A  
DOCKED: ATOM     21  C   UNL     1     -52.194 -34.875  -3.120 -0.19 +0.00    +0.140 A  
DOCKED: ATOM     22  C   UNL     1     -51.745 -35.939  -3.902 -0.18 +0.00    +0.029 A  
DOCKED: ATOM     23  F   UNL     1     -52.913 -33.892  -3.677 -0.11 -0.00    -0.204 F  
DOCKED: ATOM     24  C   UNL     1     -50.995 -36.963  -3.322 -0.06 +0.00    +0.001 A  
DOCKED: ENDBRANCH   2  18
DOCKED: TORSDOF 5
DOCKED: TER
DOCKED: ENDMDL
________________________________________________________________________________


    FINAL DOCKED STATE:
    ________________________


Run:   470 / 512
Time taken for this run:   0.002s

DOCKED: MODEL        470
DOCKED: USER    Run = 470
DOCKED: USER
DOCKED: USER    Estimated Free Energy of Binding    =  -3.79 kcal/mol  [=(1)+(2)+(3)-(4)]
DOCKED: USER
DOCKED: USER    (1) Final Intermolecular Energy     =  -5.28 kcal/mol
DOCKED: USER        vdW + Hbond + desolv Energy     =  -5.28 kcal/mol
DOCKED: USER        Electrostatic Energy            =  +0.00 kcal/mol
DOCKED: USER        Moving Ligand-Fixed Receptor    =  -5.28 kcal/mol
DOCKED: USER        Moving Ligand-Moving Receptor   =  +0.00 kcal/mol
DOCKED: USER    (2) Final Total Internal Energy     =  -1.62 kcal/mol
DOCKED: USER    (3) Torsional Free Energy           =  +1.49 kcal/mol
DOCKED: USER    (4) Unbound System's Energy         =  -1.62 kcal/mol
DOCKED: USER
DOCKED: USER
DOCKED: REMARK  5 active torsions:
DOCKED: REMARK  status: ('A' for Active; 'I' for Inactive)
DOCKED: REMARK    1  A    between atoms: C_2  and  C_19 
DOCKED: REMARK    2  A    between atoms: C_2  and  C_11 
DOCKED: REMARK    3  A    between atoms: C_19  and  C_20 
DOCKED: REMARK    4  A    between atoms: C_20  and  C_21 
DOCKED: REMARK    5  A    between atoms: C_21  and  N_22 
DOCKED: USER                              x       y       z     vdW  Elec       q    Type
DOCKED: USER                           _______ _______ _______ _____ _____    ______ ____
DOCKED: ROOT
DOCKED: ATOM      1  O   UNL     1     -55.881 -36.422   9.727 -0.03 -0.00    -0.346 OA 
DOCKED: ATOM      2  C   UNL     1     -56.371 -35.521   8.683 -0.10 +0.00    +0.130 C  
DOCKED: ATOM      3  C   UNL     1     -57.081 -36.432   7.725 -0.20 +0.00    +0.004 A  
DOCKED: ATOM      4  C   UNL     1     -57.092 -37.725   8.230 -0.23 +0.00    +0.006 A  
DOCKED: ATOM      5  C   UNL     1     -56.412 -37.755   9.545 -0.12 +0.00    +0.169 C  
DOCKED: ATOM      6  C   UNL     1     -57.680 -36.139   6.508 -0.29 -0.00    -0.001 A  
DOCKED: ATOM      7  C   UNL     1     -57.693 -38.763   7.541 -0.33 +0.00    +0.008 A  
DOCKED: ATOM      8  C   UNL     1     -58.286 -37.177   5.798 -0.35 +0.00    +0.010 A  
DOCKED: ATOM      9  C   UNL     1     -58.294 -38.482   6.312 -0.32 +0.00    +0.068 A  
DOCKED: ATOM     10  N   UNL     1     -59.433 -40.384   4.971 -2.38 -0.00    -0.191 NA 
DOCKED: ATOM     11  C   UNL     1     -58.921 -39.531   5.573 -0.31 +0.00    +0.101 C  
DOCKED: ENDROOT
DOCKED: BRANCH   2  12
DOCKED: ATOM     12  C   UNL     1     -57.299 -34.497   9.327 -0.05 +0.00    +0.038 C  
DOCKED: BRANCH  12  13
DOCKED: ATOM     13  C   UNL     1     -57.110 -34.449  10.842 -0.01 +0.00    +0.038 C  
DOCKED: BRANCH  13  14
DOCKED: ATOM     14  C   UNL     1     -55.958 -33.520  11.222 -0.00 +0.00    +0.251 C  
DOCKED: BRANCH  14  15
DOCKED: ATOM     15  N   UNL     1     -54.691 -34.239  11.178 -0.00 +0.00    +0.141 N  
DOCKED: ATOM     16  C   UNL     1     -53.566 -33.302  11.153 -0.00 +0.00    +0.285 C  
DOCKED: ATOM     17  C   UNL     1     -54.572 -35.144  12.322 -0.00 +0.00    +0.285 C  
DOCKED: ENDBRANCH  14  15
DOCKED: ENDBRANCH  13  14
DOCKED: ENDBRANCH  12  13
DOCKED: ENDBRANCH   2  12
DOCKED: BRANCH   2  18
DOCKED: ATOM     18  C   UNL     1     -55.177 -34.860   8.081 -0.11 +0.00    +0.006 A  
DOCKED: ATOM     19  C   UNL     1     -53.943 -35.510   8.087 -0.12 +0.00    +0.001 A  
DOCKED: ATOM     20  C   UNL     1     -52.827 -34.891   7.523 -0.10 +0.00    +0.029 A  
DOCKED: ATOM     21  C   UNL     1     -52.945 -33.624   6.955 -0.06 +0.00    +0.140 A  
DOCKED: ATOM     22  C   UNL     1     -54.179 -32.974   6.949 -0.07 +0.00    +0.029 A  
DOCKED: ATOM     23  F   UNL     1     -51.874 -33.031   6.412 -0.00 -0.00    -0.204 F  
DOCKED: ATOM     24  C   UNL     1     -55.296 -33.592   7.513 -0.10 +0.00    +0.001 A  
DOCKED: ENDBRANCH   2  18
DOCKED: TORSDOF 5
DOCKED: TER
DOCKED: ENDMDL
________________________________________________________________________________


    FINAL DOCKED STATE:
    ________________________


Run:   471 / 512
Time taken for this run:   0.002s

DOCKED: MODEL        471
DOCKED: USER    Run = 471
DOCKED: USER
DOCKED: USER    Estimated Free Energy of Binding    =  -3.84 kcal/mol  [=(1)+(2)+(3)-(4)]
DOCKED: USER
DOCKED: USER    (1) Final Intermolecular Energy     =  -5.33 kcal/mol
DOCKED: USER        vdW + Hbond + desolv Energy     =  -5.33 kcal/mol
DOCKED: USER        Electrostatic Energy            =  +0.00 kcal/mol
DOCKED: USER        Moving Ligand-Fixed Receptor    =  -5.33 kcal/mol
DOCKED: USER        Moving Ligand-Moving Receptor   =  +0.00 kcal/mol
DOCKED: USER    (2) Final Total Internal Energy     =  -1.29 kcal/mol
DOCKED: USER    (3) Torsional Free Energy           =  +1.49 kcal/mol
DOCKED: USER    (4) Unbound System's Energy         =  -1.29 kcal/mol
DOCKED: USER
DOCKED: USER
DOCKED: REMARK  5 active torsions:
DOCKED: REMARK  status: ('A' for Active; 'I' for Inactive)
DOCKED: REMARK    1  A    between atoms: C_2  and  C_19 
DOCKED: REMARK    2  A    between atoms: C_2  and  C_11 
DOCKED: REMARK    3  A    between atoms: C_19  and  C_20 
DOCKED: REMARK    4  A    between atoms: C_20  and  C_21 
DOCKED: REMARK    5  A    between atoms: C_21  and  N_22 
DOCKED: USER                              x       y       z     vdW  Elec       q    Type
DOCKED: USER                           _______ _______ _______ _____ _____    ______ ____
DOCKED: ROOT
DOCKED: ATOM      1  O   UNL     1     -49.188 -37.926  -1.848 -0.00 -0.00    -0.346 OA 
DOCKED: ATOM      2  C   UNL     1     -49.799 -36.830  -1.095 -0.07 +0.00    +0.130 C  
DOCKED: ATOM      3  C   UNL     1     -50.444 -37.514   0.075 -0.12 +0.00    +0.004 A  
DOCKED: ATOM      4  C   UNL     1     -50.136 -38.867   0.053 -0.13 +0.00    +0.006 A  
DOCKED: ATOM      5  C   UNL     1     -49.268 -39.166  -1.108 -0.06 +0.00    +0.169 C  
DOCKED: ATOM      6  C   UNL     1     -51.232 -36.980   1.085 -0.15 -0.00    -0.001 A  
DOCKED: ATOM      7  C   UNL     1     -50.605 -39.728   1.031 -0.22 +0.00    +0.008 A  
DOCKED: ATOM      8  C   UNL     1     -51.715 -37.836   2.075 -0.27 +0.00    +0.010 A  
DOCKED: ATOM      9  C   UNL     1     -51.403 -39.204   2.048 -0.28 +0.00    +0.068 A  
DOCKED: ATOM     10  N   UNL     1     -52.313 -40.765   3.905 -2.55 -0.00    -0.191 NA 
DOCKED: ATOM     11  C   UNL     1     -51.905 -40.065   3.072 -0.43 +0.00    +0.101 C  
DOCKED: ENDROOT
DOCKED: BRANCH   2  12
DOCKED: ATOM     12  C   UNL     1     -48.701 -35.857  -0.682 -0.01 +0.00    +0.038 C  
DOCKED: BRANCH  12  13
DOCKED: ATOM     13  C   UNL     1     -47.472 -35.991  -1.579 -0.00 +0.00    +0.038 C  
DOCKED: BRANCH  13  14
DOCKED: ATOM     14  C   UNL     1     -47.785 -35.557  -3.009 -0.00 +0.00    +0.251 C  
DOCKED: BRANCH  14  15
DOCKED: ATOM     15  N   UNL     1     -47.558 -34.125  -3.166 -0.00 +0.00    +0.141 N  
DOCKED: ATOM     16  C   UNL     1     -48.811 -33.384  -3.011 +0.00 +0.00    +0.285 C  
DOCKED: ATOM     17  C   UNL     1     -46.566 -33.652  -2.199 +0.00 +0.00    +0.285 C  
DOCKED: ENDBRANCH  14  15
DOCKED: ENDBRANCH  13  14
DOCKED: ENDBRANCH  12  13
DOCKED: ENDBRANCH   2  12
DOCKED: BRANCH   2  18
DOCKED: ATOM     18  C   UNL     1     -50.786 -36.174  -2.002 -0.13 +0.00    +0.006 A  
DOCKED: ATOM     19  C   UNL     1     -51.089 -36.750  -3.235 -0.09 +0.00    +0.001 A  
DOCKED: ATOM     20  C   UNL     1     -52.012 -36.136  -4.083 -0.13 +0.00    +0.029 A  
DOCKED: ATOM     21  C   UNL     1     -52.630 -34.948  -3.696 -0.20 +0.00    +0.140 A  
DOCKED: ATOM     22  C   UNL     1     -52.327 -34.372  -2.462 -0.20 +0.00    +0.029 A  
DOCKED: ATOM     23  F   UNL     1     -53.517 -34.359  -4.509 -0.14 -0.00    -0.204 F  
DOCKED: ATOM     24  C   UNL     1     -51.404 -34.986  -1.614 -0.14 +0.00    +0.001 A  
DOCKED: ENDBRANCH   2  18
DOCKED: TORSDOF 5
DOCKED: TER
DOCKED: ENDMDL
________________________________________________________________________________


    FINAL DOCKED STATE:
    ________________________


Run:   472 / 512
Time taken for this run:   0.002s

DOCKED: MODEL        472
DOCKED: USER    Run = 472
DOCKED: USER
DOCKED: USER    Estimated Free Energy of Binding    =  -3.61 kcal/mol  [=(1)+(2)+(3)-(4)]
DOCKED: USER
DOCKED: USER    (1) Final Intermolecular Energy     =  -5.11 kcal/mol
DOCKED: USER        vdW + Hbond + desolv Energy     =  -5.11 kcal/mol
DOCKED: USER        Electrostatic Energy            =  +0.00 kcal/mol
DOCKED: USER        Moving Ligand-Fixed Receptor    =  -5.11 kcal/mol
DOCKED: USER        Moving Ligand-Moving Receptor   =  +0.00 kcal/mol
DOCKED: USER    (2) Final Total Internal Energy     =  -1.50 kcal/mol
DOCKED: USER    (3) Torsional Free Energy           =  +1.49 kcal/mol
DOCKED: USER    (4) Unbound System's Energy         =  -1.50 kcal/mol
DOCKED: USER
DOCKED: USER
DOCKED: REMARK  5 active torsions:
DOCKED: REMARK  status: ('A' for Active; 'I' for Inactive)
DOCKED: REMARK    1  A    between atoms: C_2  and  C_19 
DOCKED: REMARK    2  A    between atoms: C_2  and  C_11 
DOCKED: REMARK    3  A    between atoms: C_19  and  C_20 
DOCKED: REMARK    4  A    between atoms: C_20  and  C_21 
DOCKED: REMARK    5  A    between atoms: C_21  and  N_22 
DOCKED: USER                              x       y       z     vdW  Elec       q    Type
DOCKED: USER                           _______ _______ _______ _____ _____    ______ ____
DOCKED: ROOT
DOCKED: ATOM      1  O   UNL     1     -53.140 -34.442   0.678 -0.03 -0.00    -0.346 OA 
DOCKED: ATOM      2  C   UNL     1     -51.747 -34.519   1.119 -0.08 +0.00    +0.130 C  
DOCKED: ATOM      3  C   UNL     1     -51.656 -35.858   1.792 -0.15 +0.00    +0.004 A  
DOCKED: ATOM      4  C   UNL     1     -52.860 -36.534   1.651 -0.31 +0.00    +0.006 A  
DOCKED: ATOM      5  C   UNL     1     -53.812 -35.708   0.877 -0.22 +0.00    +0.169 C  
DOCKED: ATOM      6  C   UNL     1     -50.589 -36.437   2.464 -0.10 -0.00    -0.001 A  
DOCKED: ATOM      7  C   UNL     1     -53.040 -37.801   2.179 -0.25 +0.00    +0.008 A  
DOCKED: ATOM      8  C   UNL     1     -50.757 -37.712   3.005 -0.18 +0.00    +0.010 A  
DOCKED: ATOM      9  C   UNL     1     -51.976 -38.391   2.862 -0.28 +0.00    +0.068 A  
DOCKED: ATOM     10  N   UNL     1     -52.252 -40.760   3.875 -2.53 -0.00    -0.191 NA 
DOCKED: ATOM     11  C   UNL     1     -52.129 -39.698   3.421 -0.29 +0.00    +0.101 C  
DOCKED: ENDROOT
DOCKED: BRANCH   2  12
DOCKED: ATOM     12  C   UNL     1     -50.847 -34.408  -0.106 -0.06 +0.00    +0.038 C  
DOCKED: BRANCH  12  13
DOCKED: ATOM     13  C   UNL     1     -51.660 -34.432  -1.399 -0.14 +0.00    +0.038 C  
DOCKED: BRANCH  13  14
DOCKED: ATOM     14  C   UNL     1     -51.911 -33.016  -1.916 -0.07 +0.00    +0.251 C  
DOCKED: BRANCH  14  15
DOCKED: ATOM     15  N   UNL     1     -52.980 -32.381  -1.155 -0.11 +0.00    +0.141 N  
DOCKED: ATOM     16  C   UNL     1     -52.515 -31.127  -0.559 -0.03 +0.00    +0.285 C  
DOCKED: ATOM     17  C   UNL     1     -54.145 -32.135  -2.007 -0.15 +0.00    +0.285 C  
DOCKED: ENDBRANCH  14  15
DOCKED: ENDBRANCH  13  14
DOCKED: ENDBRANCH  12  13
DOCKED: ENDBRANCH   2  12
DOCKED: BRANCH   2  18
DOCKED: ATOM     18  C   UNL     1     -51.522 -33.381   2.057 -0.04 +0.00    +0.006 A  
DOCKED: ATOM     19  C   UNL     1     -52.611 -32.718   2.622 -0.06 +0.00    +0.001 A  
DOCKED: ATOM     20  C   UNL     1     -52.399 -31.653   3.498 -0.03 +0.00    +0.029 A  
DOCKED: ATOM     21  C   UNL     1     -51.101 -31.253   3.809 -0.01 +0.00    +0.140 A  
DOCKED: ATOM     22  C   UNL     1     -50.012 -31.917   3.244 -0.01 +0.00    +0.029 A  
DOCKED: ATOM     23  F   UNL     1     -50.898 -30.232   4.652 +0.00 -0.00    -0.204 F  
DOCKED: ATOM     24  C   UNL     1     -50.222 -32.982   2.366 -0.01 +0.00    +0.001 A  
DOCKED: ENDBRANCH   2  18
DOCKED: TORSDOF 5
DOCKED: TER
DOCKED: ENDMDL
________________________________________________________________________________


    FINAL DOCKED STATE:
    ________________________


Run:   473 / 512
Time taken for this run:   0.002s

DOCKED: MODEL        473
DOCKED: USER    Run = 473
DOCKED: USER
DOCKED: USER    Estimated Free Energy of Binding    =  -6.03 kcal/mol  [=(1)+(2)+(3)-(4)]
DOCKED: USER
DOCKED: USER    (1) Final Intermolecular Energy     =  -7.52 kcal/mol
DOCKED: USER        vdW + Hbond + desolv Energy     =  -7.52 kcal/mol
DOCKED: USER        Electrostatic Energy            =  +0.00 kcal/mol
DOCKED: USER        Moving Ligand-Fixed Receptor    =  -7.52 kcal/mol
DOCKED: USER        Moving Ligand-Moving Receptor   =  +0.00 kcal/mol
DOCKED: USER    (2) Final Total Internal Energy     =  -1.30 kcal/mol
DOCKED: USER    (3) Torsional Free Energy           =  +1.49 kcal/mol
DOCKED: USER    (4) Unbound System's Energy         =  -1.30 kcal/mol
DOCKED: USER
DOCKED: USER
DOCKED: REMARK  5 active torsions:
DOCKED: REMARK  status: ('A' for Active; 'I' for Inactive)
DOCKED: REMARK    1  A    between atoms: C_2  and  C_19 
DOCKED: REMARK    2  A    between atoms: C_2  and  C_11 
DOCKED: REMARK    3  A    between atoms: C_19  and  C_20 
DOCKED: REMARK    4  A    between atoms: C_20  and  C_21 
DOCKED: REMARK    5  A    between atoms: C_21  and  N_22 
DOCKED: USER                              x       y       z     vdW  Elec       q    Type
DOCKED: USER                           _______ _______ _______ _____ _____    ______ ____
DOCKED: ROOT
DOCKED: ATOM      1  O   UNL     1     -57.389 -36.328   7.902 -0.06 -0.00    -0.346 OA 
DOCKED: ATOM      2  C   UNL     1     -57.208 -37.780   7.862 -0.24 +0.00    +0.130 C  
DOCKED: ATOM      3  C   UNL     1     -57.768 -38.175   6.527 -0.35 +0.00    +0.004 A  
DOCKED: ATOM      4  C   UNL     1     -58.135 -37.040   5.819 -0.33 +0.00    +0.006 A  
DOCKED: ATOM      5  C   UNL     1     -57.836 -35.831   6.619 -0.24 +0.00    +0.169 C  
DOCKED: ATOM      6  C   UNL     1     -57.929 -39.439   5.978 -0.35 -0.00    -0.001 A  
DOCKED: ATOM      7  C   UNL     1     -58.676 -37.126   4.548 -0.07 +0.00    +0.008 A  
DOCKED: ATOM      8  C   UNL     1     -58.478 -39.543   4.698 -0.47 +0.00    +0.010 A  
DOCKED: ATOM      9  C   UNL     1     -58.849 -38.392   3.987 -0.41 +0.00    +0.068 A  
DOCKED: ATOM     10  N   UNL     1     -59.859 -38.621   1.612 -3.09 -0.00    -0.191 NA 
DOCKED: ATOM     11  C   UNL     1     -59.407 -38.519   2.677 -0.43 +0.00    +0.101 C  
DOCKED: ENDROOT
DOCKED: BRANCH   2  12
DOCKED: ATOM     12  C   UNL     1     -55.721 -38.085   7.996 -0.14 +0.00    +0.038 C  
DOCKED: BRANCH  12  13
DOCKED: ATOM     13  C   UNL     1     -55.015 -37.042   8.861 -0.20 +0.00    +0.038 C  
DOCKED: BRANCH  13  14
DOCKED: ATOM     14  C   UNL     1     -54.527 -35.867   8.015 -0.06 +0.00    +0.251 C  
DOCKED: BRANCH  14  15
DOCKED: ATOM     15  N   UNL     1     -55.242 -34.649   8.379 -0.07 +0.00    +0.141 N  
DOCKED: ATOM     16  C   UNL     1     -55.549 -34.640   9.810 -0.01 +0.00    +0.285 C  
DOCKED: ATOM     17  C   UNL     1     -54.459 -33.465   8.021 -0.04 +0.00    +0.285 C  
DOCKED: ENDBRANCH  14  15
DOCKED: ENDBRANCH  13  14
DOCKED: ENDBRANCH  12  13
DOCKED: ENDBRANCH   2  12
DOCKED: BRANCH   2  18
DOCKED: ATOM     18  C   UNL     1     -57.980 -38.346   9.007 -0.19 +0.00    +0.006 A  
DOCKED: ATOM     19  C   UNL     1     -59.364 -38.484   8.915 -0.17 +0.00    +0.001 A  
DOCKED: ATOM     20  C   UNL     1     -60.084 -39.014   9.986 -0.15 +0.00    +0.029 A  
DOCKED: ATOM     21  C   UNL     1     -59.419 -39.406  11.147 -0.06 +0.00    +0.140 A  
DOCKED: ATOM     22  C   UNL     1     -58.034 -39.268  11.239 -0.20 +0.00    +0.029 A  
DOCKED: ATOM     23  F   UNL     1     -60.110 -39.916  12.175 -0.03 -0.00    -0.204 F  
DOCKED: ATOM     24  C   UNL     1     -57.313 -38.737  10.168 -0.18 +0.00    +0.001 A  
DOCKED: ENDBRANCH   2  18
DOCKED: TORSDOF 5
DOCKED: TER
DOCKED: ENDMDL
________________________________________________________________________________


    FINAL DOCKED STATE:
    ________________________


Run:   474 / 512
Time taken for this run:   0.002s

DOCKED: MODEL        474
DOCKED: USER    Run = 474
DOCKED: USER
DOCKED: USER    Estimated Free Energy of Binding    =  -3.82 kcal/mol  [=(1)+(2)+(3)-(4)]
DOCKED: USER
DOCKED: USER    (1) Final Intermolecular Energy     =  -5.32 kcal/mol
DOCKED: USER        vdW + Hbond + desolv Energy     =  -5.32 kcal/mol
DOCKED: USER        Electrostatic Energy            =  +0.00 kcal/mol
DOCKED: USER        Moving Ligand-Fixed Receptor    =  -5.32 kcal/mol
DOCKED: USER        Moving Ligand-Moving Receptor   =  +0.00 kcal/mol
DOCKED: USER    (2) Final Total Internal Energy     =  -1.57 kcal/mol
DOCKED: USER    (3) Torsional Free Energy           =  +1.49 kcal/mol
DOCKED: USER    (4) Unbound System's Energy         =  -1.57 kcal/mol
DOCKED: USER
DOCKED: USER
DOCKED: REMARK  5 active torsions:
DOCKED: REMARK  status: ('A' for Active; 'I' for Inactive)
DOCKED: REMARK    1  A    between atoms: C_2  and  C_19 
DOCKED: REMARK    2  A    between atoms: C_2  and  C_11 
DOCKED: REMARK    3  A    between atoms: C_19  and  C_20 
DOCKED: REMARK    4  A    between atoms: C_20  and  C_21 
DOCKED: REMARK    5  A    between atoms: C_21  and  N_22 
DOCKED: USER                              x       y       z     vdW  Elec       q    Type
DOCKED: USER                           _______ _______ _______ _____ _____    ______ ____
DOCKED: ROOT
DOCKED: ATOM      1  O   UNL     1     -55.376 -35.973   9.116 -0.05 -0.00    -0.346 OA 
DOCKED: ATOM      2  C   UNL     1     -56.319 -35.095   8.422 -0.10 +0.00    +0.130 C  
DOCKED: ATOM      3  C   UNL     1     -57.186 -36.041   7.643 -0.19 +0.00    +0.004 A  
DOCKED: ATOM      4  C   UNL     1     -56.841 -37.350   7.950 -0.24 +0.00    +0.006 A  
DOCKED: ATOM      5  C   UNL     1     -55.748 -37.361   8.947 -0.16 +0.00    +0.169 C  
DOCKED: ATOM      6  C   UNL     1     -58.205 -35.766   6.743 -0.26 -0.00    -0.001 A  
DOCKED: ATOM      7  C   UNL     1     -57.496 -38.423   7.369 -0.33 +0.00    +0.008 A  
DOCKED: ATOM      8  C   UNL     1     -58.872 -36.837   6.146 -0.31 +0.00    +0.010 A  
DOCKED: ATOM      9  C   UNL     1     -58.520 -38.158   6.457 -0.29 +0.00    +0.068 A  
DOCKED: ATOM     10  N   UNL     1     -59.781 -40.123   5.334 -2.55 -0.00    -0.191 NA 
DOCKED: ATOM     11  C   UNL     1     -59.215 -39.242   5.837 -0.35 +0.00    +0.101 C  
DOCKED: ENDROOT
DOCKED: BRANCH   2  12
DOCKED: ATOM     12  C   UNL     1     -57.096 -34.301   9.465 -0.04 +0.00    +0.038 C  
DOCKED: BRANCH  12  13
DOCKED: ATOM     13  C   UNL     1     -56.513 -34.499  10.863 -0.01 +0.00    +0.038 C  
DOCKED: BRANCH  13  14
DOCKED: ATOM     14  C   UNL     1     -55.610 -33.330  11.252 -0.00 +0.00    +0.251 C  
DOCKED: BRANCH  14  15
DOCKED: ATOM     15  N   UNL     1     -54.379 -33.358  10.471 -0.00 +0.00    +0.141 N  
DOCKED: ATOM     16  C   UNL     1     -53.678 -32.077  10.565 -0.00 +0.00    +0.285 C  
DOCKED: ATOM     17  C   UNL     1     -53.509 -34.447  10.918 -0.00 +0.00    +0.285 C  
DOCKED: ENDBRANCH  14  15
DOCKED: ENDBRANCH  13  14
DOCKED: ENDBRANCH  12  13
DOCKED: ENDBRANCH   2  12
DOCKED: BRANCH   2  18
DOCKED: ATOM     18  C   UNL     1     -55.513 -34.192   7.549 -0.12 +0.00    +0.006 A  
DOCKED: ATOM     19  C   UNL     1     -54.377 -34.679   6.904 -0.01 +0.00    +0.001 A  
DOCKED: ATOM     20  C   UNL     1     -53.624 -33.833   6.089 -0.11 +0.00    +0.029 A  
DOCKED: ATOM     21  C   UNL     1     -54.008 -32.504   5.919 -0.06 +0.00    +0.140 A  
DOCKED: ATOM     22  C   UNL     1     -55.145 -32.018   6.564 -0.06 +0.00    +0.029 A  
DOCKED: ATOM     23  F   UNL     1     -53.286 -31.693   5.134 -0.00 -0.00    -0.204 F  
DOCKED: ATOM     24  C   UNL     1     -55.898 -32.863   7.380 -0.08 +0.00    +0.001 A  
DOCKED: ENDBRANCH   2  18
DOCKED: TORSDOF 5
DOCKED: TER
DOCKED: ENDMDL
________________________________________________________________________________


    FINAL DOCKED STATE:
    ________________________


Run:   475 / 512
Time taken for this run:   0.002s

DOCKED: MODEL        475
DOCKED: USER    Run = 475
DOCKED: USER
DOCKED: USER    Estimated Free Energy of Binding    =  -3.85 kcal/mol  [=(1)+(2)+(3)-(4)]
DOCKED: USER
DOCKED: USER    (1) Final Intermolecular Energy     =  -5.34 kcal/mol
DOCKED: USER        vdW + Hbond + desolv Energy     =  -5.34 kcal/mol
DOCKED: USER        Electrostatic Energy            =  +0.00 kcal/mol
DOCKED: USER        Moving Ligand-Fixed Receptor    =  -5.34 kcal/mol
DOCKED: USER        Moving Ligand-Moving Receptor   =  +0.00 kcal/mol
DOCKED: USER    (2) Final Total Internal Energy     =  -1.36 kcal/mol
DOCKED: USER    (3) Torsional Free Energy           =  +1.49 kcal/mol
DOCKED: USER    (4) Unbound System's Energy         =  -1.36 kcal/mol
DOCKED: USER
DOCKED: USER
DOCKED: REMARK  5 active torsions:
DOCKED: REMARK  status: ('A' for Active; 'I' for Inactive)
DOCKED: REMARK    1  A    between atoms: C_2  and  C_19 
DOCKED: REMARK    2  A    between atoms: C_2  and  C_11 
DOCKED: REMARK    3  A    between atoms: C_19  and  C_20 
DOCKED: REMARK    4  A    between atoms: C_20  and  C_21 
DOCKED: REMARK    5  A    between atoms: C_21  and  N_22 
DOCKED: USER                              x       y       z     vdW  Elec       q    Type
DOCKED: USER                           _______ _______ _______ _____ _____    ______ ____
DOCKED: ROOT
DOCKED: ATOM      1  O   UNL     1     -50.597 -25.585  -4.136 -0.02 -0.00    -0.346 OA 
DOCKED: ATOM      2  C   UNL     1     -50.987 -26.312  -2.927 -0.06 +0.00    +0.130 C  
DOCKED: ATOM      3  C   UNL     1     -52.444 -26.604  -3.137 -0.15 +0.00    +0.004 A  
DOCKED: ATOM      4  C   UNL     1     -52.828 -26.180  -4.401 -0.19 +0.00    +0.006 A  
DOCKED: ATOM      5  C   UNL     1     -51.667 -25.598  -5.110 -0.11 +0.00    +0.169 C  
DOCKED: ATOM      6  C   UNL     1     -53.355 -27.207  -2.282 -0.20 -0.00    -0.001 A  
DOCKED: ATOM      7  C   UNL     1     -54.128 -26.339  -4.850 -0.31 +0.00    +0.008 A  
DOCKED: ATOM      8  C   UNL     1     -54.670 -27.371  -2.718 -0.29 +0.00    +0.010 A  
DOCKED: ATOM      9  C   UNL     1     -55.055 -26.939  -3.996 -0.37 +0.00    +0.068 A  
DOCKED: ATOM     10  N   UNL     1     -57.504 -27.262  -4.778 -2.45 -0.00    -0.191 NA 
DOCKED: ATOM     11  C   UNL     1     -56.406 -27.116  -4.427 -0.33 +0.00    +0.101 C  
DOCKED: ENDROOT
DOCKED: BRANCH   2  12
DOCKED: ATOM     12  C   UNL     1     -50.137 -27.573  -2.828 -0.03 +0.00    +0.038 C  
DOCKED: BRANCH  12  13
DOCKED: ATOM     13  C   UNL     1     -50.477 -28.563  -3.941 -0.02 +0.00    +0.038 C  
DOCKED: BRANCH  13  14
DOCKED: ATOM     14  C   UNL     1     -50.911 -29.909  -3.365 -0.01 +0.00    +0.251 C  
DOCKED: BRANCH  14  15
DOCKED: ATOM     15  N   UNL     1     -52.077 -30.415  -4.079 -0.07 +0.00    +0.141 N  
DOCKED: ATOM     16  C   UNL     1     -53.178 -30.675  -3.151 -0.11 +0.00    +0.285 C  
DOCKED: ATOM     17  C   UNL     1     -52.498 -29.468  -5.114 -0.09 +0.00    +0.285 C  
DOCKED: ENDBRANCH  14  15
DOCKED: ENDBRANCH  13  14
DOCKED: ENDBRANCH  12  13
DOCKED: ENDBRANCH   2  12
DOCKED: BRANCH   2  18
DOCKED: ATOM     18  C   UNL     1     -50.736 -25.402  -1.771 -0.08 +0.00    +0.006 A  
DOCKED: ATOM     19  C   UNL     1     -49.430 -25.140  -1.361 -0.03 +0.00    +0.001 A  
DOCKED: ATOM     20  C   UNL     1     -49.197 -24.289  -0.280 -0.03 +0.00    +0.029 A  
DOCKED: ATOM     21  C   UNL     1     -50.270 -23.702   0.389 -0.06 +0.00    +0.140 A  
DOCKED: ATOM     22  C   UNL     1     -51.577 -23.964  -0.022 -0.14 +0.00    +0.029 A  
DOCKED: ATOM     23  F   UNL     1     -50.047 -22.884   1.426 -0.01 -0.00    -0.204 F  
DOCKED: ATOM     24  C   UNL     1     -51.811 -24.816  -1.103 -0.18 +0.00    +0.001 A  
DOCKED: ENDBRANCH   2  18
DOCKED: TORSDOF 5
DOCKED: TER
DOCKED: ENDMDL
________________________________________________________________________________


    FINAL DOCKED STATE:
    ________________________


Run:   476 / 512
Time taken for this run:   0.002s

DOCKED: MODEL        476
DOCKED: USER    Run = 476
DOCKED: USER
DOCKED: USER    Estimated Free Energy of Binding    =  -3.91 kcal/mol  [=(1)+(2)+(3)-(4)]
DOCKED: USER
DOCKED: USER    (1) Final Intermolecular Energy     =  -5.40 kcal/mol
DOCKED: USER        vdW + Hbond + desolv Energy     =  -5.40 kcal/mol
DOCKED: USER        Electrostatic Energy            =  +0.00 kcal/mol
DOCKED: USER        Moving Ligand-Fixed Receptor    =  -5.40 kcal/mol
DOCKED: USER        Moving Ligand-Moving Receptor   =  +0.00 kcal/mol
DOCKED: USER    (2) Final Total Internal Energy     =  -1.41 kcal/mol
DOCKED: USER    (3) Torsional Free Energy           =  +1.49 kcal/mol
DOCKED: USER    (4) Unbound System's Energy         =  -1.41 kcal/mol
DOCKED: USER
DOCKED: USER
DOCKED: REMARK  5 active torsions:
DOCKED: REMARK  status: ('A' for Active; 'I' for Inactive)
DOCKED: REMARK    1  A    between atoms: C_2  and  C_19 
DOCKED: REMARK    2  A    between atoms: C_2  and  C_11 
DOCKED: REMARK    3  A    between atoms: C_19  and  C_20 
DOCKED: REMARK    4  A    between atoms: C_20  and  C_21 
DOCKED: REMARK    5  A    between atoms: C_21  and  N_22 
DOCKED: USER                              x       y       z     vdW  Elec       q    Type
DOCKED: USER                           _______ _______ _______ _____ _____    ______ ____
DOCKED: ROOT
DOCKED: ATOM      1  O   UNL     1     -48.772 -36.930  -0.684 +0.01 -0.00    -0.346 OA 
DOCKED: ATOM      2  C   UNL     1     -49.873 -36.103  -0.187 -0.05 +0.00    +0.130 C  
DOCKED: ATOM      3  C   UNL     1     -50.563 -36.986   0.812 -0.10 +0.00    +0.004 A  
DOCKED: ATOM      4  C   UNL     1     -49.856 -38.171   0.955 -0.09 +0.00    +0.006 A  
DOCKED: ATOM      5  C   UNL     1     -48.659 -38.150   0.085 -0.03 +0.00    +0.169 C  
DOCKED: ATOM      6  C   UNL     1     -51.719 -36.754   1.543 -0.20 -0.00    -0.001 A  
DOCKED: ATOM      7  C   UNL     1     -50.278 -39.161   1.826 -0.18 +0.00    +0.008 A  
DOCKED: ATOM      8  C   UNL     1     -52.160 -37.745   2.422 -0.30 +0.00    +0.010 A  
DOCKED: ATOM      9  C   UNL     1     -51.443 -38.942   2.562 -0.29 +0.00    +0.068 A  
DOCKED: ATOM     10  N   UNL     1     -52.287 -40.759   4.206 -2.68 -0.00    -0.191 NA 
DOCKED: ATOM     11  C   UNL     1     -51.908 -39.944   3.468 -0.40 +0.00    +0.101 C  
DOCKED: ENDROOT
DOCKED: BRANCH   2  12
DOCKED: ATOM     12  C   UNL     1     -49.286 -34.844   0.440 -0.02 +0.00    +0.038 C  
DOCKED: BRANCH  12  13
DOCKED: ATOM     13  C   UNL     1     -47.805 -35.024   0.768 -0.00 +0.00    +0.038 C  
DOCKED: BRANCH  13  14
DOCKED: ATOM     14  C   UNL     1     -47.620 -35.734   2.108 -0.00 +0.00    +0.251 C  
DOCKED: BRANCH  14  15
DOCKED: ATOM     15  N   UNL     1     -48.767 -35.488   2.974 -0.01 +0.00    +0.141 N  
DOCKED: ATOM     16  C   UNL     1     -48.901 -36.554   3.969 -0.01 +0.00    +0.285 C  
DOCKED: ATOM     17  C   UNL     1     -48.645 -34.188   3.636 -0.00 +0.00    +0.285 C  
DOCKED: ENDBRANCH  14  15
DOCKED: ENDBRANCH  13  14
DOCKED: ENDBRANCH  12  13
DOCKED: ENDBRANCH   2  12
DOCKED: BRANCH   2  18
DOCKED: ATOM     18  C   UNL     1     -50.732 -35.769  -1.361 -0.11 +0.00    +0.006 A  
DOCKED: ATOM     19  C   UNL     1     -51.824 -34.917  -1.204 -0.15 +0.00    +0.001 A  
DOCKED: ATOM     20  C   UNL     1     -52.627 -34.606  -2.303 -0.16 +0.00    +0.029 A  
DOCKED: ATOM     21  C   UNL     1     -52.336 -35.147  -3.554 -0.19 +0.00    +0.140 A  
DOCKED: ATOM     22  C   UNL     1     -51.243 -35.999  -3.710 -0.17 +0.00    +0.029 A  
DOCKED: ATOM     23  F   UNL     1     -53.106 -34.847  -4.609 -0.13 -0.00    -0.204 F  
DOCKED: ATOM     24  C   UNL     1     -50.440 -36.311  -2.612 -0.12 +0.00    +0.001 A  
DOCKED: ENDBRANCH   2  18
DOCKED: TORSDOF 5
DOCKED: TER
DOCKED: ENDMDL
________________________________________________________________________________


    FINAL DOCKED STATE:
    ________________________


Run:   477 / 512
Time taken for this run:   0.002s

DOCKED: MODEL        477
DOCKED: USER    Run = 477
DOCKED: USER
DOCKED: USER    Estimated Free Energy of Binding    =  -4.03 kcal/mol  [=(1)+(2)+(3)-(4)]
DOCKED: USER
DOCKED: USER    (1) Final Intermolecular Energy     =  -5.52 kcal/mol
DOCKED: USER        vdW + Hbond + desolv Energy     =  -5.52 kcal/mol
DOCKED: USER        Electrostatic Energy            =  +0.00 kcal/mol
DOCKED: USER        Moving Ligand-Fixed Receptor    =  -5.52 kcal/mol
DOCKED: USER        Moving Ligand-Moving Receptor   =  +0.00 kcal/mol
DOCKED: USER    (2) Final Total Internal Energy     =  -1.49 kcal/mol
DOCKED: USER    (3) Torsional Free Energy           =  +1.49 kcal/mol
DOCKED: USER    (4) Unbound System's Energy         =  -1.49 kcal/mol
DOCKED: USER
DOCKED: USER
DOCKED: REMARK  5 active torsions:
DOCKED: REMARK  status: ('A' for Active; 'I' for Inactive)
DOCKED: REMARK    1  A    between atoms: C_2  and  C_19 
DOCKED: REMARK    2  A    between atoms: C_2  and  C_11 
DOCKED: REMARK    3  A    between atoms: C_19  and  C_20 
DOCKED: REMARK    4  A    between atoms: C_20  and  C_21 
DOCKED: REMARK    5  A    between atoms: C_21  and  N_22 
DOCKED: USER                              x       y       z     vdW  Elec       q    Type
DOCKED: USER                           _______ _______ _______ _____ _____    ______ ____
DOCKED: ROOT
DOCKED: ATOM      1  O   UNL     1     -48.972 -36.097  -0.143 +0.01 -0.00    -0.346 OA 
DOCKED: ATOM      2  C   UNL     1     -50.280 -35.532   0.192 -0.05 +0.00    +0.130 C  
DOCKED: ATOM      3  C   UNL     1     -50.911 -36.578   1.066 -0.11 +0.00    +0.004 A  
DOCKED: ATOM      4  C   UNL     1     -50.002 -37.600   1.300 -0.08 +0.00    +0.006 A  
DOCKED: ATOM      5  C   UNL     1     -48.722 -37.301   0.620 -0.02 +0.00    +0.169 C  
DOCKED: ATOM      6  C   UNL     1     -52.183 -36.616   1.618 -0.26 -0.00    -0.001 A  
DOCKED: ATOM      7  C   UNL     1     -50.332 -38.692   2.085 -0.16 +0.00    +0.008 A  
DOCKED: ATOM      8  C   UNL     1     -52.532 -37.712   2.409 -0.30 +0.00    +0.010 A  
DOCKED: ATOM      9  C   UNL     1     -51.611 -38.744   2.641 -0.29 +0.00    +0.068 A  
DOCKED: ATOM     10  N   UNL     1     -52.290 -40.762   4.119 -2.64 -0.00    -0.191 NA 
DOCKED: ATOM     11  C   UNL     1     -51.985 -39.857   3.456 -0.37 +0.00    +0.101 C  
DOCKED: ENDROOT
DOCKED: BRANCH   2  12
DOCKED: ATOM     12  C   UNL     1     -50.063 -34.208   0.915 -0.02 +0.00    +0.038 C  
DOCKED: BRANCH  12  13
DOCKED: ATOM     13  C   UNL     1     -49.176 -34.384   2.146 -0.02 +0.00    +0.038 C  
DOCKED: BRANCH  13  14
DOCKED: ATOM     14  C   UNL     1     -49.960 -34.123   3.430 -0.01 +0.00    +0.251 C  
DOCKED: BRANCH  14  15
DOCKED: ATOM     15  N   UNL     1     -49.579 -35.081   4.462 -0.02 +0.00    +0.141 N  
DOCKED: ATOM     16  C   UNL     1     -50.724 -35.906   4.848 -0.06 +0.00    +0.285 C  
DOCKED: ATOM     17  C   UNL     1     -48.478 -35.926   3.998 -0.00 +0.00    +0.285 C  
DOCKED: ENDBRANCH  14  15
DOCKED: ENDBRANCH  13  14
DOCKED: ENDBRANCH  12  13
DOCKED: ENDBRANCH   2  12
DOCKED: BRANCH   2  18
DOCKED: ATOM     18  C   UNL     1     -51.011 -35.330  -1.093 -0.11 +0.00    +0.006 A  
DOCKED: ATOM     19  C   UNL     1     -52.004 -34.356  -1.184 -0.15 +0.00    +0.001 A  
DOCKED: ATOM     20  C   UNL     1     -52.687 -34.169  -2.387 -0.21 +0.00    +0.029 A  
DOCKED: ATOM     21  C   UNL     1     -52.375 -34.954  -3.496 -0.19 +0.00    +0.140 A  
DOCKED: ATOM     22  C   UNL     1     -51.381 -35.928  -3.404 -0.17 +0.00    +0.029 A  
DOCKED: ATOM     23  F   UNL     1     -53.029 -34.773  -4.650 -0.12 -0.00    -0.204 F  
DOCKED: ATOM     24  C   UNL     1     -50.698 -36.117  -2.201 -0.13 +0.00    +0.001 A  
DOCKED: ENDBRANCH   2  18
DOCKED: TORSDOF 5
DOCKED: TER
DOCKED: ENDMDL
________________________________________________________________________________


    FINAL DOCKED STATE:
    ________________________


Run:   478 / 512
Time taken for this run:   0.002s

DOCKED: MODEL        478
DOCKED: USER    Run = 478
DOCKED: USER
DOCKED: USER    Estimated Free Energy of Binding    =  -4.03 kcal/mol  [=(1)+(2)+(3)-(4)]
DOCKED: USER
DOCKED: USER    (1) Final Intermolecular Energy     =  -5.52 kcal/mol
DOCKED: USER        vdW + Hbond + desolv Energy     =  -5.52 kcal/mol
DOCKED: USER        Electrostatic Energy            =  +0.00 kcal/mol
DOCKED: USER        Moving Ligand-Fixed Receptor    =  -5.52 kcal/mol
DOCKED: USER        Moving Ligand-Moving Receptor   =  +0.00 kcal/mol
DOCKED: USER    (2) Final Total Internal Energy     =  -1.07 kcal/mol
DOCKED: USER    (3) Torsional Free Energy           =  +1.49 kcal/mol
DOCKED: USER    (4) Unbound System's Energy         =  -1.07 kcal/mol
DOCKED: USER
DOCKED: USER
DOCKED: REMARK  5 active torsions:
DOCKED: REMARK  status: ('A' for Active; 'I' for Inactive)
DOCKED: REMARK    1  A    between atoms: C_2  and  C_19 
DOCKED: REMARK    2  A    between atoms: C_2  and  C_11 
DOCKED: REMARK    3  A    between atoms: C_19  and  C_20 
DOCKED: REMARK    4  A    between atoms: C_20  and  C_21 
DOCKED: REMARK    5  A    between atoms: C_21  and  N_22 
DOCKED: USER                              x       y       z     vdW  Elec       q    Type
DOCKED: USER                           _______ _______ _______ _____ _____    ______ ____
DOCKED: ROOT
DOCKED: ATOM      1  O   UNL     1     -57.602 -33.790   7.332 -0.05 -0.00    -0.346 OA 
DOCKED: ATOM      2  C   UNL     1     -56.541 -34.695   7.777 -0.13 +0.00    +0.130 C  
DOCKED: ATOM      3  C   UNL     1     -57.009 -36.048   7.326 -0.22 +0.00    +0.004 A  
DOCKED: ATOM      4  C   UNL     1     -58.178 -35.916   6.591 -0.28 +0.00    +0.006 A  
DOCKED: ATOM      5  C   UNL     1     -58.553 -34.488   6.495 -0.17 +0.00    +0.169 C  
DOCKED: ATOM      6  C   UNL     1     -56.438 -37.295   7.538 -0.22 -0.00    -0.001 A  
DOCKED: ATOM      7  C   UNL     1     -58.818 -37.019   6.050 -0.32 +0.00    +0.008 A  
DOCKED: ATOM      8  C   UNL     1     -57.074 -38.417   7.003 -0.33 +0.00    +0.010 A  
DOCKED: ATOM      9  C   UNL     1     -58.257 -38.279   6.263 -0.32 +0.00    +0.068 A  
DOCKED: ATOM     10  N   UNL     1     -59.407 -40.382   5.279 -2.57 -0.00    -0.191 NA 
DOCKED: ATOM     11  C   UNL     1     -58.892 -39.439   5.721 -0.29 +0.00    +0.101 C  
DOCKED: ENDROOT
DOCKED: BRANCH   2  12
DOCKED: ATOM     12  C   UNL     1     -55.235 -34.268   7.117 -0.15 +0.00    +0.038 C  
DOCKED: BRANCH  12  13
DOCKED: ATOM     13  C   UNL     1     -55.425 -33.015   6.265 -0.14 +0.00    +0.038 C  
DOCKED: BRANCH  13  14
DOCKED: ATOM     14  C   UNL     1     -55.116 -33.297   4.796 -0.07 +0.00    +0.251 C  
DOCKED: BRANCH  14  15
DOCKED: ATOM     15  N   UNL     1     -54.661 -32.082   4.131 -0.08 +0.00    +0.141 N  
DOCKED: ATOM     16  C   UNL     1     -55.670 -31.027   4.237 -0.06 +0.00    +0.285 C  
DOCKED: ATOM     17  C   UNL     1     -53.390 -31.628   4.698 -0.02 +0.00    +0.285 C  
DOCKED: ENDBRANCH  14  15
DOCKED: ENDBRANCH  13  14
DOCKED: ENDBRANCH  12  13
DOCKED: ENDBRANCH   2  12
DOCKED: BRANCH   2  18
DOCKED: ATOM     18  C   UNL     1     -56.458 -34.573   9.262 -0.04 +0.00    +0.006 A  
DOCKED: ATOM     19  C   UNL     1     -55.334 -33.999   9.853 -0.02 +0.00    +0.001 A  
DOCKED: ATOM     20  C   UNL     1     -55.258 -33.886  11.242 -0.01 +0.00    +0.029 A  
DOCKED: ATOM     21  C   UNL     1     -56.306 -34.347  12.037 -0.00 +0.00    +0.140 A  
DOCKED: ATOM     22  C   UNL     1     -57.431 -34.922  11.445 -0.01 +0.00    +0.029 A  
DOCKED: ATOM     23  F   UNL     1     -56.234 -34.238  13.370 +0.00 -0.00    -0.204 F  
DOCKED: ATOM     24  C   UNL     1     -57.507 -35.035  10.056 -0.03 +0.00    +0.001 A  
DOCKED: ENDBRANCH   2  18
DOCKED: TORSDOF 5
DOCKED: TER
DOCKED: ENDMDL
________________________________________________________________________________


    FINAL DOCKED STATE:
    ________________________


Run:   479 / 512
Time taken for this run:   0.002s

DOCKED: MODEL        479
DOCKED: USER    Run = 479
DOCKED: USER
DOCKED: USER    Estimated Free Energy of Binding    =  -3.40 kcal/mol  [=(1)+(2)+(3)-(4)]
DOCKED: USER
DOCKED: USER    (1) Final Intermolecular Energy     =  -4.89 kcal/mol
DOCKED: USER        vdW + Hbond + desolv Energy     =  -4.89 kcal/mol
DOCKED: USER        Electrostatic Energy            =  +0.00 kcal/mol
DOCKED: USER        Moving Ligand-Fixed Receptor    =  -4.89 kcal/mol
DOCKED: USER        Moving Ligand-Moving Receptor   =  +0.00 kcal/mol
DOCKED: USER    (2) Final Total Internal Energy     =  -1.51 kcal/mol
DOCKED: USER    (3) Torsional Free Energy           =  +1.49 kcal/mol
DOCKED: USER    (4) Unbound System's Energy         =  -1.51 kcal/mol
DOCKED: USER
DOCKED: USER
DOCKED: REMARK  5 active torsions:
DOCKED: REMARK  status: ('A' for Active; 'I' for Inactive)
DOCKED: REMARK    1  A    between atoms: C_2  and  C_19 
DOCKED: REMARK    2  A    between atoms: C_2  and  C_11 
DOCKED: REMARK    3  A    between atoms: C_19  and  C_20 
DOCKED: REMARK    4  A    between atoms: C_20  and  C_21 
DOCKED: REMARK    5  A    between atoms: C_21  and  N_22 
DOCKED: USER                              x       y       z     vdW  Elec       q    Type
DOCKED: USER                           _______ _______ _______ _____ _____    ______ ____
DOCKED: ROOT
DOCKED: ATOM      1  O   UNL     1     -51.264 -25.154  -1.341 -0.04 -0.00    -0.346 OA 
DOCKED: ATOM      2  C   UNL     1     -50.939 -25.226  -2.766 -0.08 +0.00    +0.130 C  
DOCKED: ATOM      3  C   UNL     1     -52.216 -25.689  -3.404 -0.14 +0.00    +0.004 A  
DOCKED: ATOM      4  C   UNL     1     -53.216 -25.768  -2.444 -0.25 +0.00    +0.006 A  
DOCKED: ATOM      5  C   UNL     1     -52.681 -25.358  -1.127 -0.11 +0.00    +0.169 C  
DOCKED: ATOM      6  C   UNL     1     -52.477 -26.003  -4.730 -0.18 -0.00    -0.001 A  
DOCKED: ATOM      7  C   UNL     1     -54.500 -26.167  -2.772 -0.28 +0.00    +0.008 A  
DOCKED: ATOM      8  C   UNL     1     -53.766 -26.411  -5.076 -0.28 +0.00    +0.010 A  
DOCKED: ATOM      9  C   UNL     1     -54.773 -26.492  -4.102 -0.35 +0.00    +0.068 A  
DOCKED: ATOM     10  N   UNL     1     -57.157 -27.247  -4.779 -2.52 -0.00    -0.191 NA 
DOCKED: ATOM     11  C   UNL     1     -56.087 -26.909  -4.475 -0.42 +0.00    +0.101 C  
DOCKED: ENDROOT
DOCKED: BRANCH   2  12
DOCKED: ATOM     12  C   UNL     1     -50.511 -23.840  -3.233 -0.11 +0.00    +0.038 C  
DOCKED: BRANCH  12  13
DOCKED: ATOM     13  C   UNL     1     -49.856 -23.048  -2.102 -0.05 +0.00    +0.038 C  
DOCKED: BRANCH  13  14
DOCKED: ATOM     14  C   UNL     1     -48.353 -22.906  -2.329 +0.00 +0.00    +0.251 C  
DOCKED: BRANCH  14  15
DOCKED: ATOM     15  N   UNL     1     -47.616 -23.390  -1.167 -0.00 +0.00    +0.141 N  
DOCKED: ATOM     16  C   UNL     1     -48.509 -24.102  -0.251 -0.00 +0.00    +0.285 C  
DOCKED: ATOM     17  C   UNL     1     -46.514 -24.260  -1.581 +0.00 +0.00    +0.285 C  
DOCKED: ENDBRANCH  14  15
DOCKED: ENDBRANCH  13  14
DOCKED: ENDBRANCH  12  13
DOCKED: ENDBRANCH   2  12
DOCKED: BRANCH   2  18
DOCKED: ATOM     18  C   UNL     1     -49.826 -26.210  -2.910 -0.03 +0.00    +0.006 A  
DOCKED: ATOM     19  C   UNL     1     -49.742 -27.298  -2.042 -0.02 +0.00    +0.001 A  
DOCKED: ATOM     20  C   UNL     1     -48.701 -28.217  -2.178 -0.01 +0.00    +0.029 A  
DOCKED: ATOM     21  C   UNL     1     -47.748 -28.048  -3.181 -0.00 +0.00    +0.140 A  
DOCKED: ATOM     22  C   UNL     1     -47.833 -26.960  -4.049 -0.00 +0.00    +0.029 A  
DOCKED: ATOM     23  F   UNL     1     -46.750 -28.932  -3.313 +0.00 -0.00    -0.204 F  
DOCKED: ATOM     24  C   UNL     1     -48.874 -26.039  -3.914 -0.02 +0.00    +0.001 A  
DOCKED: ENDBRANCH   2  18
DOCKED: TORSDOF 5
DOCKED: TER
DOCKED: ENDMDL
________________________________________________________________________________


    FINAL DOCKED STATE:
    ________________________


Run:   480 / 512
Time taken for this run:   0.002s

DOCKED: MODEL        480
DOCKED: USER    Run = 480
DOCKED: USER
DOCKED: USER    Estimated Free Energy of Binding    =  -4.07 kcal/mol  [=(1)+(2)+(3)-(4)]
DOCKED: USER
DOCKED: USER    (1) Final Intermolecular Energy     =  -5.56 kcal/mol
DOCKED: USER        vdW + Hbond + desolv Energy     =  -5.56 kcal/mol
DOCKED: USER        Electrostatic Energy            =  +0.00 kcal/mol
DOCKED: USER        Moving Ligand-Fixed Receptor    =  -5.56 kcal/mol
DOCKED: USER        Moving Ligand-Moving Receptor   =  +0.00 kcal/mol
DOCKED: USER    (2) Final Total Internal Energy     =  -1.21 kcal/mol
DOCKED: USER    (3) Torsional Free Energy           =  +1.49 kcal/mol
DOCKED: USER    (4) Unbound System's Energy         =  -1.21 kcal/mol
DOCKED: USER
DOCKED: USER
DOCKED: REMARK  5 active torsions:
DOCKED: REMARK  status: ('A' for Active; 'I' for Inactive)
DOCKED: REMARK    1  A    between atoms: C_2  and  C_19 
DOCKED: REMARK    2  A    between atoms: C_2  and  C_11 
DOCKED: REMARK    3  A    between atoms: C_19  and  C_20 
DOCKED: REMARK    4  A    between atoms: C_20  and  C_21 
DOCKED: REMARK    5  A    between atoms: C_21  and  N_22 
DOCKED: USER                              x       y       z     vdW  Elec       q    Type
DOCKED: USER                           _______ _______ _______ _____ _____    ______ ____
DOCKED: ROOT
DOCKED: ATOM      1  O   UNL     1     -57.272 -34.363   8.202 -0.02 -0.00    -0.346 OA 
DOCKED: ATOM      2  C   UNL     1     -58.727 -34.292   8.064 -0.10 +0.00    +0.130 C  
DOCKED: ATOM      3  C   UNL     1     -59.086 -35.577   7.374 -0.19 +0.00    +0.004 A  
DOCKED: ATOM      4  C   UNL     1     -57.951 -36.362   7.231 -0.23 +0.00    +0.006 A  
DOCKED: ATOM      5  C   UNL     1     -56.782 -35.669   7.817 -0.15 +0.00    +0.169 C  
DOCKED: ATOM      6  C   UNL     1     -60.320 -36.019   6.921 -0.22 -0.00    -0.001 A  
DOCKED: ATOM      7  C   UNL     1     -58.008 -37.608   6.629 -0.32 +0.00    +0.008 A  
DOCKED: ATOM      8  C   UNL     1     -60.393 -37.271   6.308 -0.24 +0.00    +0.010 A  
DOCKED: ATOM      9  C   UNL     1     -59.243 -38.061   6.163 -0.27 +0.00    +0.068 A  
DOCKED: ATOM     10  N   UNL     1     -59.416 -40.383   5.025 -2.41 -0.00    -0.191 NA 
DOCKED: ATOM     11  C   UNL     1     -59.338 -39.341   5.535 -0.38 +0.00    +0.101 C  
DOCKED: ENDROOT
DOCKED: BRANCH   2  12
DOCKED: ATOM     12  C   UNL     1     -59.339 -34.174   9.455 -0.04 +0.00    +0.038 C  
DOCKED: BRANCH  12  13
DOCKED: ATOM     13  C   UNL     1     -58.344 -33.582  10.452 -0.01 +0.00    +0.038 C  
DOCKED: BRANCH  13  14
DOCKED: ATOM     14  C   UNL     1     -58.387 -34.333  11.782 -0.00 +0.00    +0.251 C  
DOCKED: BRANCH  14  15
DOCKED: ATOM     15  N   UNL     1     -57.846 -35.677  11.623 -0.01 +0.00    +0.141 N  
DOCKED: ATOM     16  C   UNL     1     -56.466 -35.624  11.139 -0.01 +0.00    +0.285 C  
DOCKED: ATOM     17  C   UNL     1     -57.912 -36.412  12.888 -0.00 +0.00    +0.285 C  
DOCKED: ENDBRANCH  14  15
DOCKED: ENDBRANCH  13  14
DOCKED: ENDBRANCH  12  13
DOCKED: ENDBRANCH   2  12
DOCKED: BRANCH   2  18
DOCKED: ATOM     18  C   UNL     1     -59.028 -33.085   7.239 -0.16 +0.00    +0.006 A  
DOCKED: ATOM     19  C   UNL     1     -57.997 -32.231   6.852 -0.13 +0.00    +0.001 A  
DOCKED: ATOM     20  C   UNL     1     -58.281 -31.103   6.081 -0.13 +0.00    +0.029 A  
DOCKED: ATOM     21  C   UNL     1     -59.593 -30.831   5.698 -0.13 +0.00    +0.140 A  
DOCKED: ATOM     22  C   UNL     1     -60.624 -31.687   6.086 -0.17 +0.00    +0.029 A  
DOCKED: ATOM     23  F   UNL     1     -59.865 -29.750   4.957 -0.03 -0.00    -0.204 F  
DOCKED: ATOM     24  C   UNL     1     -60.342 -32.816   6.857 -0.22 +0.00    +0.001 A  
DOCKED: ENDBRANCH   2  18
DOCKED: TORSDOF 5
DOCKED: TER
DOCKED: ENDMDL
________________________________________________________________________________


    FINAL DOCKED STATE:
    ________________________


Run:   481 / 512
Time taken for this run:   0.002s

DOCKED: MODEL        481
DOCKED: USER    Run = 481
DOCKED: USER
DOCKED: USER    Estimated Free Energy of Binding    =  -3.24 kcal/mol  [=(1)+(2)+(3)-(4)]
DOCKED: USER
DOCKED: USER    (1) Final Intermolecular Energy     =  -4.73 kcal/mol
DOCKED: USER        vdW + Hbond + desolv Energy     =  -4.73 kcal/mol
DOCKED: USER        Electrostatic Energy            =  +0.00 kcal/mol
DOCKED: USER        Moving Ligand-Fixed Receptor    =  -4.73 kcal/mol
DOCKED: USER        Moving Ligand-Moving Receptor   =  +0.00 kcal/mol
DOCKED: USER    (2) Final Total Internal Energy     =  -1.49 kcal/mol
DOCKED: USER    (3) Torsional Free Energy           =  +1.49 kcal/mol
DOCKED: USER    (4) Unbound System's Energy         =  -1.49 kcal/mol
DOCKED: USER
DOCKED: USER
DOCKED: REMARK  5 active torsions:
DOCKED: REMARK  status: ('A' for Active; 'I' for Inactive)
DOCKED: REMARK    1  A    between atoms: C_2  and  C_19 
DOCKED: REMARK    2  A    between atoms: C_2  and  C_11 
DOCKED: REMARK    3  A    between atoms: C_19  and  C_20 
DOCKED: REMARK    4  A    between atoms: C_20  and  C_21 
DOCKED: REMARK    5  A    between atoms: C_21  and  N_22 
DOCKED: USER                              x       y       z     vdW  Elec       q    Type
DOCKED: USER                           _______ _______ _______ _____ _____    ______ ____
DOCKED: ROOT
DOCKED: ATOM      1  O   UNL     1     -51.499 -24.622  -1.230 -0.05 -0.00    -0.346 OA 
DOCKED: ATOM      2  C   UNL     1     -50.998 -25.194  -2.480 -0.08 +0.00    +0.130 C  
DOCKED: ATOM      3  C   UNL     1     -52.230 -25.736  -3.147 -0.16 +0.00    +0.004 A  
DOCKED: ATOM      4  C   UNL     1     -53.350 -25.405  -2.397 -0.20 +0.00    +0.006 A  
DOCKED: ATOM      5  C   UNL     1     -52.946 -24.623  -1.208 -0.21 +0.00    +0.169 C  
DOCKED: ATOM      6  C   UNL     1     -52.350 -26.454  -4.327 -0.16 -0.00    -0.001 A  
DOCKED: ATOM      7  C   UNL     1     -54.621 -25.782  -2.797 -0.06 +0.00    +0.008 A  
DOCKED: ATOM      8  C   UNL     1     -53.625 -26.845  -4.742 -0.26 +0.00    +0.010 A  
DOCKED: ATOM      9  C   UNL     1     -54.754 -26.510  -3.980 -0.35 +0.00    +0.068 A  
DOCKED: ATOM     10  N   UNL     1     -57.106 -27.247  -4.780 -2.46 -0.00    -0.191 NA 
DOCKED: ATOM     11  C   UNL     1     -56.051 -26.917  -4.421 -0.44 +0.00    +0.101 C  
DOCKED: ENDROOT
DOCKED: BRANCH   2  12
DOCKED: ATOM     12  C   UNL     1     -50.328 -24.086  -3.283 -0.10 +0.00    +0.038 C  
DOCKED: BRANCH  12  13
DOCKED: ATOM     13  C   UNL     1     -49.947 -22.905  -2.393 -0.06 +0.00    +0.038 C  
DOCKED: BRANCH  13  14
DOCKED: ATOM     14  C   UNL     1     -48.701 -23.218  -1.567 -0.00 +0.00    +0.251 C  
DOCKED: BRANCH  14  15
DOCKED: ATOM     15  N   UNL     1     -49.058 -23.426  -0.169 -0.02 +0.00    +0.141 N  
DOCKED: ATOM     16  C   UNL     1     -47.931 -23.994   0.573 -0.00 +0.00    +0.285 C  
DOCKED: ATOM     17  C   UNL     1     -49.488 -22.169   0.446 -0.01 +0.00    +0.285 C  
DOCKED: ENDBRANCH  14  15
DOCKED: ENDBRANCH  13  14
DOCKED: ENDBRANCH  12  13
DOCKED: ENDBRANCH   2  12
DOCKED: BRANCH   2  18
DOCKED: ATOM     18  C   UNL     1     -50.020 -26.259  -2.112 -0.04 +0.00    +0.006 A  
DOCKED: ATOM     19  C   UNL     1     -49.768 -26.539  -0.769 -0.05 +0.00    +0.001 A  
DOCKED: ATOM     20  C   UNL     1     -48.852 -27.535  -0.426 -0.01 +0.00    +0.029 A  
DOCKED: ATOM     21  C   UNL     1     -48.193 -28.250  -1.424 -0.00 +0.00    +0.140 A  
DOCKED: ATOM     22  C   UNL     1     -48.446 -27.970  -2.767 -0.00 +0.00    +0.029 A  
DOCKED: ATOM     23  F   UNL     1     -47.316 -29.207  -1.095 +0.00 -0.00    -0.204 F  
DOCKED: ATOM     24  C   UNL     1     -49.361 -26.973  -3.111 -0.01 +0.00    +0.001 A  
DOCKED: ENDBRANCH   2  18
DOCKED: TORSDOF 5
DOCKED: TER
DOCKED: ENDMDL
________________________________________________________________________________


    FINAL DOCKED STATE:
    ________________________


Run:   482 / 512
Time taken for this run:   0.002s

DOCKED: MODEL        482
DOCKED: USER    Run = 482
DOCKED: USER
DOCKED: USER    Estimated Free Energy of Binding    =  -3.95 kcal/mol  [=(1)+(2)+(3)-(4)]
DOCKED: USER
DOCKED: USER    (1) Final Intermolecular Energy     =  -5.45 kcal/mol
DOCKED: USER        vdW + Hbond + desolv Energy     =  -5.45 kcal/mol
DOCKED: USER        Electrostatic Energy            =  +0.00 kcal/mol
DOCKED: USER        Moving Ligand-Fixed Receptor    =  -5.45 kcal/mol
DOCKED: USER        Moving Ligand-Moving Receptor   =  +0.00 kcal/mol
DOCKED: USER    (2) Final Total Internal Energy     =  -0.99 kcal/mol
DOCKED: USER    (3) Torsional Free Energy           =  +1.49 kcal/mol
DOCKED: USER    (4) Unbound System's Energy         =  -0.99 kcal/mol
DOCKED: USER
DOCKED: USER
DOCKED: REMARK  5 active torsions:
DOCKED: REMARK  status: ('A' for Active; 'I' for Inactive)
DOCKED: REMARK    1  A    between atoms: C_2  and  C_19 
DOCKED: REMARK    2  A    between atoms: C_2  and  C_11 
DOCKED: REMARK    3  A    between atoms: C_19  and  C_20 
DOCKED: REMARK    4  A    between atoms: C_20  and  C_21 
DOCKED: REMARK    5  A    between atoms: C_21  and  N_22 
DOCKED: USER                              x       y       z     vdW  Elec       q    Type
DOCKED: USER                           _______ _______ _______ _____ _____    ______ ____
DOCKED: ROOT
DOCKED: ATOM      1  O   UNL     1     -58.834 -34.682   9.600 -0.00 -0.00    -0.346 OA 
DOCKED: ATOM      2  C   UNL     1     -58.563 -34.237   8.232 -0.08 +0.00    +0.130 C  
DOCKED: ATOM      3  C   UNL     1     -58.685 -35.491   7.416 -0.19 +0.00    +0.004 A  
DOCKED: ATOM      4  C   UNL     1     -59.097 -36.538   8.227 -0.11 +0.00    +0.006 A  
DOCKED: ATOM      5  C   UNL     1     -59.287 -36.055   9.613 -0.03 +0.00    +0.169 C  
DOCKED: ATOM      6  C   UNL     1     -58.460 -35.686   6.061 -0.18 -0.00    -0.001 A  
DOCKED: ATOM      7  C   UNL     1     -59.294 -37.811   7.718 -0.18 +0.00    +0.008 A  
DOCKED: ATOM      8  C   UNL     1     -58.649 -36.965   5.533 -0.32 +0.00    +0.010 A  
DOCKED: ATOM      9  C   UNL     1     -59.065 -38.021   6.357 -0.26 +0.00    +0.068 A  
DOCKED: ATOM     10  N   UNL     1     -59.412 -40.380   5.344 -2.62 -0.00    -0.191 NA 
DOCKED: ATOM     11  C   UNL     1     -59.255 -39.322   5.799 -0.32 +0.00    +0.101 C  
DOCKED: ENDROOT
DOCKED: BRANCH   2  12
DOCKED: ATOM     12  C   UNL     1     -59.595 -33.181   7.855 -0.13 +0.00    +0.038 C  
DOCKED: BRANCH  12  13
DOCKED: ATOM     13  C   UNL     1     -59.328 -32.613   6.463 -0.21 +0.00    +0.038 C  
DOCKED: BRANCH  13  14
DOCKED: ATOM     14  C   UNL     1     -60.175 -31.369   6.205 -0.13 +0.00    +0.251 C  
DOCKED: BRANCH  14  15
DOCKED: ATOM     15  N   UNL     1     -59.350 -30.298   5.657 -0.11 +0.00    +0.141 N  
DOCKED: ATOM     16  C   UNL     1     -57.952 -30.720   5.565 -0.09 +0.00    +0.285 C  
DOCKED: ATOM     17  C   UNL     1     -59.845 -29.888   4.342 -0.11 +0.00    +0.285 C  
DOCKED: ENDBRANCH  14  15
DOCKED: ENDBRANCH  13  14
DOCKED: ENDBRANCH  12  13
DOCKED: ENDBRANCH   2  12
DOCKED: BRANCH   2  18
DOCKED: ATOM     18  C   UNL     1     -57.183 -33.669   8.223 -0.07 +0.00    +0.006 A  
DOCKED: ATOM     19  C   UNL     1     -56.279 -34.052   7.234 -0.15 +0.00    +0.001 A  
DOCKED: ATOM     20  C   UNL     1     -54.989 -33.520   7.226 -0.10 +0.00    +0.029 A  
DOCKED: ATOM     21  C   UNL     1     -54.606 -32.606   8.207 -0.02 +0.00    +0.140 A  
DOCKED: ATOM     22  C   UNL     1     -55.511 -32.223   9.196 -0.01 +0.00    +0.029 A  
DOCKED: ATOM     23  F   UNL     1     -53.368 -32.094   8.199 +0.00 -0.00    -0.204 F  
DOCKED: ATOM     24  C   UNL     1     -56.802 -32.755   9.205 -0.02 +0.00    +0.001 A  
DOCKED: ENDBRANCH   2  18
DOCKED: TORSDOF 5
DOCKED: TER
DOCKED: ENDMDL
________________________________________________________________________________


    FINAL DOCKED STATE:
    ________________________


Run:   483 / 512
Time taken for this run:   0.002s

DOCKED: MODEL        483
DOCKED: USER    Run = 483
DOCKED: USER
DOCKED: USER    Estimated Free Energy of Binding    =  -3.88 kcal/mol  [=(1)+(2)+(3)-(4)]
DOCKED: USER
DOCKED: USER    (1) Final Intermolecular Energy     =  -5.38 kcal/mol
DOCKED: USER        vdW + Hbond + desolv Energy     =  -5.38 kcal/mol
DOCKED: USER        Electrostatic Energy            =  +0.00 kcal/mol
DOCKED: USER        Moving Ligand-Fixed Receptor    =  -5.38 kcal/mol
DOCKED: USER        Moving Ligand-Moving Receptor   =  +0.00 kcal/mol
DOCKED: USER    (2) Final Total Internal Energy     =  -1.34 kcal/mol
DOCKED: USER    (3) Torsional Free Energy           =  +1.49 kcal/mol
DOCKED: USER    (4) Unbound System's Energy         =  -1.34 kcal/mol
DOCKED: USER
DOCKED: USER
DOCKED: REMARK  5 active torsions:
DOCKED: REMARK  status: ('A' for Active; 'I' for Inactive)
DOCKED: REMARK    1  A    between atoms: C_2  and  C_19 
DOCKED: REMARK    2  A    between atoms: C_2  and  C_11 
DOCKED: REMARK    3  A    between atoms: C_19  and  C_20 
DOCKED: REMARK    4  A    between atoms: C_20  and  C_21 
DOCKED: REMARK    5  A    between atoms: C_21  and  N_22 
DOCKED: USER                              x       y       z     vdW  Elec       q    Type
DOCKED: USER                           _______ _______ _______ _____ _____    ______ ____
DOCKED: ROOT
DOCKED: ATOM      1  O   UNL     1     -50.998 -26.959  -1.539 -0.02 -0.00    -0.346 OA 
DOCKED: ATOM      2  C   UNL     1     -50.704 -26.464  -2.885 -0.04 +0.00    +0.130 C  
DOCKED: ATOM      3  C   UNL     1     -52.035 -26.501  -3.580 -0.12 +0.00    +0.004 A  
DOCKED: ATOM      4  C   UNL     1     -53.021 -26.878  -2.680 -0.19 +0.00    +0.006 A  
DOCKED: ATOM      5  C   UNL     1     -52.424 -27.101  -1.344 -0.12 +0.00    +0.169 C  
DOCKED: ATOM      6  C   UNL     1     -52.348 -26.214  -4.900 -0.18 -0.00    -0.001 A  
DOCKED: ATOM      7  C   UNL     1     -54.347 -26.984  -3.065 -0.31 +0.00    +0.008 A  
DOCKED: ATOM      8  C   UNL     1     -53.680 -26.320  -5.306 -0.27 +0.00    +0.010 A  
DOCKED: ATOM      9  C   UNL     1     -54.674 -26.703  -4.393 -0.34 +0.00    +0.068 A  
DOCKED: ATOM     10  N   UNL     1     -57.136 -26.886  -5.178 -2.56 -0.00    -0.191 NA 
DOCKED: ATOM     11  C   UNL     1     -56.032 -26.804  -4.826 -0.40 +0.00    +0.101 C  
DOCKED: ENDROOT
DOCKED: BRANCH   2  12
DOCKED: ATOM     12  C   UNL     1     -50.135 -25.056  -2.768 -0.06 +0.00    +0.038 C  
DOCKED: BRANCH  12  13
DOCKED: ATOM     13  C   UNL     1     -51.241 -24.003  -2.804 -0.15 +0.00    +0.038 C  
DOCKED: BRANCH  13  14
DOCKED: ATOM     14  C   UNL     1     -51.398 -23.323  -1.445 -0.08 +0.00    +0.251 C  
DOCKED: BRANCH  14  15
DOCKED: ATOM     15  N   UNL     1     -52.722 -23.589  -0.895 -0.21 +0.00    +0.141 N  
DOCKED: ATOM     16  C   UNL     1     -52.851 -23.007   0.442 -0.09 +0.00    +0.285 C  
DOCKED: ATOM     17  C   UNL     1     -53.763 -23.063  -1.780 -0.20 +0.00    +0.285 C  
DOCKED: ENDBRANCH  14  15
DOCKED: ENDBRANCH  13  14
DOCKED: ENDBRANCH  12  13
DOCKED: ENDBRANCH   2  12
DOCKED: BRANCH   2  18
DOCKED: ATOM     18  C   UNL     1     -49.708 -27.399  -3.486 -0.02 +0.00    +0.006 A  
DOCKED: ATOM     19  C   UNL     1     -49.222 -27.167  -4.772 -0.01 +0.00    +0.001 A  
DOCKED: ATOM     20  C   UNL     1     -48.291 -28.042  -5.333 -0.00 +0.00    +0.029 A  
DOCKED: ATOM     21  C   UNL     1     -47.847 -29.146  -4.608 -0.00 +0.00    +0.140 A  
DOCKED: ATOM     22  C   UNL     1     -48.334 -29.378  -3.321 -0.00 +0.00    +0.029 A  
DOCKED: ATOM     23  F   UNL     1     -46.952 -29.985  -5.145 +0.00 -0.00    -0.204 F  
DOCKED: ATOM     24  C   UNL     1     -49.266 -28.504  -2.759 -0.01 +0.00    +0.001 A  
DOCKED: ENDBRANCH   2  18
DOCKED: TORSDOF 5
DOCKED: TER
DOCKED: ENDMDL
________________________________________________________________________________


    FINAL DOCKED STATE:
    ________________________


Run:   484 / 512
Time taken for this run:   0.002s

DOCKED: MODEL        484
DOCKED: USER    Run = 484
DOCKED: USER
DOCKED: USER    Estimated Free Energy of Binding    =  -4.32 kcal/mol  [=(1)+(2)+(3)-(4)]
DOCKED: USER
DOCKED: USER    (1) Final Intermolecular Energy     =  -5.81 kcal/mol
DOCKED: USER        vdW + Hbond + desolv Energy     =  -5.81 kcal/mol
DOCKED: USER        Electrostatic Energy            =  +0.00 kcal/mol
DOCKED: USER        Moving Ligand-Fixed Receptor    =  -5.81 kcal/mol
DOCKED: USER        Moving Ligand-Moving Receptor   =  +0.00 kcal/mol
DOCKED: USER    (2) Final Total Internal Energy     =  -1.31 kcal/mol
DOCKED: USER    (3) Torsional Free Energy           =  +1.49 kcal/mol
DOCKED: USER    (4) Unbound System's Energy         =  -1.31 kcal/mol
DOCKED: USER
DOCKED: USER
DOCKED: REMARK  5 active torsions:
DOCKED: REMARK  status: ('A' for Active; 'I' for Inactive)
DOCKED: REMARK    1  A    between atoms: C_2  and  C_19 
DOCKED: REMARK    2  A    between atoms: C_2  and  C_11 
DOCKED: REMARK    3  A    between atoms: C_19  and  C_20 
DOCKED: REMARK    4  A    between atoms: C_20  and  C_21 
DOCKED: REMARK    5  A    between atoms: C_21  and  N_22 
DOCKED: USER                              x       y       z     vdW  Elec       q    Type
DOCKED: USER                           _______ _______ _______ _____ _____    ______ ____
DOCKED: ROOT
DOCKED: ATOM      1  O   UNL     1     -55.088 -35.884   8.604 -0.07 -0.00    -0.346 OA 
DOCKED: ATOM      2  C   UNL     1     -56.040 -35.030   7.892 -0.13 +0.00    +0.130 C  
DOCKED: ATOM      3  C   UNL     1     -56.967 -36.004   7.224 -0.22 +0.00    +0.004 A  
DOCKED: ATOM      4  C   UNL     1     -56.643 -37.297   7.610 -0.25 +0.00    +0.006 A  
DOCKED: ATOM      5  C   UNL     1     -55.504 -37.268   8.555 -0.17 +0.00    +0.169 C  
DOCKED: ATOM      6  C   UNL     1     -58.021 -35.764   6.354 -0.27 -0.00    -0.001 A  
DOCKED: ATOM      7  C   UNL     1     -57.353 -38.388   7.140 -0.34 +0.00    +0.008 A  
DOCKED: ATOM      8  C   UNL     1     -58.743 -36.855   5.868 -0.32 +0.00    +0.010 A  
DOCKED: ATOM      9  C   UNL     1     -58.411 -38.160   6.259 -0.31 +0.00    +0.068 A  
DOCKED: ATOM     10  N   UNL     1     -59.776 -40.162   5.342 -2.55 -0.00    -0.191 NA 
DOCKED: ATOM     11  C   UNL     1     -59.163 -39.264   5.753 -0.37 +0.00    +0.101 C  
DOCKED: ENDROOT
DOCKED: BRANCH   2  12
DOCKED: ATOM     12  C   UNL     1     -56.745 -34.140   8.908 -0.06 +0.00    +0.038 C  
DOCKED: BRANCH  12  13
DOCKED: ATOM     13  C   UNL     1     -57.843 -34.901   9.648 -0.04 +0.00    +0.038 C  
DOCKED: BRANCH  13  14
DOCKED: ATOM     14  C   UNL     1     -57.505 -35.053  11.130 -0.00 +0.00    +0.251 C  
DOCKED: BRANCH  14  15
DOCKED: ATOM     15  N   UNL     1     -56.060 -35.072  11.320 -0.01 +0.00    +0.141 N  
DOCKED: ATOM     16  C   UNL     1     -55.599 -33.813  11.907 -0.00 +0.00    +0.285 C  
DOCKED: ATOM     17  C   UNL     1     -55.667 -36.200  12.168 -0.01 +0.00    +0.285 C  
DOCKED: ENDBRANCH  14  15
DOCKED: ENDBRANCH  13  14
DOCKED: ENDBRANCH  12  13
DOCKED: ENDBRANCH   2  12
DOCKED: BRANCH   2  18
DOCKED: ATOM     18  C   UNL     1     -55.252 -34.217   6.919 -0.14 +0.00    +0.006 A  
DOCKED: ATOM     19  C   UNL     1     -55.907 -33.346   6.048 -0.15 +0.00    +0.001 A  
DOCKED: ATOM     20  C   UNL     1     -55.169 -32.587   5.139 -0.12 +0.00    +0.029 A  
DOCKED: ATOM     21  C   UNL     1     -53.780 -32.698   5.103 -0.08 +0.00    +0.140 A  
DOCKED: ATOM     22  C   UNL     1     -53.126 -33.568   5.974 -0.09 +0.00    +0.029 A  
DOCKED: ATOM     23  F   UNL     1     -53.072 -31.967   4.231 -0.00 -0.00    -0.204 F  
DOCKED: ATOM     24  C   UNL     1     -53.863 -34.329   6.884 -0.11 +0.00    +0.001 A  
DOCKED: ENDBRANCH   2  18
DOCKED: TORSDOF 5
DOCKED: TER
DOCKED: ENDMDL
________________________________________________________________________________


    FINAL DOCKED STATE:
    ________________________


Run:   485 / 512
Time taken for this run:   0.002s

DOCKED: MODEL        485
DOCKED: USER    Run = 485
DOCKED: USER
DOCKED: USER    Estimated Free Energy of Binding    =  -5.73 kcal/mol  [=(1)+(2)+(3)-(4)]
DOCKED: USER
DOCKED: USER    (1) Final Intermolecular Energy     =  -7.23 kcal/mol
DOCKED: USER        vdW + Hbond + desolv Energy     =  -7.23 kcal/mol
DOCKED: USER        Electrostatic Energy            =  +0.00 kcal/mol
DOCKED: USER        Moving Ligand-Fixed Receptor    =  -7.23 kcal/mol
DOCKED: USER        Moving Ligand-Moving Receptor   =  +0.00 kcal/mol
DOCKED: USER    (2) Final Total Internal Energy     =  -1.00 kcal/mol
DOCKED: USER    (3) Torsional Free Energy           =  +1.49 kcal/mol
DOCKED: USER    (4) Unbound System's Energy         =  -1.00 kcal/mol
DOCKED: USER
DOCKED: USER
DOCKED: REMARK  5 active torsions:
DOCKED: REMARK  status: ('A' for Active; 'I' for Inactive)
DOCKED: REMARK    1  A    between atoms: C_2  and  C_19 
DOCKED: REMARK    2  A    between atoms: C_2  and  C_11 
DOCKED: REMARK    3  A    between atoms: C_19  and  C_20 
DOCKED: REMARK    4  A    between atoms: C_20  and  C_21 
DOCKED: REMARK    5  A    between atoms: C_21  and  N_22 
DOCKED: USER                              x       y       z     vdW  Elec       q    Type
DOCKED: USER                           _______ _______ _______ _____ _____    ______ ____
DOCKED: ROOT
DOCKED: ATOM      1  O   UNL     1     -57.662 -36.523   7.503 -0.08 -0.00    -0.346 OA 
DOCKED: ATOM      2  C   UNL     1     -58.323 -37.807   7.738 -0.19 +0.00    +0.130 C  
DOCKED: ATOM      3  C   UNL     1     -58.809 -38.215   6.377 -0.33 +0.00    +0.004 A  
DOCKED: ATOM      4  C   UNL     1     -58.370 -37.301   5.431 -0.35 +0.00    +0.006 A  
DOCKED: ATOM      5  C   UNL     1     -57.564 -36.247   6.087 -0.19 +0.00    +0.169 C  
DOCKED: ATOM      6  C   UNL     1     -59.570 -39.314   6.006 -0.29 -0.00    -0.001 A  
DOCKED: ATOM      7  C   UNL     1     -58.677 -37.449   4.089 -0.21 +0.00    +0.008 A  
DOCKED: ATOM      8  C   UNL     1     -59.892 -39.475   4.657 -0.44 +0.00    +0.010 A  
DOCKED: ATOM      9  C   UNL     1     -59.447 -38.547   3.704 -0.43 +0.00    +0.068 A  
DOCKED: ATOM     10  N   UNL     1     -60.058 -38.878   1.207 -3.24 -0.00    -0.191 NA 
DOCKED: ATOM     11  C   UNL     1     -59.784 -38.729   2.327 -0.28 +0.00    +0.101 C  
DOCKED: ENDROOT
DOCKED: BRANCH   2  12
DOCKED: ATOM     12  C   UNL     1     -57.300 -38.777   8.318 -0.29 +0.00    +0.038 C  
DOCKED: BRANCH  12  13
DOCKED: ATOM     13  C   UNL     1     -56.420 -38.098   9.365 -0.12 +0.00    +0.038 C  
DOCKED: BRANCH  13  14
DOCKED: ATOM     14  C   UNL     1     -55.396 -37.175   8.707 -0.13 +0.00    +0.251 C  
DOCKED: BRANCH  14  15
DOCKED: ATOM     15  N   UNL     1     -54.479 -36.640   9.707 -0.08 +0.00    +0.141 N  
DOCKED: ATOM     16  C   UNL     1     -54.790 -35.238   9.994 -0.02 +0.00    +0.285 C  
DOCKED: ATOM     17  C   UNL     1     -54.535 -37.434  10.935 -0.06 +0.00    +0.285 C  
DOCKED: ENDBRANCH  14  15
DOCKED: ENDBRANCH  13  14
DOCKED: ENDBRANCH  12  13
DOCKED: ENDBRANCH   2  12
DOCKED: BRANCH   2  18
DOCKED: ATOM     18  C   UNL     1     -59.434 -37.557   8.702 -0.11 +0.00    +0.006 A  
DOCKED: ATOM     19  C   UNL     1     -59.463 -38.230   9.923 -0.13 +0.00    +0.001 A  
DOCKED: ATOM     20  C   UNL     1     -60.503 -37.995  10.823 -0.07 +0.00    +0.029 A  
DOCKED: ATOM     21  C   UNL     1     -61.511 -37.088  10.502 -0.02 +0.00    +0.140 A  
DOCKED: ATOM     22  C   UNL     1     -61.482 -36.415   9.281 -0.06 +0.00    +0.029 A  
DOCKED: ATOM     23  F   UNL     1     -62.508 -36.861  11.367 +0.01 -0.00    -0.204 F  
DOCKED: ATOM     24  C   UNL     1     -60.443 -36.649   8.379 -0.10 +0.00    +0.001 A  
DOCKED: ENDBRANCH   2  18
DOCKED: TORSDOF 5
DOCKED: TER
DOCKED: ENDMDL
________________________________________________________________________________


    FINAL DOCKED STATE:
    ________________________


Run:   486 / 512
Time taken for this run:   0.002s

DOCKED: MODEL        486
DOCKED: USER    Run = 486
DOCKED: USER
DOCKED: USER    Estimated Free Energy of Binding    =  -3.94 kcal/mol  [=(1)+(2)+(3)-(4)]
DOCKED: USER
DOCKED: USER    (1) Final Intermolecular Energy     =  -5.43 kcal/mol
DOCKED: USER        vdW + Hbond + desolv Energy     =  -5.43 kcal/mol
DOCKED: USER        Electrostatic Energy            =  +0.00 kcal/mol
DOCKED: USER        Moving Ligand-Fixed Receptor    =  -5.43 kcal/mol
DOCKED: USER        Moving Ligand-Moving Receptor   =  +0.00 kcal/mol
DOCKED: USER    (2) Final Total Internal Energy     =  -1.33 kcal/mol
DOCKED: USER    (3) Torsional Free Energy           =  +1.49 kcal/mol
DOCKED: USER    (4) Unbound System's Energy         =  -1.33 kcal/mol
DOCKED: USER
DOCKED: USER
DOCKED: REMARK  5 active torsions:
DOCKED: REMARK  status: ('A' for Active; 'I' for Inactive)
DOCKED: REMARK    1  A    between atoms: C_2  and  C_19 
DOCKED: REMARK    2  A    between atoms: C_2  and  C_11 
DOCKED: REMARK    3  A    between atoms: C_19  and  C_20 
DOCKED: REMARK    4  A    between atoms: C_20  and  C_21 
DOCKED: REMARK    5  A    between atoms: C_21  and  N_22 
DOCKED: USER                              x       y       z     vdW  Elec       q    Type
DOCKED: USER                           _______ _______ _______ _____ _____    ______ ____
DOCKED: ROOT
DOCKED: ATOM      1  O   UNL     1     -49.074 -37.454  -1.483 +0.00 -0.00    -0.346 OA 
DOCKED: ATOM      2  C   UNL     1     -49.905 -36.464  -0.795 -0.07 +0.00    +0.130 C  
DOCKED: ATOM      3  C   UNL     1     -50.553 -37.246   0.311 -0.11 +0.00    +0.004 A  
DOCKED: ATOM      4  C   UNL     1     -50.053 -38.540   0.324 -0.11 +0.00    +0.006 A  
DOCKED: ATOM      5  C   UNL     1     -49.044 -38.699  -0.748 -0.05 +0.00    +0.169 C  
DOCKED: ATOM      6  C   UNL     1     -51.502 -36.840   1.239 -0.18 -0.00    -0.001 A  
DOCKED: ATOM      7  C   UNL     1     -50.483 -39.469   1.256 -0.20 +0.00    +0.008 A  
DOCKED: ATOM      8  C   UNL     1     -51.948 -37.767   2.182 -0.29 +0.00    +0.010 A  
DOCKED: ATOM      9  C   UNL     1     -51.441 -39.075   2.190 -0.28 +0.00    +0.068 A  
DOCKED: ATOM     10  N   UNL     1     -52.288 -40.769   3.958 -2.59 -0.00    -0.191 NA 
DOCKED: ATOM     11  C   UNL     1     -51.909 -40.009   3.165 -0.43 +0.00    +0.101 C  
DOCKED: ENDROOT
DOCKED: BRANCH   2  12
DOCKED: ATOM     12  C   UNL     1     -49.003 -35.348  -0.283 -0.02 +0.00    +0.038 C  
DOCKED: BRANCH  12  13
DOCKED: ATOM     13  C   UNL     1     -47.616 -35.416  -0.920 -0.00 +0.00    +0.038 C  
DOCKED: BRANCH  13  14
DOCKED: ATOM     14  C   UNL     1     -47.405 -34.265  -1.902 -0.00 +0.00    +0.251 C  
DOCKED: BRANCH  14  15
DOCKED: ATOM     15  N   UNL     1     -46.871 -34.766  -3.163 -0.00 +0.00    +0.141 N  
DOCKED: ATOM     16  C   UNL     1     -47.588 -35.970  -3.586 +0.00 +0.00    +0.285 C  
DOCKED: ATOM     17  C   UNL     1     -46.951 -33.737  -4.201 +0.00 +0.00    +0.285 C  
DOCKED: ENDBRANCH  14  15
DOCKED: ENDBRANCH  13  14
DOCKED: ENDBRANCH  12  13
DOCKED: ENDBRANCH   2  12
DOCKED: BRANCH   2  18
DOCKED: ATOM     18  C   UNL     1     -50.886 -35.948  -1.795 -0.12 +0.00    +0.006 A  
DOCKED: ATOM     19  C   UNL     1     -50.947 -36.516  -3.067 -0.13 +0.00    +0.001 A  
DOCKED: ATOM     20  C   UNL     1     -51.864 -36.032  -4.001 -0.17 +0.00    +0.029 A  
DOCKED: ATOM     21  C   UNL     1     -52.718 -34.984  -3.662 -0.18 +0.00    +0.140 A  
DOCKED: ATOM     22  C   UNL     1     -52.656 -34.417  -2.389 -0.20 +0.00    +0.029 A  
DOCKED: ATOM     23  F   UNL     1     -53.600 -34.521  -4.558 -0.14 -0.00    -0.204 F  
DOCKED: ATOM     24  C   UNL     1     -51.739 -34.900  -1.454 -0.15 +0.00    +0.001 A  
DOCKED: ENDBRANCH   2  18
DOCKED: TORSDOF 5
DOCKED: TER
DOCKED: ENDMDL
________________________________________________________________________________


    FINAL DOCKED STATE:
    ________________________


Run:   487 / 512
Time taken for this run:   0.002s

DOCKED: MODEL        487
DOCKED: USER    Run = 487
DOCKED: USER
DOCKED: USER    Estimated Free Energy of Binding    =  -3.64 kcal/mol  [=(1)+(2)+(3)-(4)]
DOCKED: USER
DOCKED: USER    (1) Final Intermolecular Energy     =  -5.13 kcal/mol
DOCKED: USER        vdW + Hbond + desolv Energy     =  -5.13 kcal/mol
DOCKED: USER        Electrostatic Energy            =  +0.00 kcal/mol
DOCKED: USER        Moving Ligand-Fixed Receptor    =  -5.13 kcal/mol
DOCKED: USER        Moving Ligand-Moving Receptor   =  +0.00 kcal/mol
DOCKED: USER    (2) Final Total Internal Energy     =  -1.53 kcal/mol
DOCKED: USER    (3) Torsional Free Energy           =  +1.49 kcal/mol
DOCKED: USER    (4) Unbound System's Energy         =  -1.53 kcal/mol
DOCKED: USER
DOCKED: USER
DOCKED: REMARK  5 active torsions:
DOCKED: REMARK  status: ('A' for Active; 'I' for Inactive)
DOCKED: REMARK    1  A    between atoms: C_2  and  C_19 
DOCKED: REMARK    2  A    between atoms: C_2  and  C_11 
DOCKED: REMARK    3  A    between atoms: C_19  and  C_20 
DOCKED: REMARK    4  A    between atoms: C_20  and  C_21 
DOCKED: REMARK    5  A    between atoms: C_21  and  N_22 
DOCKED: USER                              x       y       z     vdW  Elec       q    Type
DOCKED: USER                           _______ _______ _______ _____ _____    ______ ____
DOCKED: ROOT
DOCKED: ATOM      1  O   UNL     1     -55.774 -37.588  10.261 -0.06 -0.00    -0.346 OA 
DOCKED: ATOM      2  C   UNL     1     -55.733 -36.637   9.150 -0.13 +0.00    +0.130 C  
DOCKED: ATOM      3  C   UNL     1     -56.659 -37.234   8.130 -0.22 +0.00    +0.004 A  
DOCKED: ATOM      4  C   UNL     1     -57.262 -38.368   8.655 -0.22 +0.00    +0.006 A  
DOCKED: ATOM      5  C   UNL     1     -56.794 -38.590  10.041 -0.04 +0.00    +0.169 C  
DOCKED: ATOM      6  C   UNL     1     -56.953 -36.801   6.845 -0.19 -0.00    -0.001 A  
DOCKED: ATOM      7  C   UNL     1     -58.171 -39.108   7.917 -0.29 +0.00    +0.008 A  
DOCKED: ATOM      8  C   UNL     1     -57.864 -37.539   6.087 -0.34 +0.00    +0.010 A  
DOCKED: ATOM      9  C   UNL     1     -58.470 -38.686   6.621 -0.29 +0.00    +0.068 A  
DOCKED: ATOM     10  N   UNL     1     -60.161 -40.029   5.189 -2.20 -0.00    -0.191 NA 
DOCKED: ATOM     11  C   UNL     1     -59.402 -39.427   5.831 -0.26 +0.00    +0.101 C  
DOCKED: ENDROOT
DOCKED: BRANCH   2  12
DOCKED: ATOM     12  C   UNL     1     -56.206 -35.280   9.658 -0.06 +0.00    +0.038 C  
DOCKED: BRANCH  12  13
DOCKED: ATOM     13  C   UNL     1     -55.998 -35.147  11.166 -0.02 +0.00    +0.038 C  
DOCKED: BRANCH  13  14
DOCKED: ATOM     14  C   UNL     1     -54.516 -35.005  11.506 -0.01 +0.00    +0.251 C  
DOCKED: BRANCH  14  15
DOCKED: ATOM     15  N   UNL     1     -53.968 -36.288  11.932 -0.02 +0.00    +0.141 N  
DOCKED: ATOM     16  C   UNL     1     -52.520 -36.325  11.725 -0.01 +0.00    +0.285 C  
DOCKED: ATOM     17  C   UNL     1     -54.287 -36.543  13.338 -0.01 +0.00    +0.285 C  
DOCKED: ENDBRANCH  14  15
DOCKED: ENDBRANCH  13  14
DOCKED: ENDBRANCH  12  13
DOCKED: ENDBRANCH   2  12
DOCKED: BRANCH   2  18
DOCKED: ATOM     18  C   UNL     1     -54.317 -36.573   8.682 -0.16 +0.00    +0.006 A  
DOCKED: ATOM     19  C   UNL     1     -53.734 -35.340   8.391 -0.11 +0.00    +0.001 A  
DOCKED: ATOM     20  C   UNL     1     -52.411 -35.281   7.954 -0.09 +0.00    +0.029 A  
DOCKED: ATOM     21  C   UNL     1     -51.672 -36.455   7.809 -0.08 +0.00    +0.140 A  
DOCKED: ATOM     22  C   UNL     1     -52.255 -37.687   8.101 -0.18 +0.00    +0.029 A  
DOCKED: ATOM     23  F   UNL     1     -50.400 -36.398   7.391 -0.00 -0.00    -0.204 F  
DOCKED: ATOM     24  C   UNL     1     -53.579 -37.747   8.538 -0.16 +0.00    +0.001 A  
DOCKED: ENDBRANCH   2  18
DOCKED: TORSDOF 5
DOCKED: TER
DOCKED: ENDMDL
________________________________________________________________________________


    FINAL DOCKED STATE:
    ________________________


Run:   488 / 512
Time taken for this run:   0.002s

DOCKED: MODEL        488
DOCKED: USER    Run = 488
DOCKED: USER
DOCKED: USER    Estimated Free Energy of Binding    =  -3.44 kcal/mol  [=(1)+(2)+(3)-(4)]
DOCKED: USER
DOCKED: USER    (1) Final Intermolecular Energy     =  -4.93 kcal/mol
DOCKED: USER        vdW + Hbond + desolv Energy     =  -4.93 kcal/mol
DOCKED: USER        Electrostatic Energy            =  +0.00 kcal/mol
DOCKED: USER        Moving Ligand-Fixed Receptor    =  -4.93 kcal/mol
DOCKED: USER        Moving Ligand-Moving Receptor   =  +0.00 kcal/mol
DOCKED: USER    (2) Final Total Internal Energy     =  -1.21 kcal/mol
DOCKED: USER    (3) Torsional Free Energy           =  +1.49 kcal/mol
DOCKED: USER    (4) Unbound System's Energy         =  -1.21 kcal/mol
DOCKED: USER
DOCKED: USER
DOCKED: REMARK  5 active torsions:
DOCKED: REMARK  status: ('A' for Active; 'I' for Inactive)
DOCKED: REMARK    1  A    between atoms: C_2  and  C_19 
DOCKED: REMARK    2  A    between atoms: C_2  and  C_11 
DOCKED: REMARK    3  A    between atoms: C_19  and  C_20 
DOCKED: REMARK    4  A    between atoms: C_20  and  C_21 
DOCKED: REMARK    5  A    between atoms: C_21  and  N_22 
DOCKED: USER                              x       y       z     vdW  Elec       q    Type
DOCKED: USER                           _______ _______ _______ _____ _____    ______ ____
DOCKED: ROOT
DOCKED: ATOM      1  O   UNL     1     -51.509 -34.119   1.822 +0.00 -0.00    -0.346 OA 
DOCKED: ATOM      2  C   UNL     1     -50.486 -34.918   1.147 -0.04 +0.00    +0.130 C  
DOCKED: ATOM      3  C   UNL     1     -50.708 -36.306   1.675 -0.09 +0.00    +0.004 A  
DOCKED: ATOM      4  C   UNL     1     -51.828 -36.321   2.494 -0.20 +0.00    +0.006 A  
DOCKED: ATOM      5  C   UNL     1     -52.424 -34.967   2.554 -0.14 +0.00    +0.169 C  
DOCKED: ATOM      6  C   UNL     1     -49.983 -37.465   1.440 -0.08 -0.00    -0.001 A  
DOCKED: ATOM      7  C   UNL     1     -52.257 -37.485   3.107 -0.20 +0.00    +0.008 A  
DOCKED: ATOM      8  C   UNL     1     -50.400 -38.647   2.054 -0.16 +0.00    +0.010 A  
DOCKED: ATOM      9  C   UNL     1     -51.532 -38.657   2.883 -0.28 +0.00    +0.068 A  
DOCKED: ATOM     10  N   UNL     1     -52.283 -40.869   4.003 -2.54 -0.00    -0.191 NA 
DOCKED: ATOM     11  C   UNL     1     -51.946 -39.877   3.501 -0.38 +0.00    +0.101 C  
DOCKED: ENDROOT
DOCKED: BRANCH   2  12
DOCKED: ATOM     12  C   UNL     1     -50.707 -34.813  -0.357 -0.07 +0.00    +0.038 C  
DOCKED: BRANCH  12  13
DOCKED: ATOM     13  C   UNL     1     -52.181 -34.589  -0.690 -0.17 +0.00    +0.038 C  
DOCKED: BRANCH  13  14
DOCKED: ATOM     14  C   UNL     1     -52.464 -33.113  -0.962 -0.09 +0.00    +0.251 C  
DOCKED: BRANCH  14  15
DOCKED: ATOM     15  N   UNL     1     -53.894 -32.845  -0.865 -0.17 +0.00    +0.141 N  
DOCKED: ATOM     16  C   UNL     1     -54.396 -33.197   0.464 -0.14 +0.00    +0.285 C  
DOCKED: ATOM     17  C   UNL     1     -54.176 -31.438  -1.158 -0.15 +0.00    +0.285 C  
DOCKED: ENDBRANCH  14  15
DOCKED: ENDBRANCH  13  14
DOCKED: ENDBRANCH  12  13
DOCKED: ENDBRANCH   2  12
DOCKED: BRANCH   2  18
DOCKED: ATOM     18  C   UNL     1     -49.162 -34.351   1.538 -0.01 +0.00    +0.006 A  
DOCKED: ATOM     19  C   UNL     1     -48.630 -34.628   2.796 -0.01 +0.00    +0.001 A  
DOCKED: ATOM     20  C   UNL     1     -47.392 -34.097   3.161 -0.00 +0.00    +0.029 A  
DOCKED: ATOM     21  C   UNL     1     -46.688 -33.292   2.266 -0.00 +0.00    +0.140 A  
DOCKED: ATOM     22  C   UNL     1     -47.220 -33.017   1.007 +0.00 +0.00    +0.029 A  
DOCKED: ATOM     23  F   UNL     1     -45.498 -32.785   2.615 +0.00 -0.00    -0.204 F  
DOCKED: ATOM     24  C   UNL     1     -48.459 -33.547   0.642 -0.00 +0.00    +0.001 A  
DOCKED: ENDBRANCH   2  18
DOCKED: TORSDOF 5
DOCKED: TER
DOCKED: ENDMDL
________________________________________________________________________________


    FINAL DOCKED STATE:
    ________________________


Run:   489 / 512
Time taken for this run:   0.002s

DOCKED: MODEL        489
DOCKED: USER    Run = 489
DOCKED: USER
DOCKED: USER    Estimated Free Energy of Binding    =  -4.22 kcal/mol  [=(1)+(2)+(3)-(4)]
DOCKED: USER
DOCKED: USER    (1) Final Intermolecular Energy     =  -5.71 kcal/mol
DOCKED: USER        vdW + Hbond + desolv Energy     =  -5.71 kcal/mol
DOCKED: USER        Electrostatic Energy            =  +0.00 kcal/mol
DOCKED: USER        Moving Ligand-Fixed Receptor    =  -5.71 kcal/mol
DOCKED: USER        Moving Ligand-Moving Receptor   =  +0.00 kcal/mol
DOCKED: USER    (2) Final Total Internal Energy     =  -1.28 kcal/mol
DOCKED: USER    (3) Torsional Free Energy           =  +1.49 kcal/mol
DOCKED: USER    (4) Unbound System's Energy         =  -1.28 kcal/mol
DOCKED: USER
DOCKED: USER
DOCKED: REMARK  5 active torsions:
DOCKED: REMARK  status: ('A' for Active; 'I' for Inactive)
DOCKED: REMARK    1  A    between atoms: C_2  and  C_19 
DOCKED: REMARK    2  A    between atoms: C_2  and  C_11 
DOCKED: REMARK    3  A    between atoms: C_19  and  C_20 
DOCKED: REMARK    4  A    between atoms: C_20  and  C_21 
DOCKED: REMARK    5  A    between atoms: C_21  and  N_22 
DOCKED: USER                              x       y       z     vdW  Elec       q    Type
DOCKED: USER                           _______ _______ _______ _____ _____    ______ ____
DOCKED: ROOT
DOCKED: ATOM      1  O   UNL     1     -54.653 -36.395   8.648 -0.09 -0.00    -0.346 OA 
DOCKED: ATOM      2  C   UNL     1     -55.745 -35.462   8.370 -0.12 +0.00    +0.130 C  
DOCKED: ATOM      3  C   UNL     1     -56.767 -36.305   7.663 -0.21 +0.00    +0.004 A  
DOCKED: ATOM      4  C   UNL     1     -56.345 -37.627   7.637 -0.24 +0.00    +0.006 A  
DOCKED: ATOM      5  C   UNL     1     -55.040 -37.751   8.326 -0.08 +0.00    +0.169 C  
DOCKED: ATOM      6  C   UNL     1     -57.979 -35.934   7.099 -0.24 -0.00    -0.001 A  
DOCKED: ATOM      7  C   UNL     1     -57.111 -38.617   7.046 -0.36 +0.00    +0.008 A  
DOCKED: ATOM      8  C   UNL     1     -58.761 -36.920   6.495 -0.29 +0.00    +0.010 A  
DOCKED: ATOM      9  C   UNL     1     -58.329 -38.255   6.469 -0.30 +0.00    +0.068 A  
DOCKED: ATOM     10  N   UNL     1     -59.808 -40.061   5.345 -2.55 -0.00    -0.191 NA 
DOCKED: ATOM     11  C   UNL     1     -59.144 -39.251   5.849 -0.35 +0.00    +0.101 C  
DOCKED: ENDROOT
DOCKED: BRANCH   2  12
DOCKED: ATOM     12  C   UNL     1     -56.251 -34.903   9.695 -0.04 +0.00    +0.038 C  
DOCKED: BRANCH  12  13
DOCKED: ATOM     13  C   UNL     1     -56.536 -36.019  10.698 -0.05 +0.00    +0.038 C  
DOCKED: BRANCH  13  14
DOCKED: ATOM     14  C   UNL     1     -58.018 -36.390  10.702 -0.02 +0.00    +0.251 C  
DOCKED: BRANCH  14  15
DOCKED: ATOM     15  N   UNL     1     -58.213 -37.693  11.325 -0.05 +0.00    +0.141 N  
DOCKED: ATOM     16  C   UNL     1     -59.073 -38.538  10.495 -0.07 +0.00    +0.285 C  
DOCKED: ATOM     17  C   UNL     1     -56.927 -38.351  11.558 -0.08 +0.00    +0.285 C  
DOCKED: ENDBRANCH  14  15
DOCKED: ENDBRANCH  13  14
DOCKED: ENDBRANCH  12  13
DOCKED: ENDBRANCH   2  12
DOCKED: BRANCH   2  18
DOCKED: ATOM     18  C   UNL     1     -55.187 -34.380   7.508 -0.12 +0.00    +0.006 A  
DOCKED: ATOM     19  C   UNL     1     -55.739 -34.137   6.251 -0.15 +0.00    +0.001 A  
DOCKED: ATOM     20  C   UNL     1     -55.215 -33.125   5.445 -0.14 +0.00    +0.029 A  
DOCKED: ATOM     21  C   UNL     1     -54.142 -32.358   5.897 -0.06 +0.00    +0.140 A  
DOCKED: ATOM     22  C   UNL     1     -53.591 -32.603   7.154 -0.04 +0.00    +0.029 A  
DOCKED: ATOM     23  F   UNL     1     -53.641 -31.386   5.124 -0.00 -0.00    -0.204 F  
DOCKED: ATOM     24  C   UNL     1     -54.113 -33.615   7.961 -0.06 +0.00    +0.001 A  
DOCKED: ENDBRANCH   2  18
DOCKED: TORSDOF 5
DOCKED: TER
DOCKED: ENDMDL
________________________________________________________________________________


    FINAL DOCKED STATE:
    ________________________


Run:   490 / 512
Time taken for this run:   0.002s

DOCKED: MODEL        490
DOCKED: USER    Run = 490
DOCKED: USER
DOCKED: USER    Estimated Free Energy of Binding    =  -3.72 kcal/mol  [=(1)+(2)+(3)-(4)]
DOCKED: USER
DOCKED: USER    (1) Final Intermolecular Energy     =  -5.21 kcal/mol
DOCKED: USER        vdW + Hbond + desolv Energy     =  -5.21 kcal/mol
DOCKED: USER        Electrostatic Energy            =  +0.00 kcal/mol
DOCKED: USER        Moving Ligand-Fixed Receptor    =  -5.21 kcal/mol
DOCKED: USER        Moving Ligand-Moving Receptor   =  +0.00 kcal/mol
DOCKED: USER    (2) Final Total Internal Energy     =  -1.50 kcal/mol
DOCKED: USER    (3) Torsional Free Energy           =  +1.49 kcal/mol
DOCKED: USER    (4) Unbound System's Energy         =  -1.50 kcal/mol
DOCKED: USER
DOCKED: USER
DOCKED: REMARK  5 active torsions:
DOCKED: REMARK  status: ('A' for Active; 'I' for Inactive)
DOCKED: REMARK    1  A    between atoms: C_2  and  C_19 
DOCKED: REMARK    2  A    between atoms: C_2  and  C_11 
DOCKED: REMARK    3  A    between atoms: C_19  and  C_20 
DOCKED: REMARK    4  A    between atoms: C_20  and  C_21 
DOCKED: REMARK    5  A    between atoms: C_21  and  N_22 
DOCKED: USER                              x       y       z     vdW  Elec       q    Type
DOCKED: USER                           _______ _______ _______ _____ _____    ______ ____
DOCKED: ROOT
DOCKED: ATOM      1  O   UNL     1     -52.954 -34.296   0.877 -0.02 -0.00    -0.346 OA 
DOCKED: ATOM      2  C   UNL     1     -51.861 -34.983   0.188 -0.13 +0.00    +0.130 C  
DOCKED: ATOM      3  C   UNL     1     -51.778 -36.312   0.882 -0.17 +0.00    +0.004 A  
DOCKED: ATOM      4  C   UNL     1     -52.804 -36.420   1.810 -0.30 +0.00    +0.006 A  
DOCKED: ATOM      5  C   UNL     1     -53.633 -35.194   1.787 -0.25 +0.00    +0.169 C  
DOCKED: ATOM      6  C   UNL     1     -50.874 -37.348   0.698 -0.14 -0.00    -0.001 A  
DOCKED: ATOM      7  C   UNL     1     -52.959 -37.556   2.585 -0.08 +0.00    +0.008 A  
DOCKED: ATOM      8  C   UNL     1     -51.014 -38.499   1.475 -0.20 +0.00    +0.010 A  
DOCKED: ATOM      9  C   UNL     1     -52.051 -38.603   2.413 -0.31 +0.00    +0.068 A  
DOCKED: ATOM     10  N   UNL     1     -52.286 -40.756   3.836 -2.54 -0.00    -0.191 NA 
DOCKED: ATOM     11  C   UNL     1     -52.180 -39.790   3.198 -0.35 +0.00    +0.101 C  
DOCKED: ENDROOT
DOCKED: BRANCH   2  12
DOCKED: ATOM     12  C   UNL     1     -52.221 -35.106  -1.287 -0.13 +0.00    +0.038 C  
DOCKED: BRANCH  12  13
DOCKED: ATOM     13  C   UNL     1     -53.232 -34.039  -1.704 -0.15 +0.00    +0.038 C  
DOCKED: BRANCH  13  14
DOCKED: ATOM     14  C   UNL     1     -52.534 -32.837  -2.336 -0.12 +0.00    +0.251 C  
DOCKED: BRANCH  14  15
DOCKED: ATOM     15  N   UNL     1     -52.973 -31.602  -1.699 -0.09 +0.00    +0.141 N  
DOCKED: ATOM     16  C   UNL     1     -54.324 -31.754  -1.156 -0.15 +0.00    +0.285 C  
DOCKED: ATOM     17  C   UNL     1     -52.042 -31.208  -0.641 -0.01 +0.00    +0.285 C  
DOCKED: ENDBRANCH  14  15
DOCKED: ENDBRANCH  13  14
DOCKED: ENDBRANCH  12  13
DOCKED: ENDBRANCH   2  12
DOCKED: BRANCH   2  18
DOCKED: ATOM     18  C   UNL     1     -50.636 -34.152   0.376 -0.03 +0.00    +0.006 A  
DOCKED: ATOM     19  C   UNL     1     -49.740 -33.983  -0.679 -0.01 +0.00    +0.001 A  
DOCKED: ATOM     20  C   UNL     1     -48.595 -33.205  -0.501 -0.00 +0.00    +0.029 A  
DOCKED: ATOM     21  C   UNL     1     -48.348 -32.598   0.729 +0.00 +0.00    +0.140 A  
DOCKED: ATOM     22  C   UNL     1     -49.245 -32.767   1.783 -0.00 +0.00    +0.029 A  
DOCKED: ATOM     23  F   UNL     1     -47.250 -31.850   0.898 +0.00 -0.00    -0.204 F  
DOCKED: ATOM     24  C   UNL     1     -50.391 -33.545   1.607 -0.02 +0.00    +0.001 A  
DOCKED: ENDBRANCH   2  18
DOCKED: TORSDOF 5
DOCKED: TER
DOCKED: ENDMDL
________________________________________________________________________________


    FINAL DOCKED STATE:
    ________________________


Run:   491 / 512
Time taken for this run:   0.002s

DOCKED: MODEL        491
DOCKED: USER    Run = 491
DOCKED: USER
DOCKED: USER    Estimated Free Energy of Binding    =  -5.32 kcal/mol  [=(1)+(2)+(3)-(4)]
DOCKED: USER
DOCKED: USER    (1) Final Intermolecular Energy     =  -6.81 kcal/mol
DOCKED: USER        vdW + Hbond + desolv Energy     =  -6.81 kcal/mol
DOCKED: USER        Electrostatic Energy            =  +0.00 kcal/mol
DOCKED: USER        Moving Ligand-Fixed Receptor    =  -6.81 kcal/mol
DOCKED: USER        Moving Ligand-Moving Receptor   =  +0.00 kcal/mol
DOCKED: USER    (2) Final Total Internal Energy     =  -1.59 kcal/mol
DOCKED: USER    (3) Torsional Free Energy           =  +1.49 kcal/mol
DOCKED: USER    (4) Unbound System's Energy         =  -1.59 kcal/mol
DOCKED: USER
DOCKED: USER
DOCKED: REMARK  5 active torsions:
DOCKED: REMARK  status: ('A' for Active; 'I' for Inactive)
DOCKED: REMARK    1  A    between atoms: C_2  and  C_19 
DOCKED: REMARK    2  A    between atoms: C_2  and  C_11 
DOCKED: REMARK    3  A    between atoms: C_19  and  C_20 
DOCKED: REMARK    4  A    between atoms: C_20  and  C_21 
DOCKED: REMARK    5  A    between atoms: C_21  and  N_22 
DOCKED: USER                              x       y       z     vdW  Elec       q    Type
DOCKED: USER                           _______ _______ _______ _____ _____    ______ ____
DOCKED: ROOT
DOCKED: ATOM      1  O   UNL     1     -58.085 -36.150   7.932 -0.04 -0.00    -0.346 OA 
DOCKED: ATOM      2  C   UNL     1     -57.528 -37.503   7.941 -0.21 +0.00    +0.130 C  
DOCKED: ATOM      3  C   UNL     1     -57.955 -38.076   6.621 -0.34 +0.00    +0.004 A  
DOCKED: ATOM      4  C   UNL     1     -58.604 -37.101   5.877 -0.34 +0.00    +0.006 A  
DOCKED: ATOM      5  C   UNL     1     -58.639 -35.831   6.635 -0.22 +0.00    +0.169 C  
DOCKED: ATOM      6  C   UNL     1     -57.775 -39.355   6.115 -0.38 -0.00    -0.001 A  
DOCKED: ATOM      7  C   UNL     1     -59.095 -37.369   4.610 -0.13 +0.00    +0.008 A  
DOCKED: ATOM      8  C   UNL     1     -58.268 -39.643   4.842 -0.43 +0.00    +0.010 A  
DOCKED: ATOM      9  C   UNL     1     -58.925 -38.654   4.093 -0.44 +0.00    +0.068 A  
DOCKED: ATOM     10  N   UNL     1     -59.824 -39.220   1.730 -2.56 -0.00    -0.191 NA 
DOCKED: ATOM     11  C   UNL     1     -59.421 -38.966   2.790 -0.42 +0.00    +0.101 C  
DOCKED: ENDROOT
DOCKED: BRANCH   2  12
DOCKED: ATOM     12  C   UNL     1     -56.014 -37.401   8.082 -0.25 +0.00    +0.038 C  
DOCKED: BRANCH  12  13
DOCKED: ATOM     13  C   UNL     1     -55.591 -36.013   8.557 -0.16 +0.00    +0.038 C  
DOCKED: BRANCH  13  14
DOCKED: ATOM     14  C   UNL     1     -55.415 -35.981  10.074 -0.04 +0.00    +0.251 C  
DOCKED: BRANCH  14  15
DOCKED: ATOM     15  N   UNL     1     -56.709 -35.849  10.732 -0.02 +0.00    +0.141 N  
DOCKED: ATOM     16  C   UNL     1     -56.573 -36.025  12.179 -0.01 +0.00    +0.285 C  
DOCKED: ATOM     17  C   UNL     1     -57.308 -34.547  10.434 -0.00 +0.00    +0.285 C  
DOCKED: ENDBRANCH  14  15
DOCKED: ENDBRANCH  13  14
DOCKED: ENDBRANCH  12  13
DOCKED: ENDBRANCH   2  12
DOCKED: BRANCH   2  18
DOCKED: ATOM     18  C   UNL     1     -58.130 -38.215   9.107 -0.17 +0.00    +0.006 A  
DOCKED: ATOM     19  C   UNL     1     -57.383 -39.161   9.807 -0.15 +0.00    +0.001 A  
DOCKED: ATOM     20  C   UNL     1     -57.947 -39.826  10.896 -0.17 +0.00    +0.029 A  
DOCKED: ATOM     21  C   UNL     1     -59.256 -39.544  11.284 -0.05 +0.00    +0.140 A  
DOCKED: ATOM     22  C   UNL     1     -60.003 -38.597  10.583 -0.12 +0.00    +0.029 A  
DOCKED: ATOM     23  F   UNL     1     -59.797 -40.181  12.331 -0.03 -0.00    -0.204 F  
DOCKED: ATOM     24  C   UNL     1     -59.439 -37.931   9.493 -0.12 +0.00    +0.001 A  
DOCKED: ENDBRANCH   2  18
DOCKED: TORSDOF 5
DOCKED: TER
DOCKED: ENDMDL
________________________________________________________________________________


    FINAL DOCKED STATE:
    ________________________


Run:   492 / 512
Time taken for this run:   0.002s

DOCKED: MODEL        492
DOCKED: USER    Run = 492
DOCKED: USER
DOCKED: USER    Estimated Free Energy of Binding    =  -4.24 kcal/mol  [=(1)+(2)+(3)-(4)]
DOCKED: USER
DOCKED: USER    (1) Final Intermolecular Energy     =  -5.73 kcal/mol
DOCKED: USER        vdW + Hbond + desolv Energy     =  -5.73 kcal/mol
DOCKED: USER        Electrostatic Energy            =  +0.00 kcal/mol
DOCKED: USER        Moving Ligand-Fixed Receptor    =  -5.73 kcal/mol
DOCKED: USER        Moving Ligand-Moving Receptor   =  +0.00 kcal/mol
DOCKED: USER    (2) Final Total Internal Energy     =  -1.30 kcal/mol
DOCKED: USER    (3) Torsional Free Energy           =  +1.49 kcal/mol
DOCKED: USER    (4) Unbound System's Energy         =  -1.30 kcal/mol
DOCKED: USER
DOCKED: USER
DOCKED: REMARK  5 active torsions:
DOCKED: REMARK  status: ('A' for Active; 'I' for Inactive)
DOCKED: REMARK    1  A    between atoms: C_2  and  C_19 
DOCKED: REMARK    2  A    between atoms: C_2  and  C_11 
DOCKED: REMARK    3  A    between atoms: C_19  and  C_20 
DOCKED: REMARK    4  A    between atoms: C_20  and  C_21 
DOCKED: REMARK    5  A    between atoms: C_21  and  N_22 
DOCKED: USER                              x       y       z     vdW  Elec       q    Type
DOCKED: USER                           _______ _______ _______ _____ _____    ______ ____
DOCKED: ROOT
DOCKED: ATOM      1  O   UNL     1     -54.699 -30.263   0.400 -0.06 -0.00    -0.346 OA 
DOCKED: ATOM      2  C   UNL     1     -53.503 -29.660  -0.191 -0.13 +0.00    +0.130 C  
DOCKED: ATOM      3  C   UNL     1     -54.028 -28.915  -1.384 -0.21 +0.00    +0.004 A  
DOCKED: ATOM      4  C   UNL     1     -55.413 -28.993  -1.411 -0.30 +0.00    +0.006 A  
DOCKED: ATOM      5  C   UNL     1     -55.895 -29.771  -0.248 -0.24 +0.00    +0.169 C  
DOCKED: ATOM      6  C   UNL     1     -53.335 -28.215  -2.361 -0.17 -0.00    -0.001 A  
DOCKED: ATOM      7  C   UNL     1     -56.149 -28.381  -2.411 -0.35 +0.00    +0.008 A  
DOCKED: ATOM      8  C   UNL     1     -54.063 -27.597  -3.379 -0.26 +0.00    +0.010 A  
DOCKED: ATOM      9  C   UNL     1     -55.463 -27.679  -3.403 -0.35 +0.00    +0.068 A  
DOCKED: ATOM     10  N   UNL     1     -56.785 -26.516  -5.304 -2.44 -0.00    -0.191 NA 
DOCKED: ATOM     11  C   UNL     1     -56.192 -27.038  -4.452 -0.38 +0.00    +0.101 C  
DOCKED: ENDROOT
DOCKED: BRANCH   2  12
DOCKED: ATOM     12  C   UNL     1     -52.862 -28.744   0.846 -0.15 +0.00    +0.038 C  
DOCKED: BRANCH  12  13
DOCKED: ATOM     13  C   UNL     1     -52.432 -29.524   2.087 -0.10 +0.00    +0.038 C  
DOCKED: BRANCH  13  14
DOCKED: ATOM     14  C   UNL     1     -52.794 -28.767   3.363 -0.09 +0.00    +0.251 C  
DOCKED: BRANCH  14  15
DOCKED: ATOM     15  N   UNL     1     -53.917 -29.412   4.034 -0.07 +0.00    +0.141 N  
DOCKED: ATOM     16  C   UNL     1     -55.155 -28.667   3.799 -0.12 +0.00    +0.285 C  
DOCKED: ATOM     17  C   UNL     1     -54.063 -30.796   3.579 -0.04 +0.00    +0.285 C  
DOCKED: ENDBRANCH  14  15
DOCKED: ENDBRANCH  13  14
DOCKED: ENDBRANCH  12  13
DOCKED: ENDBRANCH   2  12
DOCKED: BRANCH   2  18
DOCKED: ATOM     18  C   UNL     1     -52.588 -30.779  -0.560 -0.06 +0.00    +0.006 A  
DOCKED: ATOM     19  C   UNL     1     -52.897 -32.085  -0.182 -0.08 +0.00    +0.001 A  
DOCKED: ATOM     20  C   UNL     1     -52.040 -33.131  -0.528 -0.08 +0.00    +0.029 A  
DOCKED: ATOM     21  C   UNL     1     -50.876 -32.869  -1.250 -0.02 +0.00    +0.140 A  
DOCKED: ATOM     22  C   UNL     1     -50.568 -31.563  -1.628 -0.01 +0.00    +0.029 A  
DOCKED: ATOM     23  F   UNL     1     -50.055 -33.873  -1.583 +0.00 -0.00    -0.204 F  
DOCKED: ATOM     24  C   UNL     1     -51.424 -30.516  -1.282 -0.03 +0.00    +0.001 A  
DOCKED: ENDBRANCH   2  18
DOCKED: TORSDOF 5
DOCKED: TER
DOCKED: ENDMDL
________________________________________________________________________________


    FINAL DOCKED STATE:
    ________________________


Run:   493 / 512
Time taken for this run:   0.002s

DOCKED: MODEL        493
DOCKED: USER    Run = 493
DOCKED: USER
DOCKED: USER    Estimated Free Energy of Binding    =  -3.74 kcal/mol  [=(1)+(2)+(3)-(4)]
DOCKED: USER
DOCKED: USER    (1) Final Intermolecular Energy     =  -5.23 kcal/mol
DOCKED: USER        vdW + Hbond + desolv Energy     =  -5.23 kcal/mol
DOCKED: USER        Electrostatic Energy            =  +0.00 kcal/mol
DOCKED: USER        Moving Ligand-Fixed Receptor    =  -5.23 kcal/mol
DOCKED: USER        Moving Ligand-Moving Receptor   =  +0.00 kcal/mol
DOCKED: USER    (2) Final Total Internal Energy     =  -1.22 kcal/mol
DOCKED: USER    (3) Torsional Free Energy           =  +1.49 kcal/mol
DOCKED: USER    (4) Unbound System's Energy         =  -1.22 kcal/mol
DOCKED: USER
DOCKED: USER
DOCKED: REMARK  5 active torsions:
DOCKED: REMARK  status: ('A' for Active; 'I' for Inactive)
DOCKED: REMARK    1  A    between atoms: C_2  and  C_19 
DOCKED: REMARK    2  A    between atoms: C_2  and  C_11 
DOCKED: REMARK    3  A    between atoms: C_19  and  C_20 
DOCKED: REMARK    4  A    between atoms: C_20  and  C_21 
DOCKED: REMARK    5  A    between atoms: C_21  and  N_22 
DOCKED: USER                              x       y       z     vdW  Elec       q    Type
DOCKED: USER                           _______ _______ _______ _____ _____    ______ ____
DOCKED: ROOT
DOCKED: ATOM      1  O   UNL     1     -51.550 -34.071   1.567 +0.00 -0.00    -0.346 OA 
DOCKED: ATOM      2  C   UNL     1     -51.276 -34.962   0.439 -0.08 +0.00    +0.130 C  
DOCKED: ATOM      3  C   UNL     1     -51.431 -36.337   1.020 -0.15 +0.00    +0.004 A  
DOCKED: ATOM      4  C   UNL     1     -51.864 -36.242   2.335 -0.20 +0.00    +0.006 A  
DOCKED: ATOM      5  C   UNL     1     -52.035 -34.819   2.706 -0.11 +0.00    +0.169 C  
DOCKED: ATOM      6  C   UNL     1     -51.217 -37.574   0.429 -0.14 -0.00    -0.001 A  
DOCKED: ATOM      7  C   UNL     1     -52.092 -37.372   3.102 -0.22 +0.00    +0.008 A  
DOCKED: ATOM      8  C   UNL     1     -51.439 -38.723   1.191 -0.24 +0.00    +0.010 A  
DOCKED: ATOM      9  C   UNL     1     -51.875 -38.621   2.521 -0.30 +0.00    +0.068 A  
DOCKED: ATOM     10  N   UNL     1     -52.282 -40.773   3.905 -2.57 -0.00    -0.191 NA 
DOCKED: ATOM     11  C   UNL     1     -52.099 -39.808   3.285 -0.35 +0.00    +0.101 C  
DOCKED: ENDROOT
DOCKED: BRANCH   2  12
DOCKED: ATOM     12  C   UNL     1     -52.285 -34.667  -0.665 -0.18 +0.00    +0.038 C  
DOCKED: BRANCH  12  13
DOCKED: ATOM     13  C   UNL     1     -53.544 -34.007  -0.107 -0.22 +0.00    +0.038 C  
DOCKED: BRANCH  13  14
DOCKED: ATOM     14  C   UNL     1     -53.524 -32.498  -0.343 -0.11 +0.00    +0.251 C  
DOCKED: BRANCH  14  15
DOCKED: ATOM     15  N   UNL     1     -54.353 -31.819   0.647 -0.11 +0.00    +0.141 N  
DOCKED: ATOM     16  C   UNL     1     -55.630 -32.514   0.814 -0.15 +0.00    +0.285 C  
DOCKED: ATOM     17  C   UNL     1     -53.654 -31.727   1.929 -0.04 +0.00    +0.285 C  
DOCKED: ENDBRANCH  14  15
DOCKED: ENDBRANCH  13  14
DOCKED: ENDBRANCH  12  13
DOCKED: ENDBRANCH   2  12
DOCKED: BRANCH   2  18
DOCKED: ATOM     18  C   UNL     1     -49.883 -34.676  -0.015 -0.03 +0.00    +0.006 A  
DOCKED: ATOM     19  C   UNL     1     -49.261 -35.523  -0.931 -0.02 +0.00    +0.001 A  
DOCKED: ATOM     20  C   UNL     1     -47.959 -35.254  -1.353 -0.00 +0.00    +0.029 A  
DOCKED: ATOM     21  C   UNL     1     -47.281 -34.140  -0.861 -0.00 +0.00    +0.140 A  
DOCKED: ATOM     22  C   UNL     1     -47.905 -33.293   0.055 -0.00 +0.00    +0.029 A  
DOCKED: ATOM     23  F   UNL     1     -46.032 -33.881  -1.268 +0.00 -0.00    -0.204 F  
DOCKED: ATOM     24  C   UNL     1     -49.207 -33.561   0.479 -0.00 +0.00    +0.001 A  
DOCKED: ENDBRANCH   2  18
DOCKED: TORSDOF 5
DOCKED: TER
DOCKED: ENDMDL
________________________________________________________________________________


    FINAL DOCKED STATE:
    ________________________


Run:   494 / 512
Time taken for this run:   0.002s

DOCKED: MODEL        494
DOCKED: USER    Run = 494
DOCKED: USER
DOCKED: USER    Estimated Free Energy of Binding    =  -4.83 kcal/mol  [=(1)+(2)+(3)-(4)]
DOCKED: USER
DOCKED: USER    (1) Final Intermolecular Energy     =  -6.32 kcal/mol
DOCKED: USER        vdW + Hbond + desolv Energy     =  -6.32 kcal/mol
DOCKED: USER        Electrostatic Energy            =  +0.00 kcal/mol
DOCKED: USER        Moving Ligand-Fixed Receptor    =  -6.32 kcal/mol
DOCKED: USER        Moving Ligand-Moving Receptor   =  +0.00 kcal/mol
DOCKED: USER    (2) Final Total Internal Energy     =  -1.29 kcal/mol
DOCKED: USER    (3) Torsional Free Energy           =  +1.49 kcal/mol
DOCKED: USER    (4) Unbound System's Energy         =  -1.29 kcal/mol
DOCKED: USER
DOCKED: USER
DOCKED: REMARK  5 active torsions:
DOCKED: REMARK  status: ('A' for Active; 'I' for Inactive)
DOCKED: REMARK    1  A    between atoms: C_2  and  C_19 
DOCKED: REMARK    2  A    between atoms: C_2  and  C_11 
DOCKED: REMARK    3  A    between atoms: C_19  and  C_20 
DOCKED: REMARK    4  A    between atoms: C_20  and  C_21 
DOCKED: REMARK    5  A    between atoms: C_21  and  N_22 
DOCKED: USER                              x       y       z     vdW  Elec       q    Type
DOCKED: USER                           _______ _______ _______ _____ _____    ______ ____
DOCKED: ROOT
DOCKED: ATOM      1  O   UNL     1     -55.172 -29.933   0.518 -0.09 -0.00    -0.346 OA 
DOCKED: ATOM      2  C   UNL     1     -53.914 -29.638  -0.169 -0.16 +0.00    +0.130 C  
DOCKED: ATOM      3  C   UNL     1     -54.346 -28.945  -1.429 -0.23 +0.00    +0.004 A  
DOCKED: ATOM      4  C   UNL     1     -55.721 -28.760  -1.412 -0.28 +0.00    +0.006 A  
DOCKED: ATOM      5  C   UNL     1     -56.285 -29.298  -0.154 -0.24 +0.00    +0.169 C  
DOCKED: ATOM      6  C   UNL     1     -53.581 -28.503  -2.499 -0.19 -0.00    -0.001 A  
DOCKED: ATOM      7  C   UNL     1     -56.377 -28.135  -2.459 -0.37 +0.00    +0.008 A  
DOCKED: ATOM      8  C   UNL     1     -54.228 -27.875  -3.564 -0.27 +0.00    +0.010 A  
DOCKED: ATOM      9  C   UNL     1     -55.619 -27.692  -3.544 -0.34 +0.00    +0.068 A  
DOCKED: ATOM     10  N   UNL     1     -56.788 -26.517  -5.536 -2.56 -0.00    -0.191 NA 
DOCKED: ATOM     11  C   UNL     1     -56.264 -27.045  -4.643 -0.33 +0.00    +0.101 C  
DOCKED: ENDROOT
DOCKED: BRANCH   2  12
DOCKED: ATOM     12  C   UNL     1     -53.066 -28.751   0.735 -0.15 +0.00    +0.038 C  
DOCKED: BRANCH  12  13
DOCKED: ATOM     13  C   UNL     1     -52.440 -29.554   1.874 -0.10 +0.00    +0.038 C  
DOCKED: BRANCH  13  14
DOCKED: ATOM     14  C   UNL     1     -53.413 -29.700   3.043 -0.08 +0.00    +0.251 C  
DOCKED: BRANCH  14  15
DOCKED: ATOM     15  N   UNL     1     -53.979 -28.404   3.397 -0.12 +0.00    +0.141 N  
DOCKED: ATOM     16  C   UNL     1     -55.418 -28.379   3.131 -0.15 +0.00    +0.285 C  
DOCKED: ATOM     17  C   UNL     1     -53.717 -28.093   4.803 -0.07 +0.00    +0.285 C  
DOCKED: ENDBRANCH  14  15
DOCKED: ENDBRANCH  13  14
DOCKED: ENDBRANCH  12  13
DOCKED: ENDBRANCH   2  12
DOCKED: BRANCH   2  18
DOCKED: ATOM     18  C   UNL     1     -53.240 -30.945  -0.426 -0.10 +0.00    +0.006 A  
DOCKED: ATOM     19  C   UNL     1     -53.860 -32.134  -0.045 -0.15 +0.00    +0.001 A  
DOCKED: ATOM     20  C   UNL     1     -53.229 -33.356  -0.285 -0.17 +0.00    +0.029 A  
DOCKED: ATOM     21  C   UNL     1     -51.982 -33.386  -0.906 -0.08 +0.00    +0.140 A  
DOCKED: ATOM     22  C   UNL     1     -51.363 -32.196  -1.287 -0.02 +0.00    +0.029 A  
DOCKED: ATOM     23  F   UNL     1     -51.377 -34.559  -1.138 -0.03 -0.00    -0.204 F  
DOCKED: ATOM     24  C   UNL     1     -51.992 -30.973  -1.046 -0.04 +0.00    +0.001 A  
DOCKED: ENDBRANCH   2  18
DOCKED: TORSDOF 5
DOCKED: TER
DOCKED: ENDMDL
________________________________________________________________________________


    FINAL DOCKED STATE:
    ________________________


Run:   495 / 512
Time taken for this run:   0.002s

DOCKED: MODEL        495
DOCKED: USER    Run = 495
DOCKED: USER
DOCKED: USER    Estimated Free Energy of Binding    =  -4.09 kcal/mol  [=(1)+(2)+(3)-(4)]
DOCKED: USER
DOCKED: USER    (1) Final Intermolecular Energy     =  -5.58 kcal/mol
DOCKED: USER        vdW + Hbond + desolv Energy     =  -5.58 kcal/mol
DOCKED: USER        Electrostatic Energy            =  +0.00 kcal/mol
DOCKED: USER        Moving Ligand-Fixed Receptor    =  -5.58 kcal/mol
DOCKED: USER        Moving Ligand-Moving Receptor   =  +0.00 kcal/mol
DOCKED: USER    (2) Final Total Internal Energy     =  -1.38 kcal/mol
DOCKED: USER    (3) Torsional Free Energy           =  +1.49 kcal/mol
DOCKED: USER    (4) Unbound System's Energy         =  -1.38 kcal/mol
DOCKED: USER
DOCKED: USER
DOCKED: REMARK  5 active torsions:
DOCKED: REMARK  status: ('A' for Active; 'I' for Inactive)
DOCKED: REMARK    1  A    between atoms: C_2  and  C_19 
DOCKED: REMARK    2  A    between atoms: C_2  and  C_11 
DOCKED: REMARK    3  A    between atoms: C_19  and  C_20 
DOCKED: REMARK    4  A    between atoms: C_20  and  C_21 
DOCKED: REMARK    5  A    between atoms: C_21  and  N_22 
DOCKED: USER                              x       y       z     vdW  Elec       q    Type
DOCKED: USER                           _______ _______ _______ _____ _____    ______ ____
DOCKED: ROOT
DOCKED: ATOM      1  O   UNL     1     -55.089 -36.042   8.840 -0.06 -0.00    -0.346 OA 
DOCKED: ATOM      2  C   UNL     1     -56.019 -35.201   8.086 -0.12 +0.00    +0.130 C  
DOCKED: ATOM      3  C   UNL     1     -56.876 -36.187   7.346 -0.22 +0.00    +0.004 A  
DOCKED: ATOM      4  C   UNL     1     -56.539 -37.478   7.728 -0.25 +0.00    +0.006 A  
DOCKED: ATOM      5  C   UNL     1     -55.461 -37.436   8.742 -0.15 +0.00    +0.169 C  
DOCKED: ATOM      6  C   UNL     1     -57.881 -35.960   6.417 -0.29 -0.00    -0.001 A  
DOCKED: ATOM      7  C   UNL     1     -57.187 -38.579   7.197 -0.35 +0.00    +0.008 A  
DOCKED: ATOM      8  C   UNL     1     -58.541 -37.061   5.868 -0.34 +0.00    +0.010 A  
DOCKED: ATOM      9  C   UNL     1     -58.196 -38.364   6.257 -0.32 +0.00    +0.068 A  
DOCKED: ATOM     10  N   UNL     1     -59.445 -40.385   5.223 -2.54 -0.00    -0.191 NA 
DOCKED: ATOM     11  C   UNL     1     -58.884 -39.478   5.686 -0.28 +0.00    +0.101 C  
DOCKED: ENDROOT
DOCKED: BRANCH   2  12
DOCKED: ATOM     12  C   UNL     1     -56.810 -34.350   9.072 -0.05 +0.00    +0.038 C  
DOCKED: BRANCH  12  13
DOCKED: ATOM     13  C   UNL     1     -56.713 -34.908  10.491 -0.02 +0.00    +0.038 C  
DOCKED: BRANCH  13  14
DOCKED: ATOM     14  C   UNL     1     -58.085 -35.334  11.009 -0.00 +0.00    +0.251 C  
DOCKED: BRANCH  14  15
DOCKED: ATOM     15  N   UNL     1     -59.085 -35.214   9.955 -0.02 +0.00    +0.141 N  
DOCKED: ATOM     16  C   UNL     1     -59.573 -36.535   9.554 -0.01 +0.00    +0.285 C  
DOCKED: ATOM     17  C   UNL     1     -60.200 -34.373  10.395 -0.00 +0.00    +0.285 C  
DOCKED: ENDBRANCH  14  15
DOCKED: ENDBRANCH  13  14
DOCKED: ENDBRANCH  12  13
DOCKED: ENDBRANCH   2  12
DOCKED: BRANCH   2  18
DOCKED: ATOM     18  C   UNL     1     -55.198 -34.348   7.177 -0.14 +0.00    +0.006 A  
DOCKED: ATOM     19  C   UNL     1     -53.894 -34.725   6.858 -0.01 +0.00    +0.001 A  
DOCKED: ATOM     20  C   UNL     1     -53.126 -33.926   6.009 -0.10 +0.00    +0.029 A  
DOCKED: ATOM     21  C   UNL     1     -53.664 -32.753   5.480 -0.07 +0.00    +0.140 A  
DOCKED: ATOM     22  C   UNL     1     -54.968 -32.378   5.800 -0.10 +0.00    +0.029 A  
DOCKED: ATOM     23  F   UNL     1     -52.928 -31.988   4.664 -0.00 -0.00    -0.204 F  
DOCKED: ATOM     24  C   UNL     1     -55.737 -33.175   6.649 -0.13 +0.00    +0.001 A  
DOCKED: ENDBRANCH   2  18
DOCKED: TORSDOF 5
DOCKED: TER
DOCKED: ENDMDL
________________________________________________________________________________


    FINAL DOCKED STATE:
    ________________________


Run:   496 / 512
Time taken for this run:   0.002s

DOCKED: MODEL        496
DOCKED: USER    Run = 496
DOCKED: USER
DOCKED: USER    Estimated Free Energy of Binding    =  -3.95 kcal/mol  [=(1)+(2)+(3)-(4)]
DOCKED: USER
DOCKED: USER    (1) Final Intermolecular Energy     =  -5.44 kcal/mol
DOCKED: USER        vdW + Hbond + desolv Energy     =  -5.44 kcal/mol
DOCKED: USER        Electrostatic Energy            =  +0.00 kcal/mol
DOCKED: USER        Moving Ligand-Fixed Receptor    =  -5.44 kcal/mol
DOCKED: USER        Moving Ligand-Moving Receptor   =  +0.00 kcal/mol
DOCKED: USER    (2) Final Total Internal Energy     =  -1.47 kcal/mol
DOCKED: USER    (3) Torsional Free Energy           =  +1.49 kcal/mol
DOCKED: USER    (4) Unbound System's Energy         =  -1.47 kcal/mol
DOCKED: USER
DOCKED: USER
DOCKED: REMARK  5 active torsions:
DOCKED: REMARK  status: ('A' for Active; 'I' for Inactive)
DOCKED: REMARK    1  A    between atoms: C_2  and  C_19 
DOCKED: REMARK    2  A    between atoms: C_2  and  C_11 
DOCKED: REMARK    3  A    between atoms: C_19  and  C_20 
DOCKED: REMARK    4  A    between atoms: C_20  and  C_21 
DOCKED: REMARK    5  A    between atoms: C_21  and  N_22 
DOCKED: USER                              x       y       z     vdW  Elec       q    Type
DOCKED: USER                           _______ _______ _______ _____ _____    ______ ____
DOCKED: ROOT
DOCKED: ATOM      1  O   UNL     1     -54.600 -30.316   0.280 -0.06 -0.00    -0.346 OA 
DOCKED: ATOM      2  C   UNL     1     -53.470 -29.496  -0.160 -0.14 +0.00    +0.130 C  
DOCKED: ATOM      3  C   UNL     1     -54.008 -28.752  -1.348 -0.20 +0.00    +0.004 A  
DOCKED: ATOM      4  C   UNL     1     -55.357 -29.037  -1.506 -0.30 +0.00    +0.006 A  
DOCKED: ATOM      5  C   UNL     1     -55.802 -29.965  -0.443 -0.17 +0.00    +0.169 C  
DOCKED: ATOM      6  C   UNL     1     -53.358 -27.883  -2.213 -0.18 -0.00    -0.001 A  
DOCKED: ATOM      7  C   UNL     1     -56.098 -28.471  -2.530 -0.27 +0.00    +0.008 A  
DOCKED: ATOM      8  C   UNL     1     -54.090 -27.308  -3.252 -0.27 +0.00    +0.010 A  
DOCKED: ATOM      9  C   UNL     1     -55.453 -27.600  -3.410 -0.36 +0.00    +0.068 A  
DOCKED: ATOM     10  N   UNL     1     -56.784 -26.510  -5.347 -2.47 -0.00    -0.191 NA 
DOCKED: ATOM     11  C   UNL     1     -56.187 -27.000  -4.479 -0.38 +0.00    +0.101 C  
DOCKED: ENDROOT
DOCKED: BRANCH   2  12
DOCKED: ATOM     12  C   UNL     1     -53.068 -28.575   0.985 -0.07 +0.00    +0.038 C  
DOCKED: BRANCH  12  13
DOCKED: ATOM     13  C   UNL     1     -53.669 -29.039   2.311 -0.15 +0.00    +0.038 C  
DOCKED: BRANCH  13  14
DOCKED: ATOM     14  C   UNL     1     -52.971 -30.299   2.819 -0.05 +0.00    +0.251 C  
DOCKED: BRANCH  14  15
DOCKED: ATOM     15  N   UNL     1     -53.893 -31.429   2.807 -0.05 +0.00    +0.141 N  
DOCKED: ATOM     16  C   UNL     1     -53.442 -32.472   3.728 -0.05 +0.00    +0.285 C  
DOCKED: ATOM     17  C   UNL     1     -55.246 -30.993   3.156 -0.06 +0.00    +0.285 C  
DOCKED: ENDBRANCH  14  15
DOCKED: ENDBRANCH  13  14
DOCKED: ENDBRANCH  12  13
DOCKED: ENDBRANCH   2  12
DOCKED: BRANCH   2  18
DOCKED: ATOM     18  C   UNL     1     -52.363 -30.432  -0.513 -0.06 +0.00    +0.006 A  
DOCKED: ATOM     19  C   UNL     1     -52.653 -31.739  -0.902 -0.08 +0.00    +0.001 A  
DOCKED: ATOM     20  C   UNL     1     -51.616 -32.613  -1.231 -0.04 +0.00    +0.029 A  
DOCKED: ATOM     21  C   UNL     1     -50.292 -32.179  -1.172 -0.00 +0.00    +0.140 A  
DOCKED: ATOM     22  C   UNL     1     -50.003 -30.872  -0.783 -0.00 +0.00    +0.029 A  
DOCKED: ATOM     23  F   UNL     1     -49.298 -33.018  -1.489 +0.00 -0.00    -0.204 F  
DOCKED: ATOM     24  C   UNL     1     -51.040 -29.997  -0.453 -0.03 +0.00    +0.001 A  
DOCKED: ENDBRANCH   2  18
DOCKED: TORSDOF 5
DOCKED: TER
DOCKED: ENDMDL
________________________________________________________________________________


    FINAL DOCKED STATE:
    ________________________


Run:   497 / 512
Time taken for this run:   0.002s

DOCKED: MODEL        497
DOCKED: USER    Run = 497
DOCKED: USER
DOCKED: USER    Estimated Free Energy of Binding    =  -4.18 kcal/mol  [=(1)+(2)+(3)-(4)]
DOCKED: USER
DOCKED: USER    (1) Final Intermolecular Energy     =  -5.67 kcal/mol
DOCKED: USER        vdW + Hbond + desolv Energy     =  -5.67 kcal/mol
DOCKED: USER        Electrostatic Energy            =  +0.00 kcal/mol
DOCKED: USER        Moving Ligand-Fixed Receptor    =  -5.67 kcal/mol
DOCKED: USER        Moving Ligand-Moving Receptor   =  +0.00 kcal/mol
DOCKED: USER    (2) Final Total Internal Energy     =  -1.09 kcal/mol
DOCKED: USER    (3) Torsional Free Energy           =  +1.49 kcal/mol
DOCKED: USER    (4) Unbound System's Energy         =  -1.09 kcal/mol
DOCKED: USER
DOCKED: USER
DOCKED: REMARK  5 active torsions:
DOCKED: REMARK  status: ('A' for Active; 'I' for Inactive)
DOCKED: REMARK    1  A    between atoms: C_2  and  C_19 
DOCKED: REMARK    2  A    between atoms: C_2  and  C_11 
DOCKED: REMARK    3  A    between atoms: C_19  and  C_20 
DOCKED: REMARK    4  A    between atoms: C_20  and  C_21 
DOCKED: REMARK    5  A    between atoms: C_21  and  N_22 
DOCKED: USER                              x       y       z     vdW  Elec       q    Type
DOCKED: USER                           _______ _______ _______ _____ _____    ______ ____
DOCKED: ROOT
DOCKED: ATOM      1  O   UNL     1     -57.669 -36.177   8.983 -0.01 -0.00    -0.346 OA 
DOCKED: ATOM      2  C   UNL     1     -56.781 -37.322   8.776 -0.16 +0.00    +0.130 C  
DOCKED: ATOM      3  C   UNL     1     -57.298 -37.954   7.515 -0.29 +0.00    +0.004 A  
DOCKED: ATOM      4  C   UNL     1     -58.319 -37.176   6.988 -0.27 +0.00    +0.006 A  
DOCKED: ATOM      5  C   UNL     1     -58.537 -35.987   7.842 -0.12 +0.00    +0.169 C  
DOCKED: ATOM      6  C   UNL     1     -56.889 -39.117   6.880 -0.38 -0.00    -0.001 A  
DOCKED: ATOM      7  C   UNL     1     -58.965 -37.533   5.817 -0.35 +0.00    +0.008 A  
DOCKED: ATOM      8  C   UNL     1     -57.534 -39.493   5.701 -0.36 +0.00    +0.010 A  
DOCKED: ATOM      9  C   UNL     1     -58.567 -38.705   5.172 -0.39 +0.00    +0.068 A  
DOCKED: ATOM     10  N   UNL     1     -59.740 -39.429   2.979 -1.39 -0.00    -0.191 NA 
DOCKED: ATOM     11  C   UNL     1     -59.214 -39.105   3.963 -0.52 +0.00    +0.101 C  
DOCKED: ENDROOT
DOCKED: BRANCH   2  12
DOCKED: ATOM     12  C   UNL     1     -55.353 -36.808   8.640 -0.20 +0.00    +0.038 C  
DOCKED: BRANCH  12  13
DOCKED: ATOM     13  C   UNL     1     -55.267 -35.664   7.632 -0.06 +0.00    +0.038 C  
DOCKED: BRANCH  13  14
DOCKED: ATOM     14  C   UNL     1     -55.059 -34.325   8.336 -0.06 +0.00    +0.251 C  
DOCKED: BRANCH  14  15
DOCKED: ATOM     15  N   UNL     1     -54.998 -33.243   7.361 -0.06 +0.00    +0.141 N  
DOCKED: ATOM     16  C   UNL     1     -56.101 -32.302   7.565 -0.03 +0.00    +0.285 C  
DOCKED: ATOM     17  C   UNL     1     -53.714 -32.546   7.444 -0.02 +0.00    +0.285 C  
DOCKED: ENDBRANCH  14  15
DOCKED: ENDBRANCH  13  14
DOCKED: ENDBRANCH  12  13
DOCKED: ENDBRANCH   2  12
DOCKED: BRANCH   2  18
DOCKED: ATOM     18  C   UNL     1     -56.924 -38.207   9.970 -0.15 +0.00    +0.006 A  
DOCKED: ATOM     19  C   UNL     1     -56.063 -38.055  11.056 -0.12 +0.00    +0.001 A  
DOCKED: ATOM     20  C   UNL     1     -56.198 -38.882  12.171 -0.15 +0.00    +0.029 A  
DOCKED: ATOM     21  C   UNL     1     -57.192 -39.859  12.199 -0.19 +0.00    +0.140 A  
DOCKED: ATOM     22  C   UNL     1     -58.053 -40.010  11.112 -0.10 +0.00    +0.029 A  
DOCKED: ATOM     23  F   UNL     1     -57.322 -40.652  13.271 -0.06 -0.00    -0.204 F  
DOCKED: ATOM     24  C   UNL     1     -57.919 -39.183   9.996 -0.24 +0.00    +0.001 A  
DOCKED: ENDBRANCH   2  18
DOCKED: TORSDOF 5
DOCKED: TER
DOCKED: ENDMDL
________________________________________________________________________________


    FINAL DOCKED STATE:
    ________________________


Run:   498 / 512
Time taken for this run:   0.002s

DOCKED: MODEL        498
DOCKED: USER    Run = 498
DOCKED: USER
DOCKED: USER    Estimated Free Energy of Binding    =  -4.08 kcal/mol  [=(1)+(2)+(3)-(4)]
DOCKED: USER
DOCKED: USER    (1) Final Intermolecular Energy     =  -5.57 kcal/mol
DOCKED: USER        vdW + Hbond + desolv Energy     =  -5.57 kcal/mol
DOCKED: USER        Electrostatic Energy            =  +0.00 kcal/mol
DOCKED: USER        Moving Ligand-Fixed Receptor    =  -5.57 kcal/mol
DOCKED: USER        Moving Ligand-Moving Receptor   =  +0.00 kcal/mol
DOCKED: USER    (2) Final Total Internal Energy     =  -1.43 kcal/mol
DOCKED: USER    (3) Torsional Free Energy           =  +1.49 kcal/mol
DOCKED: USER    (4) Unbound System's Energy         =  -1.43 kcal/mol
DOCKED: USER
DOCKED: USER
DOCKED: REMARK  5 active torsions:
DOCKED: REMARK  status: ('A' for Active; 'I' for Inactive)
DOCKED: REMARK    1  A    between atoms: C_2  and  C_19 
DOCKED: REMARK    2  A    between atoms: C_2  and  C_11 
DOCKED: REMARK    3  A    between atoms: C_19  and  C_20 
DOCKED: REMARK    4  A    between atoms: C_20  and  C_21 
DOCKED: REMARK    5  A    between atoms: C_21  and  N_22 
DOCKED: USER                              x       y       z     vdW  Elec       q    Type
DOCKED: USER                           _______ _______ _______ _____ _____    ______ ____
DOCKED: ROOT
DOCKED: ATOM      1  O   UNL     1     -55.080 -35.511   8.187 -0.07 -0.00    -0.346 OA 
DOCKED: ATOM      2  C   UNL     1     -56.302 -34.759   7.897 -0.12 +0.00    +0.130 C  
DOCKED: ATOM      3  C   UNL     1     -57.219 -35.782   7.293 -0.22 +0.00    +0.004 A  
DOCKED: ATOM      4  C   UNL     1     -56.618 -37.031   7.335 -0.19 +0.00    +0.006 A  
DOCKED: ATOM      5  C   UNL     1     -55.286 -36.927   7.971 -0.07 +0.00    +0.169 C  
DOCKED: ATOM      6  C   UNL     1     -58.490 -35.621   6.759 -0.25 -0.00    -0.001 A  
DOCKED: ATOM      7  C   UNL     1     -57.258 -38.156   6.844 -0.33 +0.00    +0.008 A  
DOCKED: ATOM      8  C   UNL     1     -59.147 -36.745   6.256 -0.28 +0.00    +0.010 A  
DOCKED: ATOM      9  C   UNL     1     -58.534 -38.006   6.299 -0.30 +0.00    +0.068 A  
DOCKED: ATOM     10  N   UNL     1     -59.784 -40.073   5.361 -2.56 -0.00    -0.191 NA 
DOCKED: ATOM     11  C   UNL     1     -59.223 -39.146   5.781 -0.37 +0.00    +0.101 C  
DOCKED: ENDROOT
DOCKED: BRANCH   2  12
DOCKED: ATOM     12  C   UNL     1     -56.834 -34.182   9.204 -0.04 +0.00    +0.038 C  
DOCKED: BRANCH  12  13
DOCKED: ATOM     13  C   UNL     1     -57.854 -35.117   9.850 -0.04 +0.00    +0.038 C  
DOCKED: BRANCH  13  14
DOCKED: ATOM     14  C   UNL     1     -57.176 -36.088  10.815 -0.02 +0.00    +0.251 C  
DOCKED: BRANCH  14  15
DOCKED: ATOM     15  N   UNL     1     -57.603 -37.455  10.543 -0.06 +0.00    +0.141 N  
DOCKED: ATOM     16  C   UNL     1     -57.631 -38.242  11.777 -0.06 +0.00    +0.285 C  
DOCKED: ATOM     17  C   UNL     1     -58.921 -37.466   9.905 -0.03 +0.00    +0.285 C  
DOCKED: ENDBRANCH  14  15
DOCKED: ENDBRANCH  13  14
DOCKED: ENDBRANCH  12  13
DOCKED: ENDBRANCH   2  12
DOCKED: BRANCH   2  18
DOCKED: ATOM     18  C   UNL     1     -55.930 -33.674   6.942 -0.14 +0.00    +0.006 A  
DOCKED: ATOM     19  C   UNL     1     -56.129 -32.339   7.292 -0.07 +0.00    +0.001 A  
DOCKED: ATOM     20  C   UNL     1     -55.781 -31.326   6.398 -0.06 +0.00    +0.029 A  
DOCKED: ATOM     21  C   UNL     1     -55.235 -31.649   5.156 -0.07 +0.00    +0.140 A  
DOCKED: ATOM     22  C   UNL     1     -55.036 -32.984   4.807 -0.12 +0.00    +0.029 A  
DOCKED: ATOM     23  F   UNL     1     -54.900 -30.676   4.299 -0.01 -0.00    -0.204 F  
DOCKED: ATOM     24  C   UNL     1     -55.384 -33.999   5.701 -0.10 +0.00    +0.001 A  
DOCKED: ENDBRANCH   2  18
DOCKED: TORSDOF 5
DOCKED: TER
DOCKED: ENDMDL
________________________________________________________________________________


    FINAL DOCKED STATE:
    ________________________


Run:   499 / 512
Time taken for this run:   0.002s

DOCKED: MODEL        499
DOCKED: USER    Run = 499
DOCKED: USER
DOCKED: USER    Estimated Free Energy of Binding    =  -3.87 kcal/mol  [=(1)+(2)+(3)-(4)]
DOCKED: USER
DOCKED: USER    (1) Final Intermolecular Energy     =  -5.36 kcal/mol
DOCKED: USER        vdW + Hbond + desolv Energy     =  -5.36 kcal/mol
DOCKED: USER        Electrostatic Energy            =  +0.00 kcal/mol
DOCKED: USER        Moving Ligand-Fixed Receptor    =  -5.36 kcal/mol
DOCKED: USER        Moving Ligand-Moving Receptor   =  +0.00 kcal/mol
DOCKED: USER    (2) Final Total Internal Energy     =  -1.24 kcal/mol
DOCKED: USER    (3) Torsional Free Energy           =  +1.49 kcal/mol
DOCKED: USER    (4) Unbound System's Energy         =  -1.24 kcal/mol
DOCKED: USER
DOCKED: USER
DOCKED: REMARK  5 active torsions:
DOCKED: REMARK  status: ('A' for Active; 'I' for Inactive)
DOCKED: REMARK    1  A    between atoms: C_2  and  C_19 
DOCKED: REMARK    2  A    between atoms: C_2  and  C_11 
DOCKED: REMARK    3  A    between atoms: C_19  and  C_20 
DOCKED: REMARK    4  A    between atoms: C_20  and  C_21 
DOCKED: REMARK    5  A    between atoms: C_21  and  N_22 
DOCKED: USER                              x       y       z     vdW  Elec       q    Type
DOCKED: USER                           _______ _______ _______ _____ _____    ______ ____
DOCKED: ROOT
DOCKED: ATOM      1  O   UNL     1     -49.716 -36.618  -1.300 +0.00 -0.00    -0.346 OA 
DOCKED: ATOM      2  C   UNL     1     -50.279 -35.737  -0.276 -0.06 +0.00    +0.130 C  
DOCKED: ATOM      3  C   UNL     1     -50.810 -36.684   0.761 -0.11 +0.00    +0.004 A  
DOCKED: ATOM      4  C   UNL     1     -50.482 -37.987   0.415 -0.13 +0.00    +0.006 A  
DOCKED: ATOM      5  C   UNL     1     -49.712 -37.993  -0.849 -0.08 +0.00    +0.169 C  
DOCKED: ATOM      6  C   UNL     1     -51.518 -36.413   1.923 -0.17 -0.00    -0.001 A  
DOCKED: ATOM      7  C   UNL     1     -50.851 -39.059   1.210 -0.21 +0.00    +0.008 A  
DOCKED: ATOM      8  C   UNL     1     -51.901 -37.483   2.733 -0.27 +0.00    +0.010 A  
DOCKED: ATOM      9  C   UNL     1     -51.569 -38.799   2.379 -0.28 +0.00    +0.068 A  
DOCKED: ATOM     10  N   UNL     1     -52.290 -40.762   3.908 -2.57 -0.00    -0.191 NA 
DOCKED: ATOM     11  C   UNL     1     -51.967 -39.882   3.222 -0.41 +0.00    +0.101 C  
DOCKED: ENDROOT
DOCKED: BRANCH   2  12
DOCKED: ATOM     12  C   UNL     1     -49.166 -34.841   0.255 -0.01 +0.00    +0.038 C  
DOCKED: BRANCH  12  13
DOCKED: ATOM     13  C   UNL     1     -48.000 -34.760  -0.728 -0.00 +0.00    +0.038 C  
DOCKED: BRANCH  13  14
DOCKED: ATOM     14  C   UNL     1     -48.431 -34.108  -2.040 +0.00 +0.00    +0.251 C  
DOCKED: BRANCH  14  15
DOCKED: ATOM     15  N   UNL     1     -47.463 -34.396  -3.092 -0.00 +0.00    +0.141 N  
DOCKED: ATOM     16  C   UNL     1     -48.137 -34.577  -4.379 +0.00 +0.00    +0.285 C  
DOCKED: ATOM     17  C   UNL     1     -46.469 -33.325  -3.186 +0.00 +0.00    +0.285 C  
DOCKED: ENDBRANCH  14  15
DOCKED: ENDBRANCH  13  14
DOCKED: ENDBRANCH  12  13
DOCKED: ENDBRANCH   2  12
DOCKED: BRANCH   2  18
DOCKED: ATOM     18  C   UNL     1     -51.350 -34.933  -0.933 -0.12 +0.00    +0.006 A  
DOCKED: ATOM     19  C   UNL     1     -52.052 -33.976  -0.201 -0.12 +0.00    +0.001 A  
DOCKED: ATOM     20  C   UNL     1     -53.054 -33.225  -0.817 -0.17 +0.00    +0.029 A  
DOCKED: ATOM     21  C   UNL     1     -53.352 -33.432  -2.163 -0.17 +0.00    +0.140 A  
DOCKED: ATOM     22  C   UNL     1     -52.650 -34.389  -2.895 -0.23 +0.00    +0.029 A  
DOCKED: ATOM     23  F   UNL     1     -54.313 -32.710  -2.754 -0.09 -0.00    -0.204 F  
DOCKED: ATOM     24  C   UNL     1     -51.648 -35.141  -2.279 -0.17 +0.00    +0.001 A  
DOCKED: ENDBRANCH   2  18
DOCKED: TORSDOF 5
DOCKED: TER
DOCKED: ENDMDL
________________________________________________________________________________


    FINAL DOCKED STATE:
    ________________________


Run:   500 / 512
Time taken for this run:   0.002s

DOCKED: MODEL        500
DOCKED: USER    Run = 500
DOCKED: USER
DOCKED: USER    Estimated Free Energy of Binding    =  -3.99 kcal/mol  [=(1)+(2)+(3)-(4)]
DOCKED: USER
DOCKED: USER    (1) Final Intermolecular Energy     =  -5.48 kcal/mol
DOCKED: USER        vdW + Hbond + desolv Energy     =  -5.48 kcal/mol
DOCKED: USER        Electrostatic Energy            =  +0.00 kcal/mol
DOCKED: USER        Moving Ligand-Fixed Receptor    =  -5.48 kcal/mol
DOCKED: USER        Moving Ligand-Moving Receptor   =  +0.00 kcal/mol
DOCKED: USER    (2) Final Total Internal Energy     =  -1.44 kcal/mol
DOCKED: USER    (3) Torsional Free Energy           =  +1.49 kcal/mol
DOCKED: USER    (4) Unbound System's Energy         =  -1.44 kcal/mol
DOCKED: USER
DOCKED: USER
DOCKED: REMARK  5 active torsions:
DOCKED: REMARK  status: ('A' for Active; 'I' for Inactive)
DOCKED: REMARK    1  A    between atoms: C_2  and  C_19 
DOCKED: REMARK    2  A    between atoms: C_2  and  C_11 
DOCKED: REMARK    3  A    between atoms: C_19  and  C_20 
DOCKED: REMARK    4  A    between atoms: C_20  and  C_21 
DOCKED: REMARK    5  A    between atoms: C_21  and  N_22 
DOCKED: USER                              x       y       z     vdW  Elec       q    Type
DOCKED: USER                           _______ _______ _______ _____ _____    ______ ____
DOCKED: ROOT
DOCKED: ATOM      1  O   UNL     1     -55.345 -36.176   8.916 -0.06 -0.00    -0.346 OA 
DOCKED: ATOM      2  C   UNL     1     -56.551 -35.414   8.591 -0.10 +0.00    +0.130 C  
DOCKED: ATOM      3  C   UNL     1     -57.358 -36.359   7.749 -0.19 +0.00    +0.004 A  
DOCKED: ATOM      4  C   UNL     1     -56.722 -37.591   7.689 -0.27 +0.00    +0.006 A  
DOCKED: ATOM      5  C   UNL     1     -55.475 -37.552   8.486 -0.15 +0.00    +0.169 C  
DOCKED: ATOM      6  C   UNL     1     -58.565 -36.149   7.097 -0.23 -0.00    -0.001 A  
DOCKED: ATOM      7  C   UNL     1     -57.263 -38.648   6.977 -0.36 +0.00    +0.008 A  
DOCKED: ATOM      8  C   UNL     1     -59.121 -37.204   6.371 -0.29 +0.00    +0.010 A  
DOCKED: ATOM      9  C   UNL     1     -58.473 -38.447   6.312 -0.31 +0.00    +0.068 A  
DOCKED: ATOM     10  N   UNL     1     -59.536 -40.385   4.960 -2.36 -0.00    -0.191 NA 
DOCKED: ATOM     11  C   UNL     1     -59.059 -39.515   5.566 -0.31 +0.00    +0.101 C  
DOCKED: ENDROOT
DOCKED: BRANCH   2  12
DOCKED: ATOM     12  C   UNL     1     -57.249 -35.036   9.893 -0.04 +0.00    +0.038 C  
DOCKED: BRANCH  12  13
DOCKED: ATOM     13  C   UNL     1     -57.066 -36.117  10.956 -0.04 +0.00    +0.038 C  
DOCKED: BRANCH  13  14
DOCKED: ATOM     14  C   UNL     1     -58.414 -36.664  11.422 -0.01 +0.00    +0.251 C  
DOCKED: BRANCH  14  15
DOCKED: ATOM     15  N   UNL     1     -58.854 -37.743  10.545 -0.06 +0.00    +0.141 N  
DOCKED: ATOM     16  C   UNL     1     -57.942 -38.884  10.635 -0.12 +0.00    +0.285 C  
DOCKED: ATOM     17  C   UNL     1     -60.218 -38.155  10.880 -0.04 +0.00    +0.285 C  
DOCKED: ENDBRANCH  14  15
DOCKED: ENDBRANCH  13  14
DOCKED: ENDBRANCH  12  13
DOCKED: ENDBRANCH   2  12
DOCKED: BRANCH   2  18
DOCKED: ATOM     18  C   UNL     1     -56.112 -34.199   7.844 -0.11 +0.00    +0.006 A  
DOCKED: ATOM     19  C   UNL     1     -55.933 -32.993   8.519 -0.04 +0.00    +0.001 A  
DOCKED: ATOM     20  C   UNL     1     -55.522 -31.858   7.819 -0.03 +0.00    +0.029 A  
DOCKED: ATOM     21  C   UNL     1     -55.290 -31.931   6.446 -0.05 +0.00    +0.140 A  
DOCKED: ATOM     22  C   UNL     1     -55.469 -33.138   5.772 -0.14 +0.00    +0.029 A  
DOCKED: ATOM     23  F   UNL     1     -54.894 -30.842   5.775 -0.00 -0.00    -0.204 F  
DOCKED: ATOM     24  C   UNL     1     -55.881 -34.274   6.471 -0.17 +0.00    +0.001 A  
DOCKED: ENDBRANCH   2  18
DOCKED: TORSDOF 5
DOCKED: TER
DOCKED: ENDMDL
________________________________________________________________________________


    FINAL DOCKED STATE:
    ________________________


Run:   501 / 512
Time taken for this run:   0.002s

DOCKED: MODEL        501
DOCKED: USER    Run = 501
DOCKED: USER
DOCKED: USER    Estimated Free Energy of Binding    =  -5.59 kcal/mol  [=(1)+(2)+(3)-(4)]
DOCKED: USER
DOCKED: USER    (1) Final Intermolecular Energy     =  -7.08 kcal/mol
DOCKED: USER        vdW + Hbond + desolv Energy     =  -7.08 kcal/mol
DOCKED: USER        Electrostatic Energy            =  +0.00 kcal/mol
DOCKED: USER        Moving Ligand-Fixed Receptor    =  -7.08 kcal/mol
DOCKED: USER        Moving Ligand-Moving Receptor   =  +0.00 kcal/mol
DOCKED: USER    (2) Final Total Internal Energy     =  -0.93 kcal/mol
DOCKED: USER    (3) Torsional Free Energy           =  +1.49 kcal/mol
DOCKED: USER    (4) Unbound System's Energy         =  -0.93 kcal/mol
DOCKED: USER
DOCKED: USER
DOCKED: REMARK  5 active torsions:
DOCKED: REMARK  status: ('A' for Active; 'I' for Inactive)
DOCKED: REMARK    1  A    between atoms: C_2  and  C_19 
DOCKED: REMARK    2  A    between atoms: C_2  and  C_11 
DOCKED: REMARK    3  A    between atoms: C_19  and  C_20 
DOCKED: REMARK    4  A    between atoms: C_20  and  C_21 
DOCKED: REMARK    5  A    between atoms: C_21  and  N_22 
DOCKED: USER                              x       y       z     vdW  Elec       q    Type
DOCKED: USER                           _______ _______ _______ _____ _____    ______ ____
DOCKED: ROOT
DOCKED: ATOM      1  O   UNL     1     -57.325 -36.054   7.696 -0.07 -0.00    -0.346 OA 
DOCKED: ATOM      2  C   UNL     1     -57.368 -37.511   7.832 -0.22 +0.00    +0.130 C  
DOCKED: ATOM      3  C   UNL     1     -57.942 -37.977   6.525 -0.34 +0.00    +0.004 A  
DOCKED: ATOM      4  C   UNL     1     -58.109 -36.893   5.675 -0.30 +0.00    +0.006 A  
DOCKED: ATOM      5  C   UNL     1     -57.652 -35.654   6.344 -0.22 +0.00    +0.169 C  
DOCKED: ATOM      6  C   UNL     1     -58.279 -39.259   6.117 -0.37 -0.00    -0.001 A  
DOCKED: ATOM      7  C   UNL     1     -58.619 -37.050   4.398 +0.12 +0.00    +0.008 A  
DOCKED: ATOM      8  C   UNL     1     -58.798 -39.434   4.833 -0.50 +0.00    +0.010 A  
DOCKED: ATOM      9  C   UNL     1     -58.967 -38.335   3.978 -0.42 +0.00    +0.068 A  
DOCKED: ATOM     10  N   UNL     1     -59.929 -38.695   1.599 -3.07 -0.00    -0.191 NA 
DOCKED: ATOM     11  C   UNL     1     -59.498 -38.534   2.666 -0.38 +0.00    +0.101 C  
DOCKED: ENDROOT
DOCKED: BRANCH   2  12
DOCKED: ATOM     12  C   UNL     1     -55.950 -38.015   8.070 -0.21 +0.00    +0.038 C  
DOCKED: BRANCH  12  13
DOCKED: ATOM     13  C   UNL     1     -54.995 -36.865   8.386 -0.20 +0.00    +0.038 C  
DOCKED: BRANCH  13  14
DOCKED: ATOM     14  C   UNL     1     -53.543 -37.339   8.377 -0.12 +0.00    +0.251 C  
DOCKED: BRANCH  14  15
DOCKED: ATOM     15  N   UNL     1     -52.729 -36.493   9.242 -0.07 +0.00    +0.141 N  
DOCKED: ATOM     16  C   UNL     1     -52.505 -37.140  10.536 -0.04 +0.00    +0.285 C  
DOCKED: ATOM     17  C   UNL     1     -51.449 -36.182   8.602 -0.04 +0.00    +0.285 C  
DOCKED: ENDBRANCH  14  15
DOCKED: ENDBRANCH  13  14
DOCKED: ENDBRANCH  12  13
DOCKED: ENDBRANCH   2  12
DOCKED: BRANCH   2  18
DOCKED: ATOM     18  C   UNL     1     -58.251 -37.814   8.996 -0.14 +0.00    +0.006 A  
DOCKED: ATOM     19  C   UNL     1     -58.513 -39.138   9.345 -0.24 +0.00    +0.001 A  
DOCKED: ATOM     20  C   UNL     1     -59.339 -39.421  10.434 -0.08 +0.00    +0.029 A  
DOCKED: ATOM     21  C   UNL     1     -59.900 -38.380  11.171 -0.06 +0.00    +0.140 A  
DOCKED: ATOM     22  C   UNL     1     -59.638 -37.056  10.822 -0.04 +0.00    +0.029 A  
DOCKED: ATOM     23  F   UNL     1     -60.692 -38.652  12.217 +0.00 -0.00    -0.204 F  
DOCKED: ATOM     24  C   UNL     1     -58.812 -36.772   9.733 -0.06 +0.00    +0.001 A  
DOCKED: ENDBRANCH   2  18
DOCKED: TORSDOF 5
DOCKED: TER
DOCKED: ENDMDL
________________________________________________________________________________


    FINAL DOCKED STATE:
    ________________________


Run:   502 / 512
Time taken for this run:   0.002s

DOCKED: MODEL        502
DOCKED: USER    Run = 502
DOCKED: USER
DOCKED: USER    Estimated Free Energy of Binding    =  -4.25 kcal/mol  [=(1)+(2)+(3)-(4)]
DOCKED: USER
DOCKED: USER    (1) Final Intermolecular Energy     =  -5.74 kcal/mol
DOCKED: USER        vdW + Hbond + desolv Energy     =  -5.74 kcal/mol
DOCKED: USER        Electrostatic Energy            =  +0.00 kcal/mol
DOCKED: USER        Moving Ligand-Fixed Receptor    =  -5.74 kcal/mol
DOCKED: USER        Moving Ligand-Moving Receptor   =  +0.00 kcal/mol
DOCKED: USER    (2) Final Total Internal Energy     =  -1.36 kcal/mol
DOCKED: USER    (3) Torsional Free Energy           =  +1.49 kcal/mol
DOCKED: USER    (4) Unbound System's Energy         =  -1.36 kcal/mol
DOCKED: USER
DOCKED: USER
DOCKED: REMARK  5 active torsions:
DOCKED: REMARK  status: ('A' for Active; 'I' for Inactive)
DOCKED: REMARK    1  A    between atoms: C_2  and  C_19 
DOCKED: REMARK    2  A    between atoms: C_2  and  C_11 
DOCKED: REMARK    3  A    between atoms: C_19  and  C_20 
DOCKED: REMARK    4  A    between atoms: C_20  and  C_21 
DOCKED: REMARK    5  A    between atoms: C_21  and  N_22 
DOCKED: USER                              x       y       z     vdW  Elec       q    Type
DOCKED: USER                           _______ _______ _______ _____ _____    ______ ____
DOCKED: ROOT
DOCKED: ATOM      1  O   UNL     1     -55.194 -36.009   8.922 -0.06 -0.00    -0.346 OA 
DOCKED: ATOM      2  C   UNL     1     -55.979 -35.137   8.047 -0.12 +0.00    +0.130 C  
DOCKED: ATOM      3  C   UNL     1     -56.895 -36.082   7.325 -0.22 +0.00    +0.004 A  
DOCKED: ATOM      4  C   UNL     1     -56.727 -37.366   7.823 -0.25 +0.00    +0.006 A  
DOCKED: ATOM      5  C   UNL     1     -55.713 -37.359   8.901 -0.16 +0.00    +0.169 C  
DOCKED: ATOM      6  C   UNL     1     -57.812 -35.823   6.317 -0.27 -0.00    -0.001 A  
DOCKED: ATOM      7  C   UNL     1     -57.462 -38.431   7.330 -0.33 +0.00    +0.008 A  
DOCKED: ATOM      8  C   UNL     1     -58.557 -36.887   5.807 -0.33 +0.00    +0.010 A  
DOCKED: ATOM      9  C   UNL     1     -58.383 -38.185   6.311 -0.31 +0.00    +0.068 A  
DOCKED: ATOM     10  N   UNL     1     -59.786 -40.137   5.345 -2.56 -0.00    -0.191 NA 
DOCKED: ATOM     11  C   UNL     1     -59.156 -39.261   5.778 -0.36 +0.00    +0.101 C  
DOCKED: ENDROOT
DOCKED: BRANCH   2  12
DOCKED: ATOM     12  C   UNL     1     -56.727 -34.131   8.914 -0.05 +0.00    +0.038 C  
DOCKED: BRANCH  12  13
DOCKED: ATOM     13  C   UNL     1     -55.786 -33.058   9.460 -0.02 +0.00    +0.038 C  
DOCKED: BRANCH  13  14
DOCKED: ATOM     14  C   UNL     1     -56.235 -31.663   9.029 -0.00 +0.00    +0.251 C  
DOCKED: BRANCH  14  15
DOCKED: ATOM     15  N   UNL     1     -55.078 -30.798   8.830 -0.00 +0.00    +0.141 N  
DOCKED: ATOM     16  C   UNL     1     -53.839 -31.516   9.128 -0.00 +0.00    +0.285 C  
DOCKED: ATOM     17  C   UNL     1     -55.050 -30.282   7.460 -0.00 +0.00    +0.285 C  
DOCKED: ENDBRANCH  14  15
DOCKED: ENDBRANCH  13  14
DOCKED: ENDBRANCH  12  13
DOCKED: ENDBRANCH   2  12
DOCKED: BRANCH   2  18
DOCKED: ATOM     18  C   UNL     1     -55.015 -34.451   7.137 -0.13 +0.00    +0.006 A  
DOCKED: ATOM     19  C   UNL     1     -55.488 -33.652   6.096 -0.16 +0.00    +0.001 A  
DOCKED: ATOM     20  C   UNL     1     -54.586 -33.012   5.245 -0.13 +0.00    +0.029 A  
DOCKED: ATOM     21  C   UNL     1     -53.214 -33.171   5.436 -0.07 +0.00    +0.140 A  
DOCKED: ATOM     22  C   UNL     1     -52.742 -33.970   6.478 -0.09 +0.00    +0.029 A  
DOCKED: ATOM     23  F   UNL     1     -52.349 -32.555   4.621 -0.00 -0.00    -0.204 F  
DOCKED: ATOM     24  C   UNL     1     -53.644 -34.611   7.329 -0.10 +0.00    +0.001 A  
DOCKED: ENDBRANCH   2  18
DOCKED: TORSDOF 5
DOCKED: TER
DOCKED: ENDMDL
________________________________________________________________________________


    FINAL DOCKED STATE:
    ________________________


Run:   503 / 512
Time taken for this run:   0.002s

DOCKED: MODEL        503
DOCKED: USER    Run = 503
DOCKED: USER
DOCKED: USER    Estimated Free Energy of Binding    =  -5.64 kcal/mol  [=(1)+(2)+(3)-(4)]
DOCKED: USER
DOCKED: USER    (1) Final Intermolecular Energy     =  -7.13 kcal/mol
DOCKED: USER        vdW + Hbond + desolv Energy     =  -7.13 kcal/mol
DOCKED: USER        Electrostatic Energy            =  +0.00 kcal/mol
DOCKED: USER        Moving Ligand-Fixed Receptor    =  -7.13 kcal/mol
DOCKED: USER        Moving Ligand-Moving Receptor   =  +0.00 kcal/mol
DOCKED: USER    (2) Final Total Internal Energy     =  -0.94 kcal/mol
DOCKED: USER    (3) Torsional Free Energy           =  +1.49 kcal/mol
DOCKED: USER    (4) Unbound System's Energy         =  -0.94 kcal/mol
DOCKED: USER
DOCKED: USER
DOCKED: REMARK  5 active torsions:
DOCKED: REMARK  status: ('A' for Active; 'I' for Inactive)
DOCKED: REMARK    1  A    between atoms: C_2  and  C_19 
DOCKED: REMARK    2  A    between atoms: C_2  and  C_11 
DOCKED: REMARK    3  A    between atoms: C_19  and  C_20 
DOCKED: REMARK    4  A    between atoms: C_20  and  C_21 
DOCKED: REMARK    5  A    between atoms: C_21  and  N_22 
DOCKED: USER                              x       y       z     vdW  Elec       q    Type
DOCKED: USER                           _______ _______ _______ _____ _____    ______ ____
DOCKED: ROOT
DOCKED: ATOM      1  O   UNL     1     -57.349 -35.855   7.777 -0.06 -0.00    -0.346 OA 
DOCKED: ATOM      2  C   UNL     1     -57.068 -37.288   7.866 -0.22 +0.00    +0.130 C  
DOCKED: ATOM      3  C   UNL     1     -57.635 -37.845   6.592 -0.33 +0.00    +0.004 A  
DOCKED: ATOM      4  C   UNL     1     -58.100 -36.809   5.795 -0.31 +0.00    +0.006 A  
DOCKED: ATOM      5  C   UNL     1     -57.865 -35.512   6.469 -0.23 +0.00    +0.169 C  
DOCKED: ATOM      6  C   UNL     1     -57.722 -39.163   6.168 -0.42 -0.00    -0.001 A  
DOCKED: ATOM      7  C   UNL     1     -58.668 -37.051   4.556 -0.02 +0.00    +0.008 A  
DOCKED: ATOM      8  C   UNL     1     -58.297 -39.425   4.923 -0.46 +0.00    +0.010 A  
DOCKED: ATOM      9  C   UNL     1     -58.767 -38.374   4.121 -0.39 +0.00    +0.068 A  
DOCKED: ATOM     10  N   UNL     1     -59.823 -38.894   1.813 -2.73 -0.00    -0.191 NA 
DOCKED: ATOM     11  C   UNL     1     -59.350 -38.660   2.848 -0.43 +0.00    +0.101 C  
DOCKED: ENDROOT
DOCKED: BRANCH   2  12
DOCKED: ATOM     12  C   UNL     1     -55.560 -37.478   7.977 -0.19 +0.00    +0.038 C  
DOCKED: BRANCH  12  13
DOCKED: ATOM     13  C   UNL     1     -55.104 -37.468   9.435 -0.13 +0.00    +0.038 C  
DOCKED: BRANCH  13  14
DOCKED: ATOM     14  C   UNL     1     -53.581 -37.389   9.533 -0.10 +0.00    +0.251 C  
DOCKED: BRANCH  14  15
DOCKED: ATOM     15  N   UNL     1     -52.975 -37.658   8.235 -0.17 +0.00    +0.141 N  
DOCKED: ATOM     16  C   UNL     1     -52.526 -36.414   7.607 -0.06 +0.00    +0.285 C  
DOCKED: ATOM     17  C   UNL     1     -51.854 -38.590   8.372 -0.14 +0.00    +0.285 C  
DOCKED: ENDBRANCH  14  15
DOCKED: ENDBRANCH  13  14
DOCKED: ENDBRANCH  12  13
DOCKED: ENDBRANCH   2  12
DOCKED: BRANCH   2  18
DOCKED: ATOM     18  C   UNL     1     -57.766 -37.795   9.084 -0.15 +0.00    +0.006 A  
DOCKED: ATOM     19  C   UNL     1     -57.879 -39.167   9.302 -0.25 +0.00    +0.001 A  
DOCKED: ATOM     20  C   UNL     1     -58.532 -39.640  10.441 -0.12 +0.00    +0.029 A  
DOCKED: ATOM     21  C   UNL     1     -59.071 -38.740  11.359 -0.09 +0.00    +0.140 A  
DOCKED: ATOM     22  C   UNL     1     -58.957 -37.367  11.141 -0.05 +0.00    +0.029 A  
DOCKED: ATOM     23  F   UNL     1     -59.696 -39.194  12.453 -0.01 -0.00    -0.204 F  
DOCKED: ATOM     24  C   UNL     1     -58.304 -36.894  10.001 -0.07 +0.00    +0.001 A  
DOCKED: ENDBRANCH   2  18
DOCKED: TORSDOF 5
DOCKED: TER
DOCKED: ENDMDL
________________________________________________________________________________


    FINAL DOCKED STATE:
    ________________________


Run:   504 / 512
Time taken for this run:   0.002s

DOCKED: MODEL        504
DOCKED: USER    Run = 504
DOCKED: USER
DOCKED: USER    Estimated Free Energy of Binding    =  -3.95 kcal/mol  [=(1)+(2)+(3)-(4)]
DOCKED: USER
DOCKED: USER    (1) Final Intermolecular Energy     =  -5.44 kcal/mol
DOCKED: USER        vdW + Hbond + desolv Energy     =  -5.44 kcal/mol
DOCKED: USER        Electrostatic Energy            =  +0.00 kcal/mol
DOCKED: USER        Moving Ligand-Fixed Receptor    =  -5.44 kcal/mol
DOCKED: USER        Moving Ligand-Moving Receptor   =  +0.00 kcal/mol
DOCKED: USER    (2) Final Total Internal Energy     =  -1.44 kcal/mol
DOCKED: USER    (3) Torsional Free Energy           =  +1.49 kcal/mol
DOCKED: USER    (4) Unbound System's Energy         =  -1.44 kcal/mol
DOCKED: USER
DOCKED: USER
DOCKED: REMARK  5 active torsions:
DOCKED: REMARK  status: ('A' for Active; 'I' for Inactive)
DOCKED: REMARK    1  A    between atoms: C_2  and  C_19 
DOCKED: REMARK    2  A    between atoms: C_2  and  C_11 
DOCKED: REMARK    3  A    between atoms: C_19  and  C_20 
DOCKED: REMARK    4  A    between atoms: C_20  and  C_21 
DOCKED: REMARK    5  A    between atoms: C_21  and  N_22 
DOCKED: USER                              x       y       z     vdW  Elec       q    Type
DOCKED: USER                           _______ _______ _______ _____ _____    ______ ____
DOCKED: ROOT
DOCKED: ATOM      1  O   UNL     1     -49.281 -36.736  -0.923 +0.00 -0.00    -0.346 OA 
DOCKED: ATOM      2  C   UNL     1     -50.152 -35.866  -0.131 -0.06 +0.00    +0.130 C  
DOCKED: ATOM      3  C   UNL     1     -50.752 -36.790   0.889 -0.11 +0.00    +0.004 A  
DOCKED: ATOM      4  C   UNL     1     -50.191 -38.053   0.763 -0.11 +0.00    +0.006 A  
DOCKED: ATOM      5  C   UNL     1     -49.186 -38.049  -0.324 -0.04 +0.00    +0.169 C  
DOCKED: ATOM      6  C   UNL     1     -51.710 -36.531   1.859 -0.20 -0.00    -0.001 A  
DOCKED: ATOM      7  C   UNL     1     -50.567 -39.095   1.592 -0.20 +0.00    +0.008 A  
DOCKED: ATOM      8  C   UNL     1     -52.103 -37.572   2.700 -0.28 +0.00    +0.010 A  
DOCKED: ATOM      9  C   UNL     1     -51.534 -38.848   2.568 -0.29 +0.00    +0.068 A  
DOCKED: ATOM     10  N   UNL     1     -52.284 -40.758   4.150 -2.66 -0.00    -0.191 NA 
DOCKED: ATOM     11  C   UNL     1     -51.948 -39.902   3.440 -0.39 +0.00    +0.101 C  
DOCKED: ENDROOT
DOCKED: BRANCH   2  12
DOCKED: ATOM     12  C   UNL     1     -49.299 -34.768   0.493 -0.01 +0.00    +0.038 C  
DOCKED: BRANCH  12  13
DOCKED: ATOM     13  C   UNL     1     -49.023 -33.644  -0.504 -0.00 +0.00    +0.038 C  
DOCKED: BRANCH  13  14
DOCKED: ATOM     14  C   UNL     1     -48.003 -34.079  -1.554 +0.00 +0.00    +0.251 C  
DOCKED: BRANCH  14  15
DOCKED: ATOM     15  N   UNL     1     -48.238 -33.378  -2.811 -0.00 +0.00    +0.141 N  
DOCKED: ATOM     16  C   UNL     1     -48.221 -34.315  -3.936 +0.00 +0.00    +0.285 C  
DOCKED: ATOM     17  C   UNL     1     -49.513 -32.659  -2.769 +0.00 +0.00    +0.285 C  
DOCKED: ENDBRANCH  14  15
DOCKED: ENDBRANCH  13  14
DOCKED: ENDBRANCH  12  13
DOCKED: ENDBRANCH   2  12
DOCKED: BRANCH   2  18
DOCKED: ATOM     18  C   UNL     1     -51.165 -35.295  -1.066 -0.12 +0.00    +0.006 A  
DOCKED: ATOM     19  C   UNL     1     -52.117 -34.392  -0.594 -0.15 +0.00    +0.001 A  
DOCKED: ATOM     20  C   UNL     1     -53.065 -33.859  -1.470 -0.19 +0.00    +0.029 A  
DOCKED: ATOM     21  C   UNL     1     -53.058 -34.229  -2.814 -0.17 +0.00    +0.140 A  
DOCKED: ATOM     22  C   UNL     1     -52.105 -35.132  -3.284 -0.21 +0.00    +0.029 A  
DOCKED: ATOM     23  F   UNL     1     -53.966 -33.716  -3.654 -0.11 -0.00    -0.204 F  
DOCKED: ATOM     24  C   UNL     1     -51.158 -35.666  -2.410 -0.15 +0.00    +0.001 A  
DOCKED: ENDBRANCH   2  18
DOCKED: TORSDOF 5
DOCKED: TER
DOCKED: ENDMDL
________________________________________________________________________________


    FINAL DOCKED STATE:
    ________________________


Run:   505 / 512
Time taken for this run:   0.002s

DOCKED: MODEL        505
DOCKED: USER    Run = 505
DOCKED: USER
DOCKED: USER    Estimated Free Energy of Binding    =  -3.61 kcal/mol  [=(1)+(2)+(3)-(4)]
DOCKED: USER
DOCKED: USER    (1) Final Intermolecular Energy     =  -5.10 kcal/mol
DOCKED: USER        vdW + Hbond + desolv Energy     =  -5.10 kcal/mol
DOCKED: USER        Electrostatic Energy            =  +0.00 kcal/mol
DOCKED: USER        Moving Ligand-Fixed Receptor    =  -5.10 kcal/mol
DOCKED: USER        Moving Ligand-Moving Receptor   =  +0.00 kcal/mol
DOCKED: USER    (2) Final Total Internal Energy     =  -1.45 kcal/mol
DOCKED: USER    (3) Torsional Free Energy           =  +1.49 kcal/mol
DOCKED: USER    (4) Unbound System's Energy         =  -1.45 kcal/mol
DOCKED: USER
DOCKED: USER
DOCKED: REMARK  5 active torsions:
DOCKED: REMARK  status: ('A' for Active; 'I' for Inactive)
DOCKED: REMARK    1  A    between atoms: C_2  and  C_19 
DOCKED: REMARK    2  A    between atoms: C_2  and  C_11 
DOCKED: REMARK    3  A    between atoms: C_19  and  C_20 
DOCKED: REMARK    4  A    between atoms: C_20  and  C_21 
DOCKED: REMARK    5  A    between atoms: C_21  and  N_22 
DOCKED: USER                              x       y       z     vdW  Elec       q    Type
DOCKED: USER                           _______ _______ _______ _____ _____    ______ ____
DOCKED: ROOT
DOCKED: ATOM      1  O   UNL     1     -51.411 -34.526   0.883 +0.01 -0.00    -0.346 OA 
DOCKED: ATOM      2  C   UNL     1     -51.001 -35.581  -0.044 -0.09 +0.00    +0.130 C  
DOCKED: ATOM      3  C   UNL     1     -51.195 -36.845   0.743 -0.14 +0.00    +0.004 A  
DOCKED: ATOM      4  C   UNL     1     -51.771 -36.548   1.970 -0.21 +0.00    +0.006 A  
DOCKED: ATOM      5  C   UNL     1     -52.005 -35.090   2.075 -0.12 +0.00    +0.169 C  
DOCKED: ATOM      6  C   UNL     1     -50.898 -38.155   0.395 -0.16 -0.00    -0.001 A  
DOCKED: ATOM      7  C   UNL     1     -52.062 -37.542   2.889 -0.26 +0.00    +0.008 A  
DOCKED: ATOM      8  C   UNL     1     -51.182 -39.168   1.313 -0.25 +0.00    +0.010 A  
DOCKED: ATOM      9  C   UNL     1     -51.762 -38.862   2.553 -0.31 +0.00    +0.068 A  
DOCKED: ATOM     10  N   UNL     1     -52.282 -40.767   4.231 -2.68 -0.00    -0.191 NA 
DOCKED: ATOM     11  C   UNL     1     -52.048 -39.913   3.479 -0.35 +0.00    +0.101 C  
DOCKED: ENDROOT
DOCKED: BRANCH   2  12
DOCKED: ATOM     12  C   UNL     1     -51.888 -35.510  -1.281 -0.08 +0.00    +0.038 C  
DOCKED: BRANCH  12  13
DOCKED: ATOM     13  C   UNL     1     -52.731 -34.236  -1.289 -0.20 +0.00    +0.038 C  
DOCKED: BRANCH  13  14
DOCKED: ATOM     14  C   UNL     1     -52.319 -33.312  -2.434 -0.13 +0.00    +0.251 C  
DOCKED: BRANCH  14  15
DOCKED: ATOM     15  N   UNL     1     -51.803 -32.053  -1.909 -0.04 +0.00    +0.141 N  
DOCKED: ATOM     16  C   UNL     1     -52.588 -31.615  -0.754 -0.04 +0.00    +0.285 C  
DOCKED: ATOM     17  C   UNL     1     -50.392 -32.186  -1.543 -0.00 +0.00    +0.285 C  
DOCKED: ENDBRANCH  14  15
DOCKED: ENDBRANCH  13  14
DOCKED: ENDBRANCH  12  13
DOCKED: ENDBRANCH   2  12
DOCKED: BRANCH   2  18
DOCKED: ATOM     18  C   UNL     1     -49.572 -35.326  -0.391 -0.03 +0.00    +0.006 A  
DOCKED: ATOM     19  C   UNL     1     -48.732 -34.702   0.531 -0.01 +0.00    +0.001 A  
DOCKED: ATOM     20  C   UNL     1     -47.397 -34.464   0.205 -0.00 +0.00    +0.029 A  
DOCKED: ATOM     21  C   UNL     1     -46.903 -34.850  -1.040 -0.00 +0.00    +0.140 A  
DOCKED: ATOM     22  C   UNL     1     -47.743 -35.475  -1.961 -0.00 +0.00    +0.029 A  
DOCKED: ATOM     23  F   UNL     1     -45.620 -34.623  -1.352 +0.00 -0.00    -0.204 F  
DOCKED: ATOM     24  C   UNL     1     -49.080 -35.713  -1.636 -0.02 +0.00    +0.001 A  
DOCKED: ENDBRANCH   2  18
DOCKED: TORSDOF 5
DOCKED: TER
DOCKED: ENDMDL
________________________________________________________________________________


    FINAL DOCKED STATE:
    ________________________


Run:   506 / 512
Time taken for this run:   0.002s

DOCKED: MODEL        506
DOCKED: USER    Run = 506
DOCKED: USER
DOCKED: USER    Estimated Free Energy of Binding    =  -3.48 kcal/mol  [=(1)+(2)+(3)-(4)]
DOCKED: USER
DOCKED: USER    (1) Final Intermolecular Energy     =  -4.97 kcal/mol
DOCKED: USER        vdW + Hbond + desolv Energy     =  -4.97 kcal/mol
DOCKED: USER        Electrostatic Energy            =  +0.00 kcal/mol
DOCKED: USER        Moving Ligand-Fixed Receptor    =  -4.97 kcal/mol
DOCKED: USER        Moving Ligand-Moving Receptor   =  +0.00 kcal/mol
DOCKED: USER    (2) Final Total Internal Energy     =  -1.50 kcal/mol
DOCKED: USER    (3) Torsional Free Energy           =  +1.49 kcal/mol
DOCKED: USER    (4) Unbound System's Energy         =  -1.50 kcal/mol
DOCKED: USER
DOCKED: USER
DOCKED: REMARK  5 active torsions:
DOCKED: REMARK  status: ('A' for Active; 'I' for Inactive)
DOCKED: REMARK    1  A    between atoms: C_2  and  C_19 
DOCKED: REMARK    2  A    between atoms: C_2  and  C_11 
DOCKED: REMARK    3  A    between atoms: C_19  and  C_20 
DOCKED: REMARK    4  A    between atoms: C_20  and  C_21 
DOCKED: REMARK    5  A    between atoms: C_21  and  N_22 
DOCKED: USER                              x       y       z     vdW  Elec       q    Type
DOCKED: USER                           _______ _______ _______ _____ _____    ______ ____
DOCKED: ROOT
DOCKED: ATOM      1  O   UNL     1     -50.977 -33.959   2.265 -0.00 -0.00    -0.346 OA 
DOCKED: ATOM      2  C   UNL     1     -52.158 -34.424   1.536 -0.10 +0.00    +0.130 C  
DOCKED: ATOM      3  C   UNL     1     -52.263 -35.874   1.908 -0.22 +0.00    +0.004 A  
DOCKED: ATOM      4  C   UNL     1     -51.295 -36.186   2.852 -0.15 +0.00    +0.006 A  
DOCKED: ATOM      5  C   UNL     1     -50.502 -34.978   3.175 -0.04 +0.00    +0.169 C  
DOCKED: ATOM      6  C   UNL     1     -53.152 -36.839   1.456 -0.30 -0.00    -0.001 A  
DOCKED: ATOM      7  C   UNL     1     -51.178 -37.464   3.370 -0.21 +0.00    +0.008 A  
DOCKED: ATOM      8  C   UNL     1     -53.045 -38.134   1.966 -0.20 +0.00    +0.010 A  
DOCKED: ATOM      9  C   UNL     1     -52.063 -38.444   2.919 -0.26 +0.00    +0.068 A  
DOCKED: ATOM     10  N   UNL     1     -51.894 -40.857   3.848 -2.16 -0.00    -0.191 NA 
DOCKED: ATOM     11  C   UNL     1     -51.969 -39.775   3.431 -0.37 +0.00    +0.101 C  
DOCKED: ENDROOT
DOCKED: BRANCH   2  12
DOCKED: ATOM     12  C   UNL     1     -53.360 -33.605   1.994 -0.15 +0.00    +0.038 C  
DOCKED: BRANCH  12  13
DOCKED: ATOM     13  C   UNL     1     -52.972 -32.608   3.084 -0.07 +0.00    +0.038 C  
DOCKED: BRANCH  13  14
DOCKED: ATOM     14  C   UNL     1     -52.899 -31.187   2.528 -0.02 +0.00    +0.251 C  
DOCKED: BRANCH  14  15
DOCKED: ATOM     15  N   UNL     1     -51.790 -31.066   1.590 -0.02 +0.00    +0.141 N  
DOCKED: ATOM     16  C   UNL     1     -52.280 -30.733   0.252 -0.02 +0.00    +0.285 C  
DOCKED: ATOM     17  C   UNL     1     -50.836 -30.054   2.048 -0.02 +0.00    +0.285 C  
DOCKED: ENDBRANCH  14  15
DOCKED: ENDBRANCH  13  14
DOCKED: ENDBRANCH  12  13
DOCKED: ENDBRANCH   2  12
DOCKED: BRANCH   2  18
DOCKED: ATOM     18  C   UNL     1     -51.886 -34.214   0.084 -0.11 +0.00    +0.006 A  
DOCKED: ATOM     19  C   UNL     1     -50.571 -34.121  -0.371 -0.04 +0.00    +0.001 A  
DOCKED: ATOM     20  C   UNL     1     -50.318 -33.925  -1.730 -0.03 +0.00    +0.029 A  
DOCKED: ATOM     21  C   UNL     1     -51.377 -33.822  -2.629 -0.08 +0.00    +0.140 A  
DOCKED: ATOM     22  C   UNL     1     -52.692 -33.915  -2.173 -0.20 +0.00    +0.029 A  
DOCKED: ATOM     23  F   UNL     1     -51.134 -33.635  -3.933 -0.00 -0.00    -0.204 F  
DOCKED: ATOM     24  C   UNL     1     -52.947 -34.111  -0.814 -0.19 +0.00    +0.001 A  
DOCKED: ENDBRANCH   2  18
DOCKED: TORSDOF 5
DOCKED: TER
DOCKED: ENDMDL
________________________________________________________________________________


    FINAL DOCKED STATE:
    ________________________


Run:   507 / 512
Time taken for this run:   0.002s

DOCKED: MODEL        507
DOCKED: USER    Run = 507
DOCKED: USER
DOCKED: USER    Estimated Free Energy of Binding    =  -5.77 kcal/mol  [=(1)+(2)+(3)-(4)]
DOCKED: USER
DOCKED: USER    (1) Final Intermolecular Energy     =  -7.26 kcal/mol
DOCKED: USER        vdW + Hbond + desolv Energy     =  -7.26 kcal/mol
DOCKED: USER        Electrostatic Energy            =  +0.00 kcal/mol
DOCKED: USER        Moving Ligand-Fixed Receptor    =  -7.26 kcal/mol
DOCKED: USER        Moving Ligand-Moving Receptor   =  +0.00 kcal/mol
DOCKED: USER    (2) Final Total Internal Energy     =  -1.26 kcal/mol
DOCKED: USER    (3) Torsional Free Energy           =  +1.49 kcal/mol
DOCKED: USER    (4) Unbound System's Energy         =  -1.26 kcal/mol
DOCKED: USER
DOCKED: USER
DOCKED: REMARK  5 active torsions:
DOCKED: REMARK  status: ('A' for Active; 'I' for Inactive)
DOCKED: REMARK    1  A    between atoms: C_2  and  C_19 
DOCKED: REMARK    2  A    between atoms: C_2  and  C_11 
DOCKED: REMARK    3  A    between atoms: C_19  and  C_20 
DOCKED: REMARK    4  A    between atoms: C_20  and  C_21 
DOCKED: REMARK    5  A    between atoms: C_21  and  N_22 
DOCKED: USER                              x       y       z     vdW  Elec       q    Type
DOCKED: USER                           _______ _______ _______ _____ _____    ______ ____
DOCKED: ROOT
DOCKED: ATOM      1  O   UNL     1     -56.760 -39.354   8.029 -0.17 -0.00    -0.346 OA 
DOCKED: ATOM      2  C   UNL     1     -57.601 -38.156   8.027 -0.23 +0.00    +0.130 C  
DOCKED: ATOM      3  C   UNL     1     -58.185 -38.129   6.644 -0.33 +0.00    +0.004 A  
DOCKED: ATOM      4  C   UNL     1     -57.801 -39.269   5.953 -0.42 +0.00    +0.006 A  
DOCKED: ATOM      5  C   UNL     1     -56.960 -40.123   6.820 -0.20 +0.00    +0.169 C  
DOCKED: ATOM      6  C   UNL     1     -59.001 -37.177   6.050 -0.32 -0.00    -0.001 A  
DOCKED: ATOM      7  C   UNL     1     -58.213 -39.494   4.650 -0.35 +0.00    +0.008 A  
DOCKED: ATOM      8  C   UNL     1     -59.421 -37.388   4.736 +0.04 +0.00    +0.010 A  
DOCKED: ATOM      9  C   UNL     1     -59.029 -38.541   4.040 -0.44 +0.00    +0.068 A  
DOCKED: ATOM     10  N   UNL     1     -59.830 -38.904   1.602 -2.95 -0.00    -0.191 NA 
DOCKED: ATOM     11  C   UNL     1     -59.470 -38.741   2.695 -0.40 +0.00    +0.101 C  
DOCKED: ENDROOT
DOCKED: BRANCH   2  12
DOCKED: ATOM     12  C   UNL     1     -58.657 -38.306   9.115 -0.19 +0.00    +0.038 C  
DOCKED: BRANCH  12  13
DOCKED: ATOM     13  C   UNL     1     -58.469 -39.604   9.898 -0.22 +0.00    +0.038 C  
DOCKED: BRANCH  13  14
DOCKED: ATOM     14  C   UNL     1     -57.216 -39.543  10.770 -0.10 +0.00    +0.251 C  
DOCKED: BRANCH  14  15
DOCKED: ATOM     15  N   UNL     1     -57.495 -38.827  12.009 -0.11 +0.00    +0.141 N  
DOCKED: ATOM     16  C   UNL     1     -56.900 -39.522  13.152 -0.10 +0.00    +0.285 C  
DOCKED: ATOM     17  C   UNL     1     -56.997 -37.453  11.935 -0.03 +0.00    +0.285 C  
DOCKED: ENDBRANCH  14  15
DOCKED: ENDBRANCH  13  14
DOCKED: ENDBRANCH  12  13
DOCKED: ENDBRANCH   2  12
DOCKED: BRANCH   2  18
DOCKED: ATOM     18  C   UNL     1     -56.705 -36.994   8.303 -0.20 +0.00    +0.006 A  
DOCKED: ATOM     19  C   UNL     1     -55.321 -37.152   8.246 -0.18 +0.00    +0.001 A  
DOCKED: ATOM     20  C   UNL     1     -54.486 -36.065   8.504 -0.14 +0.00    +0.029 A  
DOCKED: ATOM     21  C   UNL     1     -55.034 -34.823   8.818 -0.06 +0.00    +0.140 A  
DOCKED: ATOM     22  C   UNL     1     -56.419 -34.665   8.874 -0.06 +0.00    +0.029 A  
DOCKED: ATOM     23  F   UNL     1     -54.232 -33.779   9.064 -0.00 -0.00    -0.204 F  
DOCKED: ATOM     24  C   UNL     1     -57.256 -35.752   8.616 -0.11 +0.00    +0.001 A  
DOCKED: ENDBRANCH   2  18
DOCKED: TORSDOF 5
DOCKED: TER
DOCKED: ENDMDL
________________________________________________________________________________


    FINAL DOCKED STATE:
    ________________________


Run:   508 / 512
Time taken for this run:   0.002s

DOCKED: MODEL        508
DOCKED: USER    Run = 508
DOCKED: USER
DOCKED: USER    Estimated Free Energy of Binding    =  -3.89 kcal/mol  [=(1)+(2)+(3)-(4)]
DOCKED: USER
DOCKED: USER    (1) Final Intermolecular Energy     =  -5.38 kcal/mol
DOCKED: USER        vdW + Hbond + desolv Energy     =  -5.38 kcal/mol
DOCKED: USER        Electrostatic Energy            =  +0.00 kcal/mol
DOCKED: USER        Moving Ligand-Fixed Receptor    =  -5.38 kcal/mol
DOCKED: USER        Moving Ligand-Moving Receptor   =  +0.00 kcal/mol
DOCKED: USER    (2) Final Total Internal Energy     =  -1.31 kcal/mol
DOCKED: USER    (3) Torsional Free Energy           =  +1.49 kcal/mol
DOCKED: USER    (4) Unbound System's Energy         =  -1.31 kcal/mol
DOCKED: USER
DOCKED: USER
DOCKED: REMARK  5 active torsions:
DOCKED: REMARK  status: ('A' for Active; 'I' for Inactive)
DOCKED: REMARK    1  A    between atoms: C_2  and  C_19 
DOCKED: REMARK    2  A    between atoms: C_2  and  C_11 
DOCKED: REMARK    3  A    between atoms: C_19  and  C_20 
DOCKED: REMARK    4  A    between atoms: C_20  and  C_21 
DOCKED: REMARK    5  A    between atoms: C_21  and  N_22 
DOCKED: USER                              x       y       z     vdW  Elec       q    Type
DOCKED: USER                           _______ _______ _______ _____ _____    ______ ____
DOCKED: ROOT
DOCKED: ATOM      1  O   UNL     1     -49.085 -35.591   0.439 +0.01 -0.00    -0.346 OA 
DOCKED: ATOM      2  C   UNL     1     -50.522 -35.315   0.427 -0.05 +0.00    +0.130 C  
DOCKED: ATOM      3  C   UNL     1     -51.112 -36.451   1.211 -0.12 +0.00    +0.004 A  
DOCKED: ATOM      4  C   UNL     1     -50.095 -37.246   1.720 -0.08 +0.00    +0.006 A  
DOCKED: ATOM      5  C   UNL     1     -48.780 -36.692   1.326 -0.02 +0.00    +0.169 C  
DOCKED: ATOM      6  C   UNL     1     -52.443 -36.751   1.463 -0.28 -0.00    -0.001 A  
DOCKED: ATOM      7  C   UNL     1     -50.370 -38.363   2.490 -0.16 +0.00    +0.008 A  
DOCKED: ATOM      8  C   UNL     1     -52.737 -37.877   2.234 -0.31 +0.00    +0.010 A  
DOCKED: ATOM      9  C   UNL     1     -51.705 -38.678   2.746 -0.29 +0.00    +0.068 A  
DOCKED: ATOM     10  N   UNL     1     -52.285 -40.758   4.178 -2.67 -0.00    -0.191 NA 
DOCKED: ATOM     11  C   UNL     1     -52.025 -39.826   3.535 -0.32 +0.00    +0.101 C  
DOCKED: ENDROOT
DOCKED: BRANCH   2  12
DOCKED: ATOM     12  C   UNL     1     -50.758 -33.958   1.080 -0.03 +0.00    +0.038 C  
DOCKED: BRANCH  12  13
DOCKED: ATOM     13  C   UNL     1     -51.113 -34.105   2.558 -0.05 +0.00    +0.038 C  
DOCKED: BRANCH  13  14
DOCKED: ATOM     14  C   UNL     1     -49.869 -33.988   3.436 -0.01 +0.00    +0.251 C  
DOCKED: BRANCH  14  15
DOCKED: ATOM     15  N   UNL     1     -50.188 -34.334   4.816 -0.02 +0.00    +0.141 N  
DOCKED: ATOM     16  C   UNL     1     -50.255 -35.787   4.981 -0.04 +0.00    +0.285 C  
DOCKED: ATOM     17  C   UNL     1     -49.198 -33.764   5.732 -0.00 +0.00    +0.285 C  
DOCKED: ENDBRANCH  14  15
DOCKED: ENDBRANCH  13  14
DOCKED: ENDBRANCH  12  13
DOCKED: ENDBRANCH   2  12
DOCKED: BRANCH   2  18
DOCKED: ATOM     18  C   UNL     1     -50.953 -35.308  -1.001 -0.11 +0.00    +0.006 A  
DOCKED: ATOM     19  C   UNL     1     -50.695 -36.412  -1.813 -0.12 +0.00    +0.001 A  
DOCKED: ATOM     20  C   UNL     1     -51.098 -36.404  -3.148 -0.14 +0.00    +0.029 A  
DOCKED: ATOM     21  C   UNL     1     -51.759 -35.293  -3.670 -0.17 +0.00    +0.140 A  
DOCKED: ATOM     22  C   UNL     1     -52.018 -34.189  -2.858 -0.17 +0.00    +0.029 A  
DOCKED: ATOM     23  F   UNL     1     -52.148 -35.287  -4.952 -0.07 -0.00    -0.204 F  
DOCKED: ATOM     24  C   UNL     1     -51.614 -34.196  -1.522 -0.12 +0.00    +0.001 A  
DOCKED: ENDBRANCH   2  18
DOCKED: TORSDOF 5
DOCKED: TER
DOCKED: ENDMDL
________________________________________________________________________________


    FINAL DOCKED STATE:
    ________________________


Run:   509 / 512
Time taken for this run:   0.002s

DOCKED: MODEL        509
DOCKED: USER    Run = 509
DOCKED: USER
DOCKED: USER    Estimated Free Energy of Binding    =  -4.54 kcal/mol  [=(1)+(2)+(3)-(4)]
DOCKED: USER
DOCKED: USER    (1) Final Intermolecular Energy     =  -6.03 kcal/mol
DOCKED: USER        vdW + Hbond + desolv Energy     =  -6.03 kcal/mol
DOCKED: USER        Electrostatic Energy            =  +0.00 kcal/mol
DOCKED: USER        Moving Ligand-Fixed Receptor    =  -6.03 kcal/mol
DOCKED: USER        Moving Ligand-Moving Receptor   =  +0.00 kcal/mol
DOCKED: USER    (2) Final Total Internal Energy     =  -1.27 kcal/mol
DOCKED: USER    (3) Torsional Free Energy           =  +1.49 kcal/mol
DOCKED: USER    (4) Unbound System's Energy         =  -1.27 kcal/mol
DOCKED: USER
DOCKED: USER
DOCKED: REMARK  5 active torsions:
DOCKED: REMARK  status: ('A' for Active; 'I' for Inactive)
DOCKED: REMARK    1  A    between atoms: C_2  and  C_19 
DOCKED: REMARK    2  A    between atoms: C_2  and  C_11 
DOCKED: REMARK    3  A    between atoms: C_19  and  C_20 
DOCKED: REMARK    4  A    between atoms: C_20  and  C_21 
DOCKED: REMARK    5  A    between atoms: C_21  and  N_22 
DOCKED: USER                              x       y       z     vdW  Elec       q    Type
DOCKED: USER                           _______ _______ _______ _____ _____    ______ ____
DOCKED: ROOT
DOCKED: ATOM      1  O   UNL     1     -60.497 -36.685   8.484 -0.00 -0.00    -0.346 OA 
DOCKED: ATOM      2  C   UNL     1     -59.100 -36.551   8.070 -0.11 +0.00    +0.130 C  
DOCKED: ATOM      3  C   UNL     1     -59.078 -37.131   6.686 -0.26 +0.00    +0.004 A  
DOCKED: ATOM      4  C   UNL     1     -60.368 -37.465   6.299 -0.25 +0.00    +0.006 A  
DOCKED: ATOM      5  C   UNL     1     -61.321 -37.123   7.379 -0.15 +0.00    +0.169 C  
DOCKED: ATOM      6  C   UNL     1     -58.004 -37.336   5.832 -0.33 -0.00    -0.001 A  
DOCKED: ATOM      7  C   UNL     1     -60.628 -38.016   5.056 -0.27 +0.00    +0.008 A  
DOCKED: ATOM      8  C   UNL     1     -58.249 -37.895   4.577 +0.01 +0.00    +0.010 A  
DOCKED: ATOM      9  C   UNL     1     -59.554 -38.233   4.191 -0.37 +0.00    +0.068 A  
DOCKED: ATOM     10  N   UNL     1     -59.975 -39.263   1.851 -2.49 -0.00    -0.191 NA 
DOCKED: ATOM     11  C   UNL     1     -59.786 -38.802   2.901 -0.30 +0.00    +0.101 C  
DOCKED: ENDROOT
DOCKED: BRANCH   2  12
DOCKED: ATOM     12  C   UNL     1     -58.726 -35.074   8.101 -0.13 +0.00    +0.038 C  
DOCKED: BRANCH  12  13
DOCKED: ATOM     13  C   UNL     1     -59.548 -34.313   9.140 -0.05 +0.00    +0.038 C  
DOCKED: BRANCH  13  14
DOCKED: ATOM     14  C   UNL     1     -60.225 -33.093   8.518 -0.04 +0.00    +0.251 C  
DOCKED: BRANCH  14  15
DOCKED: ATOM     15  N   UNL     1     -60.204 -33.188   7.063 -0.17 +0.00    +0.141 N  
DOCKED: ATOM     16  C   UNL     1     -61.566 -33.185   6.527 -0.13 +0.00    +0.285 C  
DOCKED: ATOM     17  C   UNL     1     -59.429 -32.089   6.485 -0.14 +0.00    +0.285 C  
DOCKED: ENDBRANCH  14  15
DOCKED: ENDBRANCH  13  14
DOCKED: ENDBRANCH  12  13
DOCKED: ENDBRANCH   2  12
DOCKED: BRANCH   2  18
DOCKED: ATOM     18  C   UNL     1     -58.281 -37.334   9.042 -0.12 +0.00    +0.006 A  
DOCKED: ATOM     19  C   UNL     1     -57.439 -36.673   9.936 -0.07 +0.00    +0.001 A  
DOCKED: ATOM     20  C   UNL     1     -56.674 -37.406  10.843 -0.09 +0.00    +0.029 A  
DOCKED: ATOM     21  C   UNL     1     -56.751 -38.798  10.856 -0.09 +0.00    +0.140 A  
DOCKED: ATOM     22  C   UNL     1     -57.592 -39.459   9.961 -0.21 +0.00    +0.029 A  
DOCKED: ATOM     23  F   UNL     1     -56.017 -39.501  11.728 -0.06 -0.00    -0.204 F  
DOCKED: ATOM     24  C   UNL     1     -58.358 -38.726   9.053 -0.22 +0.00    +0.001 A  
DOCKED: ENDBRANCH   2  18
DOCKED: TORSDOF 5
DOCKED: TER
DOCKED: ENDMDL
________________________________________________________________________________


    FINAL DOCKED STATE:
    ________________________


Run:   510 / 512
Time taken for this run:   0.002s

DOCKED: MODEL        510
DOCKED: USER    Run = 510
DOCKED: USER
DOCKED: USER    Estimated Free Energy of Binding    =  -4.39 kcal/mol  [=(1)+(2)+(3)-(4)]
DOCKED: USER
DOCKED: USER    (1) Final Intermolecular Energy     =  -5.88 kcal/mol
DOCKED: USER        vdW + Hbond + desolv Energy     =  -5.88 kcal/mol
DOCKED: USER        Electrostatic Energy            =  +0.00 kcal/mol
DOCKED: USER        Moving Ligand-Fixed Receptor    =  -5.88 kcal/mol
DOCKED: USER        Moving Ligand-Moving Receptor   =  +0.00 kcal/mol
DOCKED: USER    (2) Final Total Internal Energy     =  -1.19 kcal/mol
DOCKED: USER    (3) Torsional Free Energy           =  +1.49 kcal/mol
DOCKED: USER    (4) Unbound System's Energy         =  -1.19 kcal/mol
DOCKED: USER
DOCKED: USER
DOCKED: REMARK  5 active torsions:
DOCKED: REMARK  status: ('A' for Active; 'I' for Inactive)
DOCKED: REMARK    1  A    between atoms: C_2  and  C_19 
DOCKED: REMARK    2  A    between atoms: C_2  and  C_11 
DOCKED: REMARK    3  A    between atoms: C_19  and  C_20 
DOCKED: REMARK    4  A    between atoms: C_20  and  C_21 
DOCKED: REMARK    5  A    between atoms: C_21  and  N_22 
DOCKED: USER                              x       y       z     vdW  Elec       q    Type
DOCKED: USER                           _______ _______ _______ _____ _____    ______ ____
DOCKED: ROOT
DOCKED: ATOM      1  O   UNL     1     -56.993 -34.058   7.647 -0.04 -0.00    -0.346 OA 
DOCKED: ATOM      2  C   UNL     1     -58.452 -34.034   7.760 -0.12 +0.00    +0.130 C  
DOCKED: ATOM      3  C   UNL     1     -58.875 -35.377   7.238 -0.21 +0.00    +0.004 A  
DOCKED: ATOM      4  C   UNL     1     -57.753 -36.143   6.956 -0.26 +0.00    +0.006 A  
DOCKED: ATOM      5  C   UNL     1     -56.528 -35.377   7.278 -0.17 +0.00    +0.169 C  
DOCKED: ATOM      6  C   UNL     1     -60.151 -35.884   7.039 -0.22 -0.00    -0.001 A  
DOCKED: ATOM      7  C   UNL     1     -57.865 -37.432   6.464 -0.32 +0.00    +0.008 A  
DOCKED: ATOM      8  C   UNL     1     -60.281 -37.181   6.540 -0.24 +0.00    +0.010 A  
DOCKED: ATOM      9  C   UNL     1     -59.143 -37.951   6.255 -0.27 +0.00    +0.068 A  
DOCKED: ATOM     10  N   UNL     1     -59.420 -40.358   5.335 -2.60 -0.00    -0.191 NA 
DOCKED: ATOM     11  C   UNL     1     -59.296 -39.278   5.747 -0.36 +0.00    +0.101 C  
DOCKED: ENDROOT
DOCKED: BRANCH   2  12
DOCKED: ATOM     12  C   UNL     1     -58.820 -33.824   9.224 -0.04 +0.00    +0.038 C  
DOCKED: BRANCH  12  13
DOCKED: ATOM     13  C   UNL     1     -58.721 -35.126  10.015 -0.03 +0.00    +0.038 C  
DOCKED: BRANCH  13  14
DOCKED: ATOM     14  C   UNL     1     -60.070 -35.504  10.623 -0.01 +0.00    +0.251 C  
DOCKED: BRANCH  14  15
DOCKED: ATOM     15  N   UNL     1     -60.012 -36.844  11.195 -0.02 +0.00    +0.141 N  
DOCKED: ATOM     16  C   UNL     1     -58.623 -37.275  11.359 -0.02 +0.00    +0.285 C  
DOCKED: ATOM     17  C   UNL     1     -60.712 -36.887  12.480 -0.00 +0.00    +0.285 C  
DOCKED: ENDBRANCH  14  15
DOCKED: ENDBRANCH  13  14
DOCKED: ENDBRANCH  12  13
DOCKED: ENDBRANCH   2  12
DOCKED: BRANCH   2  18
DOCKED: ATOM     18  C   UNL     1     -58.937 -32.903   6.915 -0.18 +0.00    +0.006 A  
DOCKED: ATOM     19  C   UNL     1     -60.294 -32.586   6.888 -0.20 +0.00    +0.001 A  
DOCKED: ATOM     20  C   UNL     1     -60.746 -31.528   6.098 -0.18 +0.00    +0.029 A  
DOCKED: ATOM     21  C   UNL     1     -59.840 -30.790   5.337 -0.11 +0.00    +0.140 A  
DOCKED: ATOM     22  C   UNL     1     -58.483 -31.108   5.365 -0.15 +0.00    +0.029 A  
DOCKED: ATOM     23  F   UNL     1     -60.274 -29.774   4.580 -0.03 -0.00    -0.204 F  
DOCKED: ATOM     24  C   UNL     1     -58.030 -32.166   6.155 -0.14 +0.00    +0.001 A  
DOCKED: ENDBRANCH   2  18
DOCKED: TORSDOF 5
DOCKED: TER
DOCKED: ENDMDL
________________________________________________________________________________


    FINAL DOCKED STATE:
    ________________________


Run:   511 / 512
Time taken for this run:   0.002s

DOCKED: MODEL        511
DOCKED: USER    Run = 511
DOCKED: USER
DOCKED: USER    Estimated Free Energy of Binding    =  -3.98 kcal/mol  [=(1)+(2)+(3)-(4)]
DOCKED: USER
DOCKED: USER    (1) Final Intermolecular Energy     =  -5.47 kcal/mol
DOCKED: USER        vdW + Hbond + desolv Energy     =  -5.47 kcal/mol
DOCKED: USER        Electrostatic Energy            =  +0.00 kcal/mol
DOCKED: USER        Moving Ligand-Fixed Receptor    =  -5.47 kcal/mol
DOCKED: USER        Moving Ligand-Moving Receptor   =  +0.00 kcal/mol
DOCKED: USER    (2) Final Total Internal Energy     =  -1.31 kcal/mol
DOCKED: USER    (3) Torsional Free Energy           =  +1.49 kcal/mol
DOCKED: USER    (4) Unbound System's Energy         =  -1.31 kcal/mol
DOCKED: USER
DOCKED: USER
DOCKED: REMARK  5 active torsions:
DOCKED: REMARK  status: ('A' for Active; 'I' for Inactive)
DOCKED: REMARK    1  A    between atoms: C_2  and  C_19 
DOCKED: REMARK    2  A    between atoms: C_2  and  C_11 
DOCKED: REMARK    3  A    between atoms: C_19  and  C_20 
DOCKED: REMARK    4  A    between atoms: C_20  and  C_21 
DOCKED: REMARK    5  A    between atoms: C_21  and  N_22 
DOCKED: USER                              x       y       z     vdW  Elec       q    Type
DOCKED: USER                           _______ _______ _______ _____ _____    ______ ____
DOCKED: ROOT
DOCKED: ATOM      1  O   UNL     1     -59.794 -33.971   8.441 -0.02 -0.00    -0.346 OA 
DOCKED: ATOM      2  C   UNL     1     -58.520 -34.092   7.730 -0.12 +0.00    +0.130 C  
DOCKED: ATOM      3  C   UNL     1     -58.576 -35.465   7.124 -0.22 +0.00    +0.004 A  
DOCKED: ATOM      4  C   UNL     1     -59.816 -36.036   7.373 -0.19 +0.00    +0.006 A  
DOCKED: ATOM      5  C   UNL     1     -60.659 -35.090   8.138 -0.10 +0.00    +0.169 C  
DOCKED: ATOM      6  C   UNL     1     -57.610 -36.149   6.401 -0.28 -0.00    -0.001 A  
DOCKED: ATOM      7  C   UNL     1     -60.131 -37.304   6.915 -0.21 +0.00    +0.008 A  
DOCKED: ATOM      8  C   UNL     1     -57.911 -37.431   5.936 -0.33 +0.00    +0.010 A  
DOCKED: ATOM      9  C   UNL     1     -59.165 -38.004   6.191 -0.27 +0.00    +0.068 A  
DOCKED: ATOM     10  N   UNL     1     -59.693 -40.383   5.309 -2.55 -0.00    -0.191 NA 
DOCKED: ATOM     11  C   UNL     1     -59.456 -39.316   5.706 -0.35 +0.00    +0.101 C  
DOCKED: ENDROOT
DOCKED: BRANCH   2  12
DOCKED: ATOM     12  C   UNL     1     -58.444 -32.985   6.685 -0.18 +0.00    +0.038 C  
DOCKED: BRANCH  12  13
DOCKED: ATOM     13  C   UNL     1     -59.834 -32.595   6.185 -0.17 +0.00    +0.038 C  
DOCKED: BRANCH  13  14
DOCKED: ATOM     14  C   UNL     1     -60.426 -31.470   7.032 -0.10 +0.00    +0.251 C  
DOCKED: BRANCH  14  15
DOCKED: ATOM     15  N   UNL     1     -61.856 -31.679   7.224 -0.09 +0.00    +0.141 N  
DOCKED: ATOM     16  C   UNL     1     -62.303 -32.875   6.510 -0.12 +0.00    +0.285 C  
DOCKED: ATOM     17  C   UNL     1     -62.174 -31.790   8.649 -0.01 +0.00    +0.285 C  
DOCKED: ENDBRANCH  14  15
DOCKED: ENDBRANCH  13  14
DOCKED: ENDBRANCH  12  13
DOCKED: ENDBRANCH   2  12
DOCKED: BRANCH   2  18
DOCKED: ATOM     18  C   UNL     1     -57.438 -33.948   8.746 -0.05 +0.00    +0.006 A  
DOCKED: ATOM     19  C   UNL     1     -57.753 -33.943  10.104 -0.02 +0.00    +0.001 A  
DOCKED: ATOM     20  C   UNL     1     -56.740 -33.808  11.054 -0.00 +0.00    +0.029 A  
DOCKED: ATOM     21  C   UNL     1     -55.413 -33.679  10.645 -0.00 +0.00    +0.140 A  
DOCKED: ATOM     22  C   UNL     1     -55.098 -33.685   9.286 -0.03 +0.00    +0.029 A  
DOCKED: ATOM     23  F   UNL     1     -54.441 -33.552  11.557 +0.00 -0.00    -0.204 F  
DOCKED: ATOM     24  C   UNL     1     -56.112 -33.819   8.335 -0.07 +0.00    +0.001 A  
DOCKED: ENDBRANCH   2  18
DOCKED: TORSDOF 5
DOCKED: TER
DOCKED: ENDMDL
________________________________________________________________________________


    FINAL DOCKED STATE:
    ________________________


Run:   512 / 512
Time taken for this run:   0.002s

DOCKED: MODEL        512
DOCKED: USER    Run = 512
DOCKED: USER
DOCKED: USER    Estimated Free Energy of Binding    =  -5.36 kcal/mol  [=(1)+(2)+(3)-(4)]
DOCKED: USER
DOCKED: USER    (1) Final Intermolecular Energy     =  -6.85 kcal/mol
DOCKED: USER        vdW + Hbond + desolv Energy     =  -6.85 kcal/mol
DOCKED: USER        Electrostatic Energy            =  +0.00 kcal/mol
DOCKED: USER        Moving Ligand-Fixed Receptor    =  -6.85 kcal/mol
DOCKED: USER        Moving Ligand-Moving Receptor   =  +0.00 kcal/mol
DOCKED: USER    (2) Final Total Internal Energy     =  -1.11 kcal/mol
DOCKED: USER    (3) Torsional Free Energy           =  +1.49 kcal/mol
DOCKED: USER    (4) Unbound System's Energy         =  -1.11 kcal/mol
DOCKED: USER
DOCKED: USER
DOCKED: REMARK  5 active torsions:
DOCKED: REMARK  status: ('A' for Active; 'I' for Inactive)
DOCKED: REMARK    1  A    between atoms: C_2  and  C_19 
DOCKED: REMARK    2  A    between atoms: C_2  and  C_11 
DOCKED: REMARK    3  A    between atoms: C_19  and  C_20 
DOCKED: REMARK    4  A    between atoms: C_20  and  C_21 
DOCKED: REMARK    5  A    between atoms: C_21  and  N_22 
DOCKED: USER                              x       y       z     vdW  Elec       q    Type
DOCKED: USER                           _______ _______ _______ _____ _____    ______ ____
DOCKED: ROOT
DOCKED: ATOM      1  O   UNL     1     -57.356 -35.923   7.778 -0.06 -0.00    -0.346 OA 
DOCKED: ATOM      2  C   UNL     1     -57.096 -37.360   7.866 -0.22 +0.00    +0.130 C  
DOCKED: ATOM      3  C   UNL     1     -57.674 -37.909   6.594 -0.33 +0.00    +0.004 A  
DOCKED: ATOM      4  C   UNL     1     -58.125 -36.866   5.797 -0.32 +0.00    +0.006 A  
DOCKED: ATOM      5  C   UNL     1     -57.869 -35.573   6.471 -0.24 +0.00    +0.169 C  
DOCKED: ATOM      6  C   UNL     1     -57.783 -39.225   6.170 -0.42 -0.00    -0.001 A  
DOCKED: ATOM      7  C   UNL     1     -58.699 -37.100   4.560 -0.03 +0.00    +0.008 A  
DOCKED: ATOM      8  C   UNL     1     -58.363 -39.478   4.926 -0.47 +0.00    +0.010 A  
DOCKED: ATOM      9  C   UNL     1     -58.819 -38.420   4.125 -0.40 +0.00    +0.068 A  
DOCKED: ATOM     10  N   UNL     1     -59.888 -38.924   1.819 -2.71 -0.00    -0.191 NA 
DOCKED: ATOM     11  C   UNL     1     -59.409 -38.698   2.854 -0.47 +0.00    +0.101 C  
DOCKED: ENDROOT
DOCKED: BRANCH   2  12
DOCKED: ATOM     12  C   UNL     1     -55.591 -37.574   7.974 -0.20 +0.00    +0.038 C  
DOCKED: BRANCH  12  13
DOCKED: ATOM     13  C   UNL     1     -54.856 -36.252   8.190 -0.14 +0.00    +0.038 C  
DOCKED: BRANCH  13  14
DOCKED: ATOM     14  C   UNL     1     -54.786 -35.898   9.674 -0.05 +0.00    +0.251 C  
DOCKED: BRANCH  14  15
DOCKED: ATOM     15  N   UNL     1     -53.565 -35.155   9.961 -0.02 +0.00    +0.141 N  
DOCKED: ATOM     16  C   UNL     1     -53.622 -33.818   9.367 -0.01 +0.00    +0.285 C  
DOCKED: ATOM     17  C   UNL     1     -53.347 -35.059  11.405 -0.00 +0.00    +0.285 C  
DOCKED: ENDBRANCH  14  15
DOCKED: ENDBRANCH  13  14
DOCKED: ENDBRANCH  12  13
DOCKED: ENDBRANCH   2  12
DOCKED: BRANCH   2  18
DOCKED: ATOM     18  C   UNL     1     -57.800 -37.856   9.085 -0.16 +0.00    +0.006 A  
DOCKED: ATOM     19  C   UNL     1     -57.685 -39.194   9.460 -0.23 +0.00    +0.001 A  
DOCKED: ATOM     20  C   UNL     1     -58.344 -39.657  10.600 -0.14 +0.00    +0.029 A  
DOCKED: ATOM     21  C   UNL     1     -59.114 -38.781  11.364 -0.09 +0.00    +0.140 A  
DOCKED: ATOM     22  C   UNL     1     -59.228 -37.443  10.989 -0.05 +0.00    +0.029 A  
DOCKED: ATOM     23  F   UNL     1     -59.744 -39.225  12.459 -0.01 -0.00    -0.204 F  
DOCKED: ATOM     24  C   UNL     1     -58.570 -36.979   9.848 -0.07 +0.00    +0.001 A  
DOCKED: ENDBRANCH   2  18
DOCKED: TORSDOF 5
DOCKED: TER
DOCKED: ENDMDL
________________________________________________________________________________


    CLUSTERING HISTOGRAM
    ____________________


________________________________________________________________________________
     |           |     |           |     |
Clus | Lowest    | Run | Mean      | Num | Histogram
-ter | Binding   |     | Binding   | in  |
Rank | Energy    |     | Energy    | Clus|    5    10   15   20   25   30   35
_____|___________|_____|___________|_____|____:____|____:____|____:____|____:___
   1 |     -6.81 | 428 |     -5.52 |  17 |#################
   2 |     -6.07 | 426 |     -5.19 |  55 |#######################################################
   3 |     -5.89 | 282 |     -5.40 |  13 |#############
   4 |     -5.79 | 285 |     -4.90 |  26 |##########################
   5 |     -5.60 | 260 |     -5.22 |   3 |###
   6 |     -5.42 | 219 |     -4.79 |  10 |##########
   7 |     -5.28 | 297 |     -4.62 |  15 |###############
   8 |     -5.16 | 318 |     -4.28 |  20 |####################
   9 |     -5.01 | 234 |     -4.58 |  30 |##############################
  10 |     -4.88 | 414 |     -4.29 |  12 |############
  11 |     -4.82 | 390 |     -4.80 |   2 |##
  12 |     -4.82 | 456 |     -4.21 |  47 |###############################################
  13 |     -4.78 | 140 |     -4.33 |  39 |#######################################
  14 |     -4.67 |  65 |     -3.92 |  19 |###################
  15 |     -4.59 | 427 |     -4.33 |   6 |######
  16 |     -4.51 |  37 |     -4.21 |   5 |#####
  17 |     -4.44 | 106 |     -4.42 |   2 |##
  18 |     -4.40 | 154 |     -4.16 |   8 |########
  19 |     -4.36 |  90 |     -4.04 |  25 |#########################
  20 |     -4.31 | 309 |     -4.04 |  13 |#############
  21 |     -4.28 | 172 |     -3.98 |  17 |#################
  22 |     -4.27 | 304 |     -4.07 |   5 |#####
  23 |     -4.23 | 372 |     -3.81 |   8 |########
  24 |     -4.23 | 376 |     -4.04 |   8 |########
  25 |     -4.14 | 232 |     -3.92 |  15 |###############
  26 |     -4.09 |  89 |     -3.65 |  19 |###################
  27 |     -3.98 | 149 |     -3.74 |   7 |#######
  28 |     -3.97 | 332 |     -3.77 |   5 |#####
  29 |     -3.96 | 239 |     -3.82 |   7 |#######
  30 |     -3.91 | 476 |     -3.64 |   2 |##
  31 |     -3.88 | 312 |     -3.82 |   2 |##
  32 |     -3.82 | 160 |     -3.45 |   2 |##
  33 |     -3.81 | 421 |     -3.60 |   5 |#####
  34 |     -3.81 | 461 |     -3.67 |   9 |#########
  35 |     -3.80 |  57 |     -3.63 |   5 |#####
  36 |     -3.80 |  85 |     -3.80 |   1 |#
  37 |     -3.78 |  95 |     -3.64 |   2 |##
  38 |     -3.77 | 199 |     -3.61 |   2 |##
  39 |     -3.77 | 141 |     -3.77 |   1 |#
  40 |     -3.76 | 439 |     -3.72 |   2 |##
  41 |     -3.73 | 311 |     -3.73 |   1 |#
  42 |     -3.70 | 241 |     -3.58 |   2 |##
  43 |     -3.66 | 248 |     -3.57 |   3 |###
  44 |     -3.64 | 487 |     -3.64 |   1 |#
  45 |     -3.60 | 455 |     -3.60 |   1 |#
  46 |     -3.57 | 336 |     -3.57 |   1 |#
  47 |     -3.54 |  82 |     -3.54 |   1 |#
  48 |     -3.50 | 274 |     -3.50 |   1 |#
  49 |     -3.44 | 294 |     -3.44 |   1 |#
  50 |     -3.43 | 305 |     -3.43 |   1 |#
  51 |     -3.43 | 381 |     -3.43 |   1 |#
  52 |     -3.40 |  70 |     -3.40 |   1 |#
  53 |     -3.38 | 342 |     -3.38 |   1 |#
  54 |     -3.26 | 151 |     -3.26 |   1 |#
  55 |     -3.24 | 481 |     -3.24 |   1 |#
  56 |     -3.14 | 333 |     -3.14 |   1 |#
  57 |     -3.13 | 326 |     -3.13 |   1 |#
  58 |     -2.92 |  52 |     -2.92 |   1 |#
_____|___________|_____|___________|_____|______________________________________


    RMSD TABLE
    __________


_______________________________________________________________________
     |      |      |           |         |                 |
Rank | Sub- | Run  | Binding   | Cluster | Reference       | Grep
     | Rank |      | Energy    | RMSD    | RMSD            | Pattern
_____|______|______|___________|_________|_________________|___________
   1      1    428       -6.81      0.00     68.64           RANKING
   1      2    307       -6.47      1.36     68.12           RANKING
   1      3    132       -6.42      1.73     67.73           RANKING
   1      4    292       -6.36      1.34     68.19           RANKING
   1      5    440       -6.31      1.05     67.85           RANKING
   1      6    211       -6.05      1.75     67.62           RANKING
   1      7     18       -5.88      1.90     68.46           RANKING
   1      8    507       -5.77      2.00     67.37           RANKING
   1      9    377       -5.77      1.75     69.23           RANKING
   1     10     97       -5.49      1.48     67.41           RANKING
   1     11    366       -5.36      1.83     67.62           RANKING
   1     12    293       -4.85      1.94     67.41           RANKING
   1     13    174       -4.72      1.59     67.59           RANKING
   1     14     38       -4.45      1.83     68.13           RANKING
   1     15    434       -4.44      1.93     67.75           RANKING
   1     16    422       -4.38      1.96     67.72           RANKING
   1     17    418       -4.31      1.25     68.26           RANKING
   2      1    426       -6.07      0.00     67.64           RANKING
   2      2    473       -6.03      1.13     67.61           RANKING
   2      3    357       -5.98      1.29     68.13           RANKING
   2      4    171       -5.89      1.19     67.39           RANKING
   2      5    331       -5.83      1.27     67.94           RANKING
   2      6    485       -5.73      1.70     68.31           RANKING
   2      7     41       -5.72      0.77     67.79           RANKING
   2      8    216       -5.69      0.89     67.58           RANKING
   2      9     93       -5.65      0.61     67.51           RANKING
   2     10    315       -5.65      1.18     67.84           RANKING
   2     11     46       -5.64      1.27     67.56           RANKING
   2     12    503       -5.64      0.99     67.32           RANKING
   2     13     13       -5.62      1.45     67.73           RANKING
   2     14    253       -5.62      1.19     67.61           RANKING
   2     15    501       -5.59      0.99     67.46           RANKING
   2     16    316       -5.58      1.17     67.34           RANKING
   2     17    286       -5.57      1.59     67.46           RANKING
   2     18    399       -5.55      1.38     67.79           RANKING
   2     19    302       -5.51      1.55     68.15           RANKING
   2     20    314       -5.51      1.22     67.42           RANKING
   2     21    458       -5.44      1.50     67.47           RANKING
   2     22     73       -5.37      1.44     67.84           RANKING
   2     23    512       -5.36      1.19     67.29           RANKING
   2     24    406       -5.35      1.57     67.65           RANKING
   2     25    491       -5.32      1.39     68.04           RANKING
   2     26    208       -5.30      1.83     68.21           RANKING
   2     27    322       -5.26      1.12     67.49           RANKING
   2     28     63       -5.23      1.57     67.78           RANKING
   2     29    378       -5.23      1.60     67.74           RANKING
   2     30    374       -5.17      1.37     67.75           RANKING
   2     31    116       -5.16      1.50     67.65           RANKING
   2     32    409       -5.09      1.90     67.81           RANKING
   2     33    382       -5.03      1.57     67.62           RANKING
   2     34    243       -5.03      1.14     67.70           RANKING
   2     35     39       -5.02      0.93     67.45           RANKING
   2     36    380       -5.02      1.79     67.82           RANKING
   2     37    155       -4.95      1.79     67.53           RANKING
   2     38    303       -4.94      1.46     67.79           RANKING
   2     39    263       -4.91      1.19     67.24           RANKING
   2     40    153       -4.88      1.55     67.26           RANKING
   2     41    195       -4.86      1.69     67.55           RANKING
   2     42     12       -4.83      1.64     67.42           RANKING
   2     43    168       -4.81      1.84     67.94           RANKING
   2     44    401       -4.80      1.55     67.79           RANKING
   2     45    218       -4.73      1.45     67.72           RANKING
   2     46    277       -4.72      1.09     68.00           RANKING
   2     47    360       -4.68      1.45     67.60           RANKING
   2     48    397       -4.63      1.94     67.96           RANKING
   2     49    419       -4.55      1.08     67.43           RANKING
   2     50    118       -4.40      1.70     67.51           RANKING
   2     51    109       -4.35      1.38     67.70           RANKING
   2     52    353       -4.31      1.39     67.84           RANKING
   2     53    221       -4.24      1.57     67.83           RANKING
   2     54    103       -4.13      1.66     68.03           RANKING
   2     55    407       -4.13      1.91     67.32           RANKING
   3      1    282       -5.89      0.00     68.42           RANKING
   3      2    467       -5.59      1.66     69.05           RANKING
   3      3    180       -5.58      0.88     67.92           RANKING
   3      4     20       -5.57      1.52     69.10           RANKING
   3      5     25       -5.56      1.43     69.19           RANKING
   3      6    295       -5.49      0.87     68.17           RANKING
   3      7    245       -5.47      1.79     69.05           RANKING
   3      8    164       -5.41      1.08     68.70           RANKING
   3      9     34       -5.31      2.00     69.62           RANKING
   3     10    185       -5.23      1.22     68.76           RANKING
   3     11    158       -5.06      1.41     68.68           RANKING
   3     12    424       -5.03      1.64     68.81           RANKING
   3     13    254       -5.02      1.56     69.32           RANKING
   4      1    285       -5.79      0.00     69.06           RANKING
   4      2    152       -5.54      0.58     69.08           RANKING
   4      3    347       -5.46      1.10     68.69           RANKING
   4      4    162       -5.46      1.88     67.95           RANKING
   4      5    463       -5.46      0.80     69.34           RANKING
   4      6    465       -5.46      1.03     68.49           RANKING
   4      7    466       -5.37      0.80     68.65           RANKING
   4      8    308       -5.36      1.26     68.30           RANKING
   4      9    429       -5.35      0.93     68.49           RANKING
   4     10    446       -5.25      0.87     69.13           RANKING
   4     11    143       -5.19      1.05     68.66           RANKING
   4     12    233       -5.06      1.17     68.63           RANKING
   4     13      5       -4.99      1.15     68.70           RANKING
   4     14     91       -4.82      1.05     68.87           RANKING
   4     15     75       -4.78      1.95     67.99           RANKING
   4     16    192       -4.72      1.63     68.28           RANKING
   4     17    215       -4.63      1.67     68.71           RANKING
   4     18    436       -4.55      1.74     68.42           RANKING
   4     19    509       -4.54      1.27     68.21           RANKING
   4     20    102       -4.50      1.41     68.20           RANKING
   4     21      9       -4.30      1.93     69.09           RANKING
   4     22    403       -4.29      1.78     68.41           RANKING
   4     23    107       -4.27      1.84     68.28           RANKING
   4     24    445       -4.20      1.59     69.00           RANKING
   4     25    205       -4.04      1.99     70.07           RANKING
   4     26    462       -4.01      1.57     68.66           RANKING
   5      1    260       -5.60      0.00     68.49           RANKING
   5      2    122       -5.04      0.76     68.28           RANKING
   5      3    354       -5.00      1.01     68.15           RANKING
   6      1    219       -5.42      0.00     67.15           RANKING
   6      2    226       -5.39      0.88     66.70           RANKING
   6      3    451       -5.33      1.72     67.02           RANKING
   6      4    433       -5.15      0.54     67.12           RANKING
   6      5    196       -5.13      1.98     66.95           RANKING
   6      6    317       -4.73      1.99     68.37           RANKING
   6      7    449       -4.57      1.21     66.66           RANKING
   6      8    256       -4.37      1.51     67.65           RANKING
   6      9    346       -4.00      1.85     67.24           RANKING
   6     10    287       -3.79      1.76     67.85           RANKING
   7      1    297       -5.28      0.00     67.37           RANKING
   7      2     55       -5.02      1.41     67.98           RANKING
   7      3    200       -4.89      1.73     67.21           RANKING
   7      4     86       -4.87      1.15     67.34           RANKING
   7      5    202       -4.83      1.41     67.93           RANKING
   7      6    255       -4.83      1.00     67.46           RANKING
   7      7    191       -4.82      0.90     67.34           RANKING
   7      8    313       -4.66      1.95     68.57           RANKING
   7      9    121       -4.62      2.00     67.70           RANKING
   7     10     53       -4.59      1.54     67.50           RANKING
   7     11    271       -4.50      1.46     67.29           RANKING
   7     12    289       -4.36      1.73     67.72           RANKING
   7     13    425       -4.28      1.99     67.02           RANKING
   7     14    246       -4.14      1.91     68.15           RANKING
   7     15    306       -3.56      1.99     66.67           RANKING
   8      1    318       -5.16      0.00     60.40           RANKING
   8      2    203       -5.12      1.16     60.50           RANKING
   8      3    396       -5.05      0.81     60.52           RANKING
   8      4    296       -4.85      1.28     60.05           RANKING
   8      5    335       -4.81      0.95     60.16           RANKING
   8      6    262       -4.67      0.91     60.47           RANKING
   8      7    238       -4.62      0.87     60.56           RANKING
   8      8    231       -4.60      1.29     59.88           RANKING
   8      9    177       -4.34      1.14     60.20           RANKING
   8     10    230       -4.09      1.86     60.16           RANKING
   8     11    206       -4.02      1.34     59.53           RANKING
   8     12    290       -4.00      1.53     60.54           RANKING
   8     13    411       -4.00      1.85     59.98           RANKING
   8     14     15       -3.89      1.61     60.81           RANKING
   8     15     49       -3.82      1.68     60.74           RANKING
   8     16     43       -3.77      1.47     60.50           RANKING
   8     17    186       -3.76      1.55     60.60           RANKING
   8     18      7       -3.73      1.80     60.83           RANKING
   8     19    265       -3.66      1.97     60.67           RANKING
   8     20     51       -3.65      1.67     60.58           RANKING
   9      1    234       -5.01      0.00     60.37           RANKING
   9      2    124       -5.01      1.79     59.92           RANKING
   9      3    188       -4.88      1.01     61.08           RANKING
   9      4     58       -4.83      1.18     61.06           RANKING
   9      5    494       -4.83      0.80     59.78           RANKING
   9      6     69       -4.81      1.92     59.93           RANKING
   9      7    365       -4.77      1.57     60.09           RANKING
   9      8     44       -4.72      1.69     60.05           RANKING
   9      9      6       -4.70      1.01     60.94           RANKING
   9     10    166       -4.69      1.85     60.31           RANKING
   9     11    123       -4.66      1.09     60.16           RANKING
   9     12    402       -4.66      1.47     60.70           RANKING
   9     13    334       -4.65      1.82     59.90           RANKING
   9     14    136       -4.65      1.46     59.83           RANKING
   9     15    201       -4.62      1.69     60.34           RANKING
   9     16    169       -4.59      1.18     61.06           RANKING
   9     17    184       -4.59      0.71     60.42           RANKING
   9     18    182       -4.55      1.19     60.51           RANKING
   9     19    423       -4.54      1.98     59.21           RANKING
   9     20    383       -4.52      0.62     60.66           RANKING
   9     21     61       -4.52      1.97     59.65           RANKING
   9     22    435       -4.51      0.75     60.64           RANKING
   9     23    209       -4.51      1.27     59.95           RANKING
   9     24    329       -4.49      1.70     60.37           RANKING
   9     25     36       -4.47      1.22     59.92           RANKING
   9     26    492       -4.24      1.16     59.42           RANKING
   9     27    187       -4.21      1.64     59.18           RANKING
   9     28    288       -4.15      1.46     61.21           RANKING
   9     29    105       -4.10      1.29     59.71           RANKING
   9     30    496       -3.95      1.64     59.35           RANKING
  10      1    414       -4.88      0.00     59.28           RANKING
  10      2    343       -4.86      0.71     59.43           RANKING
  10      3    176       -4.83      0.94     59.44           RANKING
  10      4     84       -4.68      0.85     59.48           RANKING
  10      5     40       -4.64      1.40     59.63           RANKING
  10      6    299       -4.43      1.02     59.02           RANKING
  10      7     64       -4.12      1.35     58.76           RANKING
  10      8    323       -4.00      1.86     58.67           RANKING
  10      9    193       -3.93      1.07     58.94           RANKING
  10     10    280       -3.86      1.91     58.84           RANKING
  10     11    355       -3.76      1.91     58.24           RANKING
  10     12    139       -3.46      1.85     58.07           RANKING
  11      1    390       -4.82      0.00     69.06           RANKING
  11      2      2       -4.78      0.62     68.80           RANKING
  12      1    456       -4.82      0.00     65.61           RANKING
  12      2    237       -4.64      0.67     65.37           RANKING
  12      3    363       -4.51      0.62     65.30           RANKING
  12      4    437       -4.51      0.84     65.65           RANKING
  12      5    344       -4.42      0.79     65.54           RANKING
  12      6     33       -4.40      1.22     64.86           RANKING
  12      7    358       -4.40      1.83     65.83           RANKING
  12      8    405       -4.40      1.10     65.00           RANKING
  12      9      8       -4.38      0.92     65.58           RANKING
  12     10    364       -4.37      1.46     65.59           RANKING
  12     11    190       -4.36      0.98     65.22           RANKING
  12     12    484       -4.32      1.76     65.19           RANKING
  12     13    283       -4.31      0.95     65.43           RANKING
  12     14    159       -4.30      0.86     65.52           RANKING
  12     15    170       -4.29      1.90     65.05           RANKING
  12     16    413       -4.29      1.21     65.00           RANKING
  12     17    235       -4.29      1.77     65.44           RANKING
  12     18    258       -4.27      1.86     65.49           RANKING
  12     19    181       -4.26      1.76     64.69           RANKING
  12     20    324       -4.25      1.46     65.89           RANKING
  12     21    502       -4.25      1.92     64.53           RANKING
  12     22     21       -4.23      1.67     65.50           RANKING
  12     23    272       -4.22      1.47     65.93           RANKING
  12     24    489       -4.22      1.96     65.69           RANKING
  12     25    442       -4.21      1.83     65.60           RANKING
  12     26     26       -4.21      1.88     65.05           RANKING
  12     27     14       -4.20      1.75     65.14           RANKING
  12     28    395       -4.18      1.69     65.68           RANKING
  12     29    240       -4.15      1.78     65.54           RANKING
  12     30     76       -4.14      1.83     65.45           RANKING
  12     31    359       -4.14      1.92     65.67           RANKING
  12     32    495       -4.09      1.34     65.56           RANKING
  12     33    498       -4.08      1.96     65.72           RANKING
  12     34     10       -4.07      1.78     64.94           RANKING
  12     35    394       -4.06      1.92     65.12           RANKING
  12     36    340       -4.06      1.97     65.29           RANKING
  12     37    298       -4.06      1.97     65.75           RANKING
  12     38    369       -4.06      1.32     66.07           RANKING
  12     39     30       -4.05      1.70     65.77           RANKING
  12     40    266       -4.03      1.66     65.88           RANKING
  12     41    373       -4.00      1.92     65.05           RANKING
  12     42    148       -3.99      1.38     66.04           RANKING
  12     43    350       -3.97      1.92     66.53           RANKING
  12     44     79       -3.97      1.76     65.57           RANKING
  12     45    178       -3.97      1.88     66.54           RANKING
  12     46      3       -3.87      1.56     66.34           RANKING
  12     47    341       -3.52      1.32     65.50           RANKING
  13      1    140       -4.78      0.00     67.07           RANKING
  13      2    117       -4.75      0.46     67.12           RANKING
  13      3    412       -4.69      0.52     67.04           RANKING
  13      4    223       -4.65      0.76     67.40           RANKING
  13      5    339       -4.64      0.59     67.27           RANKING
  13      6    101       -4.55      0.75     66.84           RANKING
  13      7    207       -4.55      1.19     67.33           RANKING
  13      8    460       -4.54      0.76     66.86           RANKING
  13      9    454       -4.50      0.74     66.65           RANKING
  13     10     17       -4.46      1.88     66.38           RANKING
  13     11    284       -4.45      0.94     66.60           RANKING
  13     12    387       -4.45      1.21     67.05           RANKING
  13     13    257       -4.41      1.05     66.71           RANKING
  13     14    319       -4.41      1.06     67.32           RANKING
  13     15    214       -4.41      1.97     66.21           RANKING
  13     16    210       -4.40      1.00     66.61           RANKING
  13     17    510       -4.39      1.58     67.21           RANKING
  13     18    264       -4.39      1.51     66.33           RANKING
  13     19     99       -4.36      1.83     66.86           RANKING
  13     20    126       -4.36      1.99     65.96           RANKING
  13     21     23       -4.34      1.57     66.65           RANKING
  13     22    310       -4.29      1.53     66.57           RANKING
  13     23    135       -4.28      1.91     67.36           RANKING
  13     24     83       -4.27      1.85     66.58           RANKING
  13     25    392       -4.25      1.97     67.65           RANKING
  13     26    431       -4.25      1.60     66.63           RANKING
  13     27     78       -4.22      1.83     66.49           RANKING
  13     28    247       -4.22      1.85     66.35           RANKING
  13     29     35       -4.22      1.98     66.80           RANKING
  13     30     94       -4.22      1.71     66.87           RANKING
  13     31    441       -4.15      1.03     67.34           RANKING
  13     32    114       -4.11      1.61     66.99           RANKING
  13     33     29       -4.08      1.85     66.78           RANKING
  13     34    480       -4.07      1.50     66.93           RANKING
  13     35    115       -4.01      1.63     67.66           RANKING
  13     36    229       -3.97      1.74     66.74           RANKING
  13     37    125       -3.97      1.30     67.38           RANKING
  13     38    385       -3.96      1.89     66.81           RANKING
  13     39    127       -3.88      1.82     66.78           RANKING
  14      1     65       -4.67      0.00     61.37           RANKING
  14      2     27       -4.19      1.42     61.11           RANKING
  14      3    356       -4.12      1.64     61.22           RANKING
  14      4     47       -4.08      1.86     60.83           RANKING
  14      5    113       -4.06      1.77     60.99           RANKING
  14      6    204       -4.06      1.40     60.86           RANKING
  14      7    408       -4.04      1.59     61.16           RANKING
  14      8    477       -4.03      1.96     60.72           RANKING
  14      9    183       -3.98      1.01     61.05           RANKING
  14     10    146       -3.93      1.56     60.65           RANKING
  14     11     96       -3.92      1.89     60.47           RANKING
  14     12    447       -3.90      1.82     60.87           RANKING
  14     13    508       -3.89      1.95     60.69           RANKING
  14     14    131       -3.83      1.10     60.83           RANKING
  14     15    261       -3.70      1.72     60.99           RANKING
  14     16    110       -3.62      1.78     60.37           RANKING
  14     17     71       -3.57      1.81     60.50           RANKING
  14     18     66       -3.48      1.84     60.66           RANKING
  14     19    506       -3.48      1.81     60.66           RANKING
  15      1    427       -4.59      0.00     67.90           RANKING
  15      2    361       -4.50      0.76     67.80           RANKING
  15      3     19       -4.37      1.48     68.34           RANKING
  15      4    129       -4.34      1.34     68.26           RANKING
  15      5    497       -4.18      1.43     67.06           RANKING
  15      6    388       -4.01      1.16     67.62           RANKING
  16      1     37       -4.51      0.00     59.13           RANKING
  16      2    291       -4.19      1.17     59.33           RANKING
  16      3    371       -4.15      0.84     59.47           RANKING
  16      4    328       -4.13      1.84     58.60           RANKING
  16      5     16       -4.09      1.07     59.04           RANKING
  17      1    106       -4.44      0.00     69.23           RANKING
  17      2    351       -4.41      0.88     68.92           RANKING
  18      1    154       -4.40      0.00     66.41           RANKING
  18      2     42       -4.30      1.07     65.88           RANKING
  18      3    444       -4.25      1.50     67.16           RANKING
  18      4    150       -4.21      1.17     65.82           RANKING
  18      5    415       -4.17      0.95     66.54           RANKING
  18      6    453       -4.15      1.76     65.47           RANKING
  18      7    244       -4.13      1.33     65.58           RANKING
  18      8    337       -3.67      1.19     67.01           RANKING
  19      1     90       -4.36      0.00     66.35           RANKING
  19      2     54       -4.28      1.33     67.41           RANKING
  19      3    432       -4.27      0.70     66.18           RANKING
  19      4     59       -4.26      0.85     66.36           RANKING
  19      5    145       -4.14      1.33     65.80           RANKING
  19      6     92       -4.14      1.22     66.42           RANKING
  19      7    100       -4.12      1.11     66.63           RANKING
  19      8    133       -4.10      1.37     66.04           RANKING
  19      9    111       -4.09      1.38     67.14           RANKING
  19     10    269       -4.09      1.76     67.35           RANKING
  19     11    275       -4.08      1.31     66.91           RANKING
  19     12     98       -4.04      1.56     66.75           RANKING
  19     13    249       -4.03      1.37     66.69           RANKING
  19     14    175       -4.03      1.37     67.04           RANKING
  19     15     74       -4.01      1.42     67.58           RANKING
  19     16    167       -3.98      1.46     65.85           RANKING
  19     17    511       -3.98      1.55     66.82           RANKING
  19     18    276       -3.97      1.32     66.99           RANKING
  19     19    482       -3.95      1.78     66.02           RANKING
  19     20     68       -3.95      1.37     66.50           RANKING
  19     21    112       -3.93      1.39     66.05           RANKING
  19     22    273       -3.91      1.48     66.45           RANKING
  19     23    194       -3.86      1.14     67.04           RANKING
  19     24    464       -3.73      1.90     66.82           RANKING
  19     25    330       -3.73      1.69     67.48           RANKING
  20      1    309       -4.31      0.00     64.61           RANKING
  20      2    138       -4.27      0.85     64.52           RANKING
  20      3    222       -4.22      0.65     64.80           RANKING
  20      4      1       -4.21      0.63     64.55           RANKING
  20      5    142       -4.18      0.62     64.61           RANKING
  20      6     28       -4.17      1.65     65.17           RANKING
  20      7    104       -4.15      0.70     64.61           RANKING
  20      8    250       -4.13      1.69     65.32           RANKING
  20      9    197       -3.94      1.86     65.59           RANKING
  20     10    474       -3.82      0.93     64.91           RANKING
  20     11    470       -3.79      1.28     65.14           RANKING
  20     12    368       -3.75      1.42     65.43           RANKING
  20     13    379       -3.59      1.61     65.10           RANKING
  21      1    172       -4.28      0.00     61.17           RANKING
  21      2     72       -4.21      1.35     60.85           RANKING
  21      3    443       -4.19      0.70     61.03           RANKING
  21      4    130       -4.12      1.01     60.82           RANKING
  21      5    469       -4.04      1.79     61.35           RANKING
  21      6    362       -3.99      1.57     60.73           RANKING
  21      7    370       -3.99      1.98     61.02           RANKING
  21      8    452       -3.97      1.75     60.74           RANKING
  21      9    486       -3.94      2.00     60.51           RANKING
  21     10     32       -3.92      1.52     61.06           RANKING
  21     11    161       -3.91      1.95     61.20           RANKING
  21     12    120       -3.88      1.16     61.22           RANKING
  21     13     24       -3.88      1.05     60.73           RANKING
  21     14    220       -3.88      1.22     60.85           RANKING
  21     15    189       -3.87      1.94     60.58           RANKING
  21     16    471       -3.84      1.98     60.57           RANKING
  21     17    217       -3.70      1.10     60.82           RANKING
  22      1    304       -4.27      0.00     66.29           RANKING
  22      2    410       -4.21      1.10     65.89           RANKING
  22      3    251       -4.10      0.93     66.16           RANKING
  22      4    500       -3.99      1.04     66.23           RANKING
  22      5    279       -3.79      1.50     65.83           RANKING
  23      1    372       -4.23      0.00     57.47           RANKING
  23      2    345       -3.89      1.69     56.63           RANKING
  23      3    389       -3.87      1.66     56.74           RANKING
  23      4    156       -3.86      1.33     56.36           RANKING
  23      5    475       -3.85      1.22     56.61           RANKING
  23      6     60       -3.64      1.55     57.18           RANKING
  23      7    300       -3.60      1.66     55.80           RANKING
  23      8    225       -3.55      1.80     55.82           RANKING
  24      1    376       -4.23      0.00     65.67           RANKING
  24      2    252       -4.22      0.82     65.79           RANKING
  24      3    227       -4.22      0.74     65.56           RANKING
  24      4    398       -4.16      0.99     65.83           RANKING
  24      5     56       -4.03      1.85     65.38           RANKING
  24      6    267       -3.96      1.22     65.64           RANKING
  24      7    147       -3.83      1.83     65.30           RANKING
  24      8    134       -3.70      1.91     65.59           RANKING
  25      1    232       -4.14      0.00     65.81           RANKING
  25      2    165       -4.13      1.64     65.28           RANKING
  25      3     67       -4.06      1.62     65.36           RANKING
  25      4    278       -4.05      0.64     65.68           RANKING
  25      5      4       -4.05      0.64     65.80           RANKING
  25      6    212       -4.04      1.48     65.39           RANKING
  25      7    478       -4.03      1.52     65.38           RANKING
  25      8     77       -3.94      1.48     65.25           RANKING
  25      9     50       -3.93      1.53     65.25           RANKING
  25     10    144       -3.90      1.51     65.71           RANKING
  25     11    301       -3.85      1.41     65.15           RANKING
  25     12    213       -3.79      1.52     65.20           RANKING
  25     13    259       -3.69      1.93     65.38           RANKING
  25     14    128       -3.69      1.49     65.96           RANKING
  25     15    386       -3.55      1.82     65.81           RANKING
  26      1     89       -4.09      0.00     55.82           RANKING
  26      2    349       -4.00      0.60     55.85           RANKING
  26      3     80       -3.97      1.39     56.23           RANKING
  26      4    393       -3.97      1.41     56.41           RANKING
  26      5    157       -3.94      0.67     55.83           RANKING
  26      6    483       -3.88      1.19     56.18           RANKING
  26      7    400       -3.82      0.78     55.77           RANKING
  26      8    163       -3.69      0.84     55.70           RANKING
  26      9    198       -3.64      0.89     56.00           RANKING
  26     10    448       -3.60      0.86     55.63           RANKING
  26     11     48       -3.56      1.46     56.10           RANKING
  26     12     31       -3.52      1.41     56.21           RANKING
  26     13    108       -3.45      1.01     55.55           RANKING
  26     14    281       -3.42      1.97     55.19           RANKING
  26     15    479       -3.40      1.83     55.19           RANKING
  26     16    375       -3.38      1.68     55.83           RANKING
  26     17    236       -3.36      1.81     56.09           RANKING
  26     18    242       -3.34      1.57     56.10           RANKING
  26     19    325       -3.30      1.73     55.62           RANKING
  27      1    149       -3.98      0.00     66.28           RANKING
  27      2    352       -3.90      1.69     65.24           RANKING
  27      3    321       -3.76      1.13     66.09           RANKING
  27      4     62       -3.74      1.64     66.37           RANKING
  27      5    450       -3.69      1.84     66.55           RANKING
  27      6     81       -3.68      1.97     65.65           RANKING
  27      7    173       -3.41      1.82     66.63           RANKING
  28      1    332       -3.97      0.00     57.38           RANKING
  28      2    119       -3.89      1.47     57.24           RANKING
  28      3    459       -3.84      0.79     57.52           RANKING
  28      4    268       -3.71      1.07     57.22           RANKING
  28      5    438       -3.41      1.54     56.85           RANKING
  29      1    239       -3.96      0.00     60.54           RANKING
  29      2    504       -3.95      0.87     60.46           RANKING
  29      3    499       -3.87      1.02     60.36           RANKING
  29      4    338       -3.85      1.43     60.60           RANKING
  29      5    416       -3.77      1.97     60.48           RANKING
  29      6    224       -3.73      1.60     60.10           RANKING
  29      7    384       -3.66      1.85     60.49           RANKING
  30      1    476       -3.91      0.00     60.59           RANKING
  30      2    327       -3.38      1.58     60.36           RANKING
  31      1    312       -3.88      0.00     60.35           RANKING
  31      2    468       -3.77      0.53     60.08           RANKING
  32      1    160       -3.82      0.00     58.81           RANKING
  32      2     11       -3.09      1.62     58.12           RANKING
  33      1    421       -3.81      0.00     60.69           RANKING
  33      2    320       -3.80      1.79     60.40           RANKING
  33      3    137       -3.69      0.96     60.52           RANKING
  33      4    270       -3.42      1.63     60.04           RANKING
  33      5    348       -3.26      1.96     60.09           RANKING
  34      1    461       -3.81      0.00     60.48           RANKING
  34      2    457       -3.75      1.88     59.97           RANKING
  34      3    493       -3.74      1.70     60.38           RANKING
  34      4    490       -3.72      0.67     60.38           RANKING
  34      5    417       -3.71      1.49     60.20           RANKING
  34      6    391       -3.63      1.35     60.17           RANKING
  34      7    472       -3.61      1.63     60.57           RANKING
  34      8    505       -3.61      1.78     60.12           RANKING
  34      9    488       -3.44      1.70     59.91           RANKING
  35      1     57       -3.80      0.00     66.74           RANKING
  35      2     45       -3.65      1.77     66.18           RANKING
  35      3    430       -3.64      1.76     65.92           RANKING
  35      4    420       -3.59      1.46     66.06           RANKING
  35      5    404       -3.45      1.58     66.09           RANKING
  36      1     85       -3.80      0.00     60.99           RANKING
  37      1     95       -3.78      0.00     65.38           RANKING
  37      2     87       -3.51      1.63     65.84           RANKING
  38      1    199       -3.77      0.00     60.42           RANKING
  38      2    228       -3.46      1.07     60.16           RANKING
  39      1    141       -3.77      0.00     58.46           RANKING
  40      1    439       -3.76      0.00     57.70           RANKING
  40      2     88       -3.67      1.48     57.00           RANKING
  41      1    311       -3.73      0.00     59.51           RANKING
  42      1    241       -3.70      0.00     60.47           RANKING
  42      2    367       -3.46      1.57     60.60           RANKING
  43      1    248       -3.66      0.00     61.08           RANKING
  43      2    179       -3.58      1.23     61.23           RANKING
  43      3     22       -3.48      1.83     61.34           RANKING
  44      1    487       -3.64      0.00     65.52           RANKING
  45      1    455       -3.60      0.00     57.16           RANKING
  46      1    336       -3.57      0.00     57.51           RANKING
  47      1     82       -3.54      0.00     56.50           RANKING
  48      1    274       -3.50      0.00     56.85           RANKING
  49      1    294       -3.44      0.00     55.89           RANKING
  50      1    305       -3.43      0.00     68.28           RANKING
  51      1    381       -3.43      0.00     55.73           RANKING
  52      1     70       -3.40      0.00     67.02           RANKING
  53      1    342       -3.38      0.00     68.15           RANKING
  54      1    151       -3.26      0.00     61.68           RANKING
  55      1    481       -3.24      0.00     55.40           RANKING
  56      1    333       -3.14      0.00     58.06           RANKING
  57      1    326       -3.13      0.00     59.08           RANKING
  58      1     52       -2.92      0.00     56.90           RANKING

Run time 0.974 sec
Idle time 0.594 sec
